INSANE! Membrane UpperLeaflet>loPI:POPI:DPPI:PYPI:ERGO=140.0:15.0:9.0:6.0:30.0 LowerLeaflet>PSPI:POPI:POPS:YOPS:POPE:YOPE:POPC:YOPC:ERGO=6.0:14.0:21.0:9.0:9.0:21.0:12.0:48.0:60.0
49207
    1loPI    C1    1  15.259   7.254  11.472  0.1936  0.1693 -0.0607
    1loPI    C2    2  15.092   7.617  11.495  0.0277  0.0779  0.2413
    1loPI    C3    3  15.225   7.436  11.826  0.2533 -0.0730  0.0720
    1loPI   PO4    4  15.088   7.147  11.221 -0.0498  0.0131 -0.1965
    1loPI   GL1    5  15.027   7.208  10.701  0.0836  0.0396  0.2279
    1loPI   GL2    6  15.273   7.089  10.664 -0.1399  0.2418  0.1658
    1loPI   C1A    7  15.169   7.143  10.152 -0.0232  0.1803 -0.0908
    1loPI   C2A    8  15.128   7.131   9.662  0.0284 -0.2077  0.0515
    1loPI   C3A    9  15.151   7.142   9.230  0.2208 -0.0971  0.2177
    1loPI   C4A   10  15.257   7.218   8.864  0.1007  0.0859  0.1469
    1loPI   C5A   11  15.567   7.294   8.520 -0.1579 -0.0592 -0.2368
    1loPI   C6A   12  15.976   7.460   8.452 -0.1104 -0.1374  0.1304
    1loPI   C1B   13  15.633   7.058  10.381 -0.0473  0.0726  0.2135
    1loPI   C2B   14  15.740   6.915   9.934 -0.1438 -0.0014 -0.0583
    1loPI   C3B   15  15.664   6.973   9.611  0.1478  0.1557  0.0579
    1loPI   C4B   16  15.636   7.016   9.124 -0.0226 -0.3473 -0.3290
    2loPI    C1   17   8.237   9.504  10.974  0.0477 -0.0002  0.1093
    2loPI    C2   18   8.342   9.886  10.921 -0.0634  0.0126 -0.0230
    2loPI    C3   19   7.959   9.776  10.880  0.0001 -0.1500 -0.1959
    2loPI   PO4   20   8.482   9.399  10.739 -0.1447  0.0071 -0.0537
    2loPI   GL1   21   8.531   9.606  10.429 -0.3333 -0.0163 -0.0624
    2loPI   GL2   22   8.909   9.697  10.329  0.0207  0.2520 -0.2025
    2loPI   C1A   23   8.550   9.592  10.044  0.0193 -0.3290 -0.4464
    2loPI   C2A   24   8.608   9.600   9.606  0.0853  0.1978 -0.0429
    2loPI   C3A   25   8.501   9.511   9.195  0.0733 -0.1465 -0.1169
    2loPI   C4A   26   8.648   9.560   8.731  0.1349 -0.0200 -0.0936
    2loPI   C5A   27   8.803   9.419   8.389  0.0986 -0.0297 -0.1796
    2loPI   C6A   28   9.050   9.073   8.284  0.3008  0.3866  0.0667
    2loPI   C1B   29   9.072   9.507   9.907 -0.1764  0.4374  0.0349
    2loPI   C2B   30   9.067   9.421   9.527  0.0200  0.0326  0.2194
    2loPI   C3B   31   8.958   9.417   9.132 -0.2227 -0.0084  0.0909
    2loPI   C4B   32   9.053   9.274   8.804  0.1462 -0.0685 -0.3307
    3loPI    C1   33  12.373   3.995  11.526  0.1591 -0.1078 -0.0555
    3loPI    C2   34  12.404   4.318  11.759 -0.0461  0.0978 -0.3077
    3loPI    C3   35  12.117   4.299  11.480 -0.1631 -0.3882 -0.1636
    3loPI   PO4   36  12.611   3.950  11.431 -0.2705 -0.0022  0.5138
    3loPI   GL1   37  12.808   3.854  11.004  0.0679  0.1313  0.1282
    3loPI   GL2   38  13.033   3.564  11.038  0.0230 -0.0245 -0.2699
    3loPI   C1A   39  13.042   3.873  10.597  0.2049  0.0200  0.3365
    3loPI   C2A   40  13.003   3.951  10.134 -0.0872  0.2056  0.2862
    3loPI   C3A   41  13.110   3.926   9.689 -0.1000  0.0339  0.0117
    3loPI   C4A   42  13.204   3.974   9.221  0.0446 -0.0265  0.0331
    3loPI   C5A   43  13.460   4.068   8.839 -0.0718 -0.1542 -0.1802
    3loPI   C6A   44  13.607   4.464   8.754  0.1189  0.2089  0.0948
    3loPI   C1B   45  13.153   3.359  10.706  0.0539 -0.0775 -0.1301
    3loPI   C2B   46  13.083   3.483  10.249  0.0091 -0.2573  0.3553
    3loPI   C3B   47  13.267   3.424   9.873  0.0802 -0.1190  0.0866
    3loPI   C4B   48  13.332   3.505   9.429 -0.0259 -0.1081  0.0145
    4loPI    C1   49   7.140   4.355  11.339 -0.0825 -0.0949  0.0392
    4loPI    C2   50   7.151   4.101  11.030 -0.0358 -0.0042 -0.0342
    4loPI    C3   51   7.033   3.973  11.390 -0.2419 -0.0733 -0.1249
    4loPI   PO4   52   7.312   4.566  11.228 -0.0432  0.1571 -0.3295
    4loPI   GL1   53   7.383   4.503  10.810 -0.2074 -0.1496  0.0767
    4loPI   GL2   54   7.717   4.436  10.935 -0.0512  0.2048  0.4229
    4loPI   C1A   55   7.395   4.758  10.374 -0.0410  0.1067 -0.2899
    4loPI   C2A   56   7.397   4.769   9.937 -0.0580 -0.0708  0.1251
    4loPI   C3A   57   7.358   4.765   9.476 -0.0404  0.0282 -0.1338
    4loPI   C4A   58   7.363   4.868   9.072 -0.0134 -0.1468  0.1410
    4loPI   C5A   59   7.321   5.024   8.639 -0.0075  0.1875 -0.1525
    4loPI   C6A   60   6.914   5.252   8.612  0.2184  0.0107 -0.0182
    4loPI   C1B   61   7.809   4.624  10.586 -0.1707 -0.1694  0.1070
    4loPI   C2B   62   7.832   4.583  10.072 -0.0979  0.2268  0.1370
    4loPI   C3B   63   7.841   4.601   9.612  0.3344  0.1042  0.0639
    4loPI   C4B   64   7.779   4.647   9.177  0.1147 -0.0909 -0.2997
    5loPI    C1   65  14.644  11.515  10.823  0.0187 -0.1205 -0.0714
    5loPI    C2   66  14.710  11.752  11.138 -0.0269  0.0025 -0.1539
    5loPI    C3   67  14.479  11.428  11.177  0.1891 -0.1346  0.0054
    5loPI   PO4   68  14.540  11.697  10.668  0.1774  0.1745  0.1727
    5loPI   GL1   69  14.309  11.576  10.290 -0.0886 -0.0723 -0.2904
    5loPI   GL2   70  14.139  11.205  10.186 -0.0851  0.2470 -0.0478
    5loPI   C1A   71  14.435  11.696   9.841 -0.1690 -0.1660  0.0914
    5loPI   C2A   72  14.496  11.592   9.477 -0.1080  0.0558  0.1052
    5loPI   C3A   73  14.484  11.500   8.931 -0.1184  0.2326 -0.2176
    5loPI   C4A   74  14.369  11.350   8.554 -0.0889  0.0082 -0.0864
    5loPI   C5A   75  14.493  11.215   8.227  0.0537 -0.0509 -0.0161
    5loPI   C6A   76  14.297  10.890   7.962  0.0370 -0.3160 -0.1722
    5loPI   C1B   77  14.176  11.260   9.737 -0.2553 -0.2787 -0.3515
    5loPI   C2B   78  14.167  11.136   9.315 -0.2285  0.0965  0.3175
    5loPI   C3B   79  14.208  11.129   8.966  0.3171  0.1748 -0.1271
    5loPI   C4B   80  13.917  11.147   8.642  0.0379  0.0442 -0.2007
    6loPI    C1   81   9.567  10.301  10.807  0.0334 -0.1374  0.1502
    6loPI    C2   82   9.650  10.648  10.987 -0.0924  0.1261 -0.2825
    6loPI    C3   83   9.466  10.356  11.190 -0.0355  0.3295  0.0709
    6loPI   PO4   84   9.827  10.273  10.698  0.2988  0.0225 -0.3214
    6loPI   GL1   85   9.795   9.941  10.548 -0.0294  0.1298  0.0396
    6loPI   GL2   86   9.949   9.605  10.391 -0.1954 -0.1876  0.4060
    6loPI   C1A   87   9.510   9.853  10.215  0.1655 -0.2581  0.2397
    6loPI   C2A   88   9.481   9.787   9.785 -0.2186 -0.0700  0.0528
    6loPI   C3A   89   9.450   9.723   9.421  0.0788  0.0363  0.2082
    6loPI   C4A   90   9.395   9.691   8.956 -0.1980  0.2173 -0.4108
    6loPI   C5A   91   9.186   9.661   8.564  0.0052 -0.2180 -0.0116
    6loPI   C6A   92   8.849   9.905   8.358 -0.2556 -0.2408  0.0291
    6loPI   C1B   93   9.962   9.713   9.938  0.0649  0.0918 -0.0044
    6loPI   C2B   94   9.911   9.620   9.540  0.0048 -0.2836  0.2593
    6loPI   C3B   95   9.875   9.589   9.077 -0.0113 -0.1287  0.0629
    6loPI   C4B   96   9.809   9.625   8.698  0.1922 -0.0567 -0.0206
    7loPI    C1   97   8.627  16.226  10.321 -0.0028 -0.0227 -0.0193
    7loPI    C2   98   8.794  15.879  10.431  0.0257 -0.0308 -0.0865
    7loPI    C3   99   8.683  16.146  10.709  0.0264 -0.0830 -0.0358
    7loPI   PO4  100   8.382  16.179  10.178 -0.0359  0.0181  0.1864
    7loPI   GL1  101   8.432  15.853   9.879  0.2504  0.2390  0.1918
    7loPI   GL2  102   8.195  16.034   9.710 -0.1431  0.0832  0.2708
    7loPI   C1A  103   8.499  15.670   9.462 -0.3843 -0.1692 -0.0429
    7loPI   C2A  104   8.411  15.790   9.079  0.1057  0.1273 -0.1040
    7loPI   C3A  105   8.441  15.953   8.639 -0.3864  0.1184 -0.0976
    7loPI   C4A  106   8.171  16.026   8.321  0.2536 -0.2734  0.2150
    7loPI   C5A  107   8.103  15.998   7.933 -0.1063  0.0271  0.2790
    7loPI   C6A  108   8.331  15.690   7.872  0.1323  0.2193  0.2962
    7loPI   C1B  109   8.011  16.127   9.316  0.1570 -0.0392  0.3629
    7loPI   C2B  110   7.752  16.202   8.860  0.1540 -0.0820 -0.0745
    7loPI   C3B  111   7.681  16.029   8.469 -0.3224 -0.1417 -0.0924
    7loPI   C4B  112   7.611  15.991   8.034  0.0954  0.3150  0.0631
    8loPI    C1  113   0.585   0.742  11.227  0.0632 -0.0064 -0.2343
    8loPI    C2  114   0.190   0.686  11.253  0.0696  0.0073 -0.0984
    8loPI    C3  115   0.367   0.966  11.477  0.1776 -0.0996 -0.0492
    8loPI   PO4  116   0.546   0.781  10.902  0.1435  0.2070  0.2303
    8loPI   GL1  117   0.675   1.140  10.649 -0.1577 -0.0862 -0.2011
    8loPI   GL2  118   0.743   0.929  10.388  0.1095 -0.2403  0.3385
    8loPI   C1A  119   0.290   1.078  10.367  0.0730  0.1852  0.0836
    8loPI   C2A  120   0.148   1.095   9.949 -0.5524 -0.1742 -0.2690
    8loPI   C3A  121   0.276   1.097   9.510  0.0573 -0.0780 -0.1958
    8loPI   C4A  122   0.204   1.005   9.127  0.0174 -0.1660 -0.2035
    8loPI   C5A  123   0.197   0.968   8.699 -0.3826 -0.2691  0.0536
    8loPI   C6A  124   0.262   0.570   8.466  0.0520  0.4051 -0.2508
    8loPI   C1B  125   0.717   1.016   9.882  0.0689 -0.1733  0.2663
    8loPI   C2B  126   0.730   0.891   9.407  0.0109 -0.0569  0.1937
    8loPI   C3B  127   0.660   0.810   9.073 -0.2267 -0.5081  0.0620
    8loPI   C4B  128   0.728   0.708   8.650 -0.1568  0.1774 -0.0067
    9loPI    C1  129   4.317   8.273  11.609 -0.0980 -0.0323  0.1012
    9loPI    C2  130   4.698   8.381  11.670 -0.0511 -0.2154  0.1375
    9loPI    C3  131   4.421   8.459  11.948 -0.0454 -0.0592  0.1001
    9loPI   PO4  132   4.329   8.177  11.318 -0.2726 -0.0522 -0.0384
    9loPI   GL1  133   4.313   8.117  10.782  0.1204  0.1465  0.2014
    9loPI   GL2  134   4.377   7.901  10.662 -0.4700  0.1076  0.1424
    9loPI   C1A  135   4.219   8.198  10.299 -0.0003  0.1538  0.1886
    9loPI   C2A  136   4.221   8.039   9.874 -0.1754  0.2202  0.2577
    9loPI   C3A  137   4.128   8.000   9.491  0.1739 -0.1598 -0.2899
    9loPI   C4A  138   4.098   7.948   9.052 -0.5442  0.0137 -0.1995
    9loPI   C5A  139   4.064   7.825   8.678  0.0835  0.1457 -0.0330
    9loPI   C6A  140   4.108   7.340   8.431 -0.2054 -0.3489  0.5097
    9loPI   C1B  141   3.990   7.711  10.406 -0.2629 -0.4585 -0.2079
    9loPI   C2B  142   3.826   7.599   9.907 -0.0826  0.0888  0.0151
    9loPI   C3B  143   3.718   7.549   9.416 -0.0927  0.1073 -0.0189
    9loPI   C4B  144   3.794   7.481   9.043 -0.2356 -0.2167  0.2173
   10loPI    C1  145  17.688   7.780  11.301 -0.0526 -0.1880  0.0945
   10loPI    C2  146  17.769   7.423  11.463 -0.0025 -0.0940  0.2798
   10loPI    C3  147  17.755   7.749  11.694  0.3349  0.0861  0.0553
   10loPI   PO4  148  17.893   7.768  11.069  0.1966  0.0249 -0.2765
   10loPI   GL1  149  17.942   7.680  10.787 -0.3528 -0.0626  0.0396
   10loPI   GL2  150  18.195   7.652  10.614  0.2075 -0.2843 -0.0696
   10loPI   C1A  151  17.829   7.724  10.292  0.0894 -0.0143 -0.3432
   10loPI   C2A  152  17.781   7.831   9.963 -0.0943 -0.1471 -0.0102
   10loPI   C3A  153  17.847   7.784   9.581 -0.0667  0.1414 -0.1087
   10loPI   C4A  154  17.767   7.775   9.139  0.1331 -0.1823  0.0109
   10loPI   C5A  155  17.692   7.812   8.657 -0.0804  0.2774  0.0350
   10loPI   C6A  156  17.466   7.585   8.476  0.1576  0.0421  0.1796
   10loPI   C1B  157  18.358   7.594  10.190 -0.1072  0.0148  0.1752
   10loPI   C2B  158  18.281   7.632   9.786 -0.3251  0.0668 -0.0438
   10loPI   C3B  159  18.348   7.710   9.336 -0.1073  0.0388  0.1737
   10loPI   C4B  160  18.281   7.616   8.943 -0.0645  0.2124  0.0468
   11loPI    C1  161  16.270  11.459  10.897 -0.0892  0.0350 -0.0152
   11loPI    C2  162  16.342  11.173  11.167 -0.1320 -0.1556 -0.2030
   11loPI    C3  163  16.068  11.454  11.242 -0.0202 -0.1051  0.0239
   11loPI   PO4  164  16.241  11.391  10.629  0.1129 -0.0279  0.3453
   11loPI   GL1  165  16.280  11.450  10.265  0.0690  0.2115 -0.0435
   11loPI   GL2  166  16.550  11.561  10.164 -0.0046  0.0048  0.3920
   11loPI   C1A  167  16.000  11.236   9.955 -0.0054 -0.0837  0.1673
   11loPI   C2A  168  16.029  11.223   9.576 -0.2162  0.0818  0.0048
   11loPI   C3A  169  15.998  11.129   9.159 -0.1083  0.1425  0.0548
   11loPI   C4A  170  16.024  11.230   8.674 -0.3449  0.4166  0.0424
   11loPI   C5A  171  15.849  11.008   8.323 -0.1237 -0.0163 -0.1730
   11loPI   C6A  172  16.088  10.976   7.939 -0.1894 -0.2824  0.0971
   11loPI   C1B  173  16.434  11.527   9.731 -0.2779  0.2339  0.0830
   11loPI   C2B  174  16.372  11.616   9.327 -0.1325 -0.0151 -0.0166
   11loPI   C3B  175  16.427  11.565   8.953  0.1456  0.1413  0.1280
   11loPI   C4B  176  16.456  11.501   8.530 -0.0323  0.1596  0.1376
   12loPI    C1  177   5.847  11.688  10.753  0.1052  0.2722  0.0741
   12loPI    C2  178   6.090  11.694  11.070  0.2177  0.3233 -0.0122
   12loPI    C3  179   5.710  11.816  11.107  0.2117  0.2680  0.1171
   12loPI   PO4  180   6.042  11.905  10.520  0.0712 -0.1401  0.0182
   12loPI   GL1  181   5.971  12.094  10.129 -0.2278  0.0605  0.1289
   12loPI   GL2  182   6.215  12.212  10.012  0.3133  0.3328 -0.1843
   12loPI   C1A  183   5.775  11.907   9.742 -0.1445 -0.0022 -0.1275
   12loPI   C2A  184   5.733  11.779   9.384 -0.0164 -0.1076  0.1357
   12loPI   C3A  185   5.623  11.832   9.021  0.0427  0.1218 -0.0265
   12loPI   C4A  186   5.572  11.870   8.581  0.0787  0.1824 -0.4340
   12loPI   C5A  187   5.445  11.740   8.273  0.0995  0.0039 -0.2404
   12loPI   C6A  188   5.218  11.765   7.884 -0.0242 -0.0232 -0.2035
   12loPI   C1B  189   6.234  11.744   9.791  0.1392  0.0861 -0.2054
   12loPI   C2B  190   6.342  11.791   9.379  0.0464  0.1129 -0.0016
   12loPI   C3B  191   6.208  11.657   8.886  0.1709 -0.4019 -0.2463
   12loPI   C4B  192   6.149  11.712   8.459  0.2161  0.2186 -0.2162
   13loPI    C1  193  14.276  13.342  10.794 -0.2633  0.1972 -0.0503
   13loPI    C2  194  14.155  13.210  11.152 -0.1667 -0.2874 -0.1899
   13loPI    C3  195  14.211  13.601  11.092  0.1566 -0.2259  0.4290
   13loPI   PO4  196  14.147  13.191  10.617 -0.1183 -0.1671 -0.2181
   13loPI   GL1  197  14.068  13.171  10.230 -0.0617  0.1402  0.2203
   13loPI   GL2  198  14.413  13.137  10.125 -0.1948  0.2510 -0.0355
   13loPI   C1A  199  14.068  13.214   9.776  0.1145  0.2108 -0.1615
   13loPI   C2A  200  13.724  13.367   9.560 -0.1488  0.0506  0.1751
   13loPI   C3A  201  13.368  13.397   9.367  0.0347  0.0813  0.0490
   13loPI   C4A  202  13.338  13.302   8.964  0.2229 -0.0491  0.1541
   13loPI   C5A  203  13.424  13.414   8.449  0.0127 -0.1582 -0.0095
   13loPI   C6A  204  13.113  13.233   8.109  0.2086  0.0180  0.2036
   13loPI   C1B  205  14.571  13.021   9.779  0.3390  0.1342  0.2716
   13loPI   C2B  206  14.667  13.074   9.363  0.1382 -0.1338 -0.1283
   13loPI   C3B  207  14.823  13.052   8.913 -0.2334 -0.2204  0.0074
   13loPI   C4B  208  15.103  12.934   8.498 -0.1094  0.1154  0.0542
   14loPI    C1  209   5.886  17.049  11.305  0.0081  0.0551  0.0140
   14loPI    C2  210   6.001  16.726  11.097  0.0064  0.0354  0.0436
   14loPI    C3  211   6.255  16.901  11.351 -0.0255 -0.0022  0.1021
   14loPI   PO4  212   5.835  17.228  11.077  0.1286 -0.0593  0.5499
   14loPI   GL1  213   5.897  17.031  10.730  0.4040 -0.0522 -0.0615
   14loPI   GL2  214   5.947  16.729  10.628 -0.2093 -0.2910 -0.2888
   14loPI   C1A  215   5.848  17.064  10.298 -0.0758  0.2032  0.1607
   14loPI   C2A  216   5.795  16.985   9.811 -0.0346  0.0296 -0.0223
   14loPI   C3A  217   5.625  17.117   9.373 -0.3327  0.1367 -0.0670
   14loPI   C4A  218   5.766  17.252   8.995  0.0329 -0.2265  0.0482
   14loPI   C5A  219   6.109  17.149   8.695 -0.2608  0.1560  0.0224
   14loPI   C6A  220   6.130  16.850   8.454  0.3682 -0.0593  0.1174
   14loPI   C1B  221   5.877  16.595  10.142 -0.1147 -0.1229  0.0618
   14loPI   C2B  222   5.879  16.489   9.665  0.1422  0.0692  0.0894
   14loPI   C3B  223   5.730  16.618   9.300  0.2133 -0.0298 -0.0334
   14loPI   C4B  224   5.796  16.795   8.906 -0.0049  0.0580 -0.2311
   15loPI    C1  225  12.181   5.351  11.678 -0.0707 -0.0646  0.1492
   15loPI    C2  226  12.506   5.568  11.763  0.0652 -0.1660 -0.1024
   15loPI    C3  227  12.441   5.222  11.953 -0.0400 -0.0134  0.1443
   15loPI   PO4  228  12.129   5.492  11.402  0.1346  0.0712  0.1125
   15loPI   GL1  229  12.071   5.580  10.941 -0.2193  0.0118  0.1317
   15loPI   GL2  230  11.977   5.334  10.966 -0.1050 -0.1527 -0.0540
   15loPI   C1A  231  12.208   5.679  10.645 -0.2699 -0.0298 -0.2567
   15loPI   C2A  232  12.215   5.728  10.237 -0.1081  0.2331 -0.1914
   15loPI   C3A  233  12.290   5.517   9.911  0.1807  0.3488 -0.0245
   15loPI   C4A  234  12.302   5.610   9.548  0.3058 -0.4211 -0.0079
   15loPI   C5A  235  12.254   5.636   9.176 -0.3393 -0.1096 -0.1330
   15loPI   C6A  236  12.348   5.362   8.834 -0.0947  0.1401 -0.2107
   15loPI   C1B  237  11.842   5.320  10.501 -0.1481  0.2334  0.1356
   15loPI   C2B  238  11.855   5.296   9.963  0.1070  0.0611  0.1701
   15loPI   C3B  239  11.974   5.247   9.625  0.1544  0.0857 -0.0938
   15loPI   C4B  240  11.877   5.271   9.302 -0.0257  0.0069 -0.4097
   16loPI    C1  241  13.254  16.874  10.268  0.2190  0.0569  0.0776
   16loPI    C2  242  12.868  16.876  10.373  0.1793  0.2906 -0.0645
   16loPI    C3  243  13.147  16.999  10.633  0.1420  0.2831 -0.0207
   16loPI   PO4  244  13.245  16.982  10.080 -0.2635  0.0233  0.1162
   16loPI   GL1  245  13.340  16.922   9.732  0.1167 -0.0018  0.2285
   16loPI   GL2  246  13.661  16.900   9.709 -0.1437 -0.1285 -0.0656
   16loPI   C1A  247  13.068  16.633   9.465 -0.0150  0.2231  0.1251
   16loPI   C2A  248  13.068  16.724   9.004  0.0904  0.1247 -0.0211
   16loPI   C3A  249  12.892  16.750   8.599  0.1094 -0.0988 -0.0455
   16loPI   C4A  250  12.758  16.572   8.191  0.3494 -0.1154 -0.0400
   16loPI   C5A  251  12.890  16.322   7.895  0.0419  0.0369  0.1027
   16loPI   C6A  252  12.715  16.051   7.594 -0.1713 -0.2670  0.0764
   16loPI   C1B  253  13.578  16.948   9.257  0.1303 -0.0414  0.1352
   16loPI   C2B  254  13.577  16.770   8.865  0.1235 -0.1897 -0.0277
   16loPI   C3B  255  13.483  16.767   8.474 -0.4223 -0.0519 -0.0990
   16loPI   C4B  256  13.259  16.486   8.168 -0.1550 -0.2202  0.2038
   17loPI    C1  257  15.625  14.463  11.002  0.0967 -0.0961  0.0772
   17loPI    C2  258  15.469  14.725  11.260 -0.1774 -0.1155 -0.0651
   17loPI    C3  259  15.580  14.363  11.387  0.3626  0.1211  0.1674
   17loPI   PO4  260  15.713  14.568  10.746  0.0638 -0.0894 -0.1104
   17loPI   GL1  261  15.837  14.406  10.298 -0.1251 -0.0831  0.2716
   17loPI   GL2  262  16.049  14.635  10.199 -0.2572  0.0111 -0.1098
   17loPI   C1A  263  15.803  14.281   9.926  0.2043  0.2729 -0.1773
   17loPI   C2A  264  15.663  14.132   9.569 -0.0448  0.3371 -0.2013
   17loPI   C3A  265  15.778  14.087   9.112  0.1620 -0.0700  0.1497
   17loPI   C4A  266  15.966  13.961   8.676  0.1031  0.0055  0.0533
   17loPI   C5A  267  16.362  14.003   8.478 -0.0016  0.3602  0.2557
   17loPI   C6A  268  16.758  14.040   8.306  0.1583  0.0142 -0.1099
   17loPI   C1B  269  16.177  14.575   9.786 -0.0478  0.2648 -0.1754
   17loPI   C2B  270  16.233  14.465   9.391 -0.1561  0.2579 -0.0261
   17loPI   C3B  271  16.173  14.500   8.984  0.0381 -0.2154  0.2313
   17loPI   C4B  272  16.220  14.527   8.591 -0.1165  0.1800 -0.2466
   18loPI    C1  273  17.416   0.602  11.409 -0.0692  0.1094 -0.2953
   18loPI    C2  274  17.516   0.989  11.393 -0.1509  0.1530  0.1170
   18loPI    C3  275  17.655   0.760  11.689 -0.2068 -0.1041 -0.0527
   18loPI   PO4  276  17.398   0.618  11.098  0.1608  0.1242  0.2879
   18loPI   GL1  277  17.418   0.591  10.675  0.2309 -0.0225 -0.2451
   18loPI   GL2  278  17.523   0.422  10.418  0.1773  0.3011 -0.1481
   18loPI   C1A  279  17.431   0.988  10.417  0.0536 -0.0565  0.2166
   18loPI   C2A  280  17.391   1.195  10.090 -0.2153  0.1843 -0.1490
   18loPI   C3A  281  17.427   1.222   9.646  0.2340 -0.2073  0.1484
   18loPI   C4A  282  17.529   1.211   9.248 -0.0421 -0.0991 -0.1417
   18loPI   C5A  283  17.492   1.191   8.808 -0.0074  0.0685  0.0395
   18loPI   C6A  284  17.151   1.061   8.465  0.0845  0.1481  0.0221
   18loPI   C1B  285  17.551   0.690  10.014  0.0139  0.2010  0.1275
   18loPI   C2B  286  17.527   0.748   9.540 -0.0466 -0.1670  0.1715
   18loPI   C3B  287  17.564   0.660   9.160  0.0646  0.0519  0.1705
   18loPI   C4B  288  17.590   0.650   8.741 -0.0878 -0.1436  0.1097
   19loPI    C1  289  17.230   8.454  11.189 -0.0196 -0.1056 -0.0065
   19loPI    C2  290  16.990   8.728  11.355 -0.1775 -0.0956 -0.2459
   19loPI    C3  291  17.373   8.702  11.468 -0.2380  0.0244 -0.0077
   19loPI   PO4  292  17.228   8.350  10.941  0.0844  0.1714  0.0653
   19loPI   GL1  293  17.123   8.133  10.516  0.1623 -0.0215  0.1421
   19loPI   GL2  294  16.924   8.362  10.493  0.2401 -0.1650 -0.0620
   19loPI   C1A  295  17.276   7.931  10.180 -0.2852  0.0376 -0.1091
   19loPI   C2A  296  17.330   7.931   9.718 -0.2187 -0.1089  0.0290
   19loPI   C3A  297  17.286   7.859   9.360  0.3136 -0.3098 -0.0197
   19loPI   C4A  298  17.297   8.037   8.916  0.1374  0.1885 -0.0969
   19loPI   C5A  299  17.340   8.367   8.524 -0.1193  0.0759  0.2288
   19loPI   C6A  300  17.508   8.638   8.195  0.0216  0.2084  0.2956
   19loPI   C1B  301  16.803   8.128  10.096  0.0637  0.0574 -0.1767
   19loPI   C2B  302  16.790   8.022   9.703  0.1971  0.0907 -0.1424
   19loPI   C3B  303  16.863   8.099   9.226 -0.0645 -0.4100 -0.0304
   19loPI   C4B  304  16.755   8.130   8.821  0.1195 -0.2543  0.2223
   20loPI    C1  305  14.366   4.057  11.653 -0.2604 -0.2762  0.2566
   20loPI    C2  306  14.444   3.725  11.444  0.0416 -0.0075 -0.0714
   20loPI    C3  307  14.653   3.806  11.775  0.0509 -0.0828 -0.0586
   20loPI   PO4  308  14.257   4.201  11.512 -0.2438  0.0769 -0.4315
   20loPI   GL1  309  14.382   4.125  11.062 -0.6579  0.2583 -0.0193
   20loPI   GL2  310  14.769   4.099  10.993  0.2571 -0.1587  0.1841
   20loPI   C1A  311  14.416   3.887  10.635  0.2560 -0.0679  0.2390
   20loPI   C2A  312  14.447   3.917  10.134 -0.0569 -0.1656 -0.1711
   20loPI   C3A  313  14.459   3.976   9.765  0.1073 -0.0806  0.2025
   20loPI   C4A  314  14.430   3.986   9.375 -0.1432  0.0755 -0.1196
   20loPI   C5A  315  14.389   3.892   8.958  0.1135  0.2243  0.1928
   20loPI   C6A  316  14.550   3.942   8.546 -0.1290 -0.0690  0.0381
   20loPI   C1B  317  14.814   4.134  10.529  0.1634 -0.0437  0.1106
   20loPI   C2B  318  14.950   4.298  10.122  0.1911  0.1423 -0.1228
   20loPI   C3B  319  14.901   4.291   9.631 -0.0977 -0.1296 -0.1818
   20loPI   C4B  320  14.973   4.245   9.174 -0.0482  0.1550  0.3278
   21loPI    C1  321  12.574  11.995  10.503  0.1850 -0.0221 -0.0637
   21loPI    C2  322  12.367  12.027  10.844  0.0168  0.0410 -0.1701
   21loPI    C3  323  12.754  11.925  10.853 -0.0369 -0.1527  0.0266
   21loPI   PO4  324  12.625  12.179  10.296  0.4095  0.2063  0.1794
   21loPI   GL1  325  12.884  12.126   9.971  0.2035  0.2454 -0.2578
   21loPI   GL2  326  13.059  12.345   9.975 -0.2517  0.3133  0.2617
   21loPI   C1A  327  12.786  12.152   9.578 -0.0750 -0.0193  0.0445
   21loPI   C2A  328  12.929  12.205   9.136 -0.3995  0.2605 -0.2899
   21loPI   C3A  329  13.194  12.207   8.867 -0.0166  0.0734 -0.1459
   21loPI   C4A  330  13.587  12.343   8.770  0.0651 -0.0726  0.0119
   21loPI   C5A  331  13.986  12.584   8.611  0.1199  0.0754 -0.2109
   21loPI   C6A  332  14.344  12.374   8.669  0.0266 -0.2831  0.0533
   21loPI   C1B  333  13.226  12.405   9.526  0.0571 -0.1141  0.0083
   21loPI   C2B  334  13.498  12.416   9.243 -0.2409 -0.1492  0.2299
   21loPI   C3B  335  13.884  12.596   9.109  0.1954 -0.0380 -0.2521
   21loPI   C4B  336  14.231  12.473   9.148 -0.0394  0.0510  0.0681
   22loPI    C1  337   7.977   2.705  11.178  0.1232 -0.1481 -0.1160
   22loPI    C2  338   7.798   2.395  11.001 -0.0485 -0.0945 -0.0388
   22loPI    C3  339   7.872   2.385  11.394 -0.1376 -0.0001 -0.0192
   22loPI   PO4  340   7.905   2.921  11.017  0.0101 -0.0992 -0.1195
   22loPI   GL1  341   7.840   3.074  10.571  0.0606  0.2806  0.0709
   22loPI   GL2  342   8.125   3.122  10.596  0.2174 -0.2917 -0.0198
   22loPI   C1A  343   7.652   3.097  10.246  0.3496 -0.3175  0.1000
   22loPI   C2A  344   7.672   3.187   9.834  0.0986 -0.2415 -0.0167
   22loPI   C3A  345   7.658   3.195   9.394 -0.0156  0.2569 -0.0409
   22loPI   C4A  346   7.684   3.266   8.966 -0.4433  0.1185 -0.0736
   22loPI   C5A  347   7.732   3.565   8.576  0.0640 -0.2322  0.1010
   22loPI   C6A  348   7.846   3.558   8.139  0.0891  0.2888 -0.2523
   22loPI   C1B  349   8.100   3.119  10.102 -0.1707  0.0956 -0.0136
   22loPI   C2B  350   8.217   3.125   9.696  0.0371 -0.1337  0.2968
   22loPI   C3B  351   8.123   3.083   9.232  0.2365  0.0683 -0.1295
   22loPI   C4B  352   8.071   3.059   8.806 -0.0392 -0.0564  0.3059
   23loPI    C1  353  13.958  16.486  10.576  0.0916 -0.0873 -0.2173
   23loPI    C2  354  14.154  16.247  10.830 -0.1373 -0.0535 -0.0056
   23loPI    C3  355  13.754  16.256  10.831 -0.1328  0.3301 -0.0094
   23loPI   PO4  356  14.018  16.449  10.363  0.0891 -0.1408  0.0615
   23loPI   GL1  357  14.047  16.517   9.915 -0.0992  0.0520  0.2275
   23loPI   GL2  358  14.460  16.482   9.971 -0.3785  0.1540 -0.0918
   23loPI   C1A  359  13.959  16.555   9.556  0.0584  0.3618 -0.0647
   23loPI   C2A  360  13.909  16.502   9.123  0.1484  0.1009 -0.1218
   23loPI   C3A  361  13.960  16.445   8.770  0.2675 -0.2548  0.2238
   23loPI   C4A  362  14.240  16.421   8.330 -0.0596  0.0055 -0.2007
   23loPI   C5A  363  14.469  16.693   8.241 -0.0305  0.0026  0.1844
   23loPI   C6A  364  14.780  16.878   8.185 -0.2995  0.0129  0.0792
   23loPI   C1B  365  14.504  16.534   9.558  0.1427 -0.0132 -0.1018
   23loPI   C2B  366  14.404  16.670   9.132 -0.1063 -0.0588 -0.0854
   23loPI   C3B  367  14.278  16.781   8.701 -0.5973 -0.1251 -0.1287
   23loPI   C4B  368  13.982  16.855   8.360  0.2397  0.5914 -0.0398
   24loPI    C1  369   8.391  10.908  10.730 -0.0352 -0.0152  0.1383
   24loPI    C2  370   8.002  10.841  10.792  0.0347 -0.2063  0.3893
   24loPI    C3  371   8.180  11.157  10.962 -0.1079  0.1533 -0.1046
   24loPI   PO4  372   8.417  10.947  10.471  0.1900 -0.1366 -0.2080
   24loPI   GL1  373   8.191  10.715  10.286  0.0713 -0.1122  0.0425
   24loPI   GL2  374   7.851  10.565  10.392 -0.2603 -0.0788 -0.0600
   24loPI   C1A  375   8.116  10.848   9.796 -0.0260 -0.0151  0.1986
   24loPI   C2A  376   8.204  10.744   9.324  0.0568  0.0609 -0.2451
   24loPI   C3A  377   8.241  10.496   8.873 -0.3805  0.0413  0.0986
   24loPI   C4A  378   8.257  10.471   8.475 -0.1183 -0.0718 -0.0968
   24loPI   C5A  379   8.174  10.074   8.234 -0.0321 -0.3657  0.1470
   24loPI   C6A  380   8.329   9.610   8.251  0.1913 -0.0816  0.0211
   24loPI   C1B  381   7.737  10.462   9.922 -0.2212 -0.1610 -0.3364
   24loPI   C2B  382   7.637  10.523   9.572  0.2420 -0.0822  0.3776
   24loPI   C3B  383   7.350  10.481   9.271 -0.0151  0.1869 -0.0511
   24loPI   C4B  384   7.414  10.503   8.758 -0.1274 -0.0224  0.1041
   25loPI    C1  385  14.362   6.551  11.306  0.0973  0.0803  0.1214
   25loPI    C2  386  14.226   6.565  11.682  0.0436  0.0411  0.1035
   25loPI    C3  387  14.619   6.544  11.612  0.0588  0.1444  0.1555
   25loPI   PO4  388  14.179   6.710  11.185 -0.0300 -0.2397 -0.1602
   25loPI   GL1  389  14.200   6.839  10.808  0.0567 -0.3609 -0.0979
   25loPI   GL2  390  13.938   6.594  10.722 -0.1733 -0.1827  0.2322
   25loPI   C1A  391  14.230   6.961  10.382  0.0227  0.0273 -0.2613
   25loPI   C2A  392  14.254   6.930   9.934 -0.0338 -0.0019  0.1033
   25loPI   C3A  393  14.218   6.960   9.610 -0.0373 -0.2017  0.0662
   25loPI   C4A  394  14.267   6.897   9.293  0.0478 -0.3123  0.3076
   25loPI   C5A  395  14.260   6.915   8.835  0.0326 -0.1099  0.0145
   25loPI   C6A  396  14.059   6.535   8.593 -0.0021 -0.0123  0.3235
   25loPI   C1B  397  13.928   6.589  10.319 -0.0636  0.1197  0.1238
   25loPI   C2B  398  13.847   6.640   9.879 -0.0036  0.0833 -0.1747
   25loPI   C3B  399  13.868   6.591   9.543  0.0468 -0.2974  0.0875
   25loPI   C4B  400  13.877   6.571   9.082  0.3048  0.3878 -0.0400
   26loPI    C1  401  11.112   0.119  10.725 -0.0057 -0.0185 -0.0518
   26loPI    C2  402  10.975   0.263  11.072  0.0596 -0.3519  0.1160
   26loPI    C3  403  11.302   0.421  10.905 -0.2101  0.0887 -0.0125
   26loPI   PO4  404  10.981   0.140  10.588  0.0856 -0.1421  0.0252
   26loPI   GL1  405  10.916   0.220  10.218 -0.4626 -0.0108  0.2160
   26loPI   GL2  406  10.585   0.256  10.302 -0.3523  0.0149  0.1417
   26loPI   C1A  407  11.055   0.332   9.827 -0.1271  0.1007 -0.0604
   26loPI   C2A  408  11.116   0.374   9.454  0.0772  0.1419  0.0604
   26loPI   C3A  409  11.154   0.367   8.957 -0.0805  0.1798 -0.1429
   26loPI   C4A  410  11.061   0.481   8.584 -0.1277 -0.0517 -0.1049
   26loPI   C5A  411  11.252   0.672   8.219  0.0122  0.0354 -0.1284
   26loPI   C6A  412  11.061   0.757   7.857 -0.0710  0.2850 -0.1402
   26loPI   C1B  413  10.546   0.423   9.878 -0.2544  0.1915 -0.2107
   26loPI   C2B  414  10.646   0.474   9.508  0.1298  0.0607  0.1381
   26loPI   C3B  415  10.681   0.517   9.059  0.0988 -0.1325  0.0618
   26loPI   C4B  416  10.585   0.457   8.701  0.1292 -0.0170 -0.1690
   27loPI    C1  417   5.666   3.496  11.490  0.1245 -0.1499 -0.0039
   27loPI    C2  418   6.057   3.580  11.472  0.1339 -0.1558  0.1628
   27loPI    C3  419   5.934   3.199  11.468  0.1316 -0.1548  0.1418
   27loPI   PO4  420   5.572   3.654  11.326  0.1387 -0.2119  0.0202
   27loPI   GL1  421   5.752   3.468  10.942 -0.2163 -0.0349 -0.0382
   27loPI   GL2  422   5.672   3.241  10.701 -0.0170 -0.0223  0.0101
   27loPI   C1A  423   5.995   3.702  10.607 -0.0419  0.0929 -0.0526
   27loPI   C2A  424   6.131   3.585  10.260 -0.0482  0.1588 -0.1226
   27loPI   C3A  425   6.116   3.608   9.901  0.1252  0.0503  0.0703
   27loPI   C4A  426   6.189   3.721   9.468  0.3902 -0.1387 -0.0163
   27loPI   C5A  427   6.301   3.653   9.070  0.1271  0.2122  0.2676
   27loPI   C6A  428   6.360   3.659   8.663 -0.3253  0.0815 -0.0108
   27loPI   C1B  429   5.718   3.247  10.389  0.0317  0.0299 -0.1246
   27loPI   C2B  430   5.722   3.182   9.942  0.0912 -0.1641  0.0621
   27loPI   C3B  431   5.717   3.206   9.577  0.0527 -0.0619 -0.1419
   27loPI   C4B  432   5.868   3.280   9.191 -0.4224 -0.1849 -0.0848
   28loPI    C1  433  10.826  17.324  10.630  0.1633  0.0143 -0.1868
   28loPI    C2  434  10.724  17.581  10.919  0.0662 -0.1664 -0.0579
   28loPI    C3  435  11.088  17.415  10.918  0.0219 -0.2651  0.0355
   28loPI   PO4  436  10.720  17.497  10.405  0.0987  0.2301 -0.0784
   28loPI   GL1  437  10.557  17.523  10.049 -0.0023  0.0049  0.1655
   28loPI   GL2  438  10.250  17.685   9.998  0.1036 -0.0056 -0.0435
   28loPI   C1A  439  10.695  17.730   9.687  0.0903  0.0053 -0.4076
   28loPI   C2A  440  10.756  17.808   9.202  0.2568 -0.0309 -0.0073
   28loPI   C3A  441  10.715  17.759   8.889  0.2937  0.0002  0.0284
   28loPI   C4A  442  10.728  17.765   8.442  0.3714 -0.0276  0.1042
   28loPI   C5A  443  10.510  17.712   7.980 -0.1697  0.2002 -0.0842
   28loPI   C6A  444  10.359  17.465   7.580  0.3503  0.1927  0.1042
   28loPI   C1B  445  10.233  17.786   9.556  0.0169  0.0990  0.0705
   28loPI   C2B  446  10.239  17.834   9.055  0.0922  0.1147 -0.0857
   28loPI   C3B  447  10.161  17.743   8.645 -0.1357 -0.0578  0.0466
   28loPI   C4B  448  10.290  18.060   8.303 -0.0443  0.0030  0.1847
   29loPI    C1  449  14.701   8.097  10.965  0.0665 -0.0480 -0.1928
   29loPI    C2  450  14.427   8.195  11.240  0.1261 -0.0219 -0.1423
   29loPI    C3  451  14.750   7.983  11.346  0.2502  0.1604 -0.1517
   29loPI   PO4  452  14.609   8.098  10.789  0.6028  0.2440 -0.0618
   29loPI   GL1  453  14.570   7.838  10.538 -0.1316  0.0321 -0.2588
   29loPI   GL2  454  14.728   7.580  10.468 -0.1617  0.0648 -0.2826
   29loPI   C1A  455  14.505   7.847  10.105  0.1708  0.0670 -0.1008
   29loPI   C2A  456  14.522   7.749   9.693 -0.1803  0.1544 -0.0503
   29loPI   C3A  457  14.576   7.803   9.318  0.0555 -0.1294  0.0135
   29loPI   C4A  458  14.532   7.826   8.829 -0.1140 -0.0008  0.1065
   29loPI   C5A  459  14.734   7.620   8.340  0.0996  0.0345 -0.0821
   29loPI   C6A  460  14.843   7.527   7.993 -0.0779  0.0766 -0.0345
   29loPI   C1B  461  14.623   7.244  10.203  0.1456  0.0791 -0.0801
   29loPI   C2B  462  14.622   7.245   9.728  0.0575 -0.1407  0.2764
   29loPI   C3B  463  14.612   7.308   9.288  0.0381 -0.1479 -0.0012
   29loPI   C4B  464  14.684   7.306   8.864 -0.0245  0.0954  0.1531
   30loPI    C1  465  13.153  10.454  10.790  0.0992 -0.1060 -0.2274
   30loPI    C2  466  12.944  10.587  10.477 -0.2895 -0.1061  0.0246
   30loPI    C3  467  13.072  10.844  10.755  0.1176 -0.0965 -0.1643
   30loPI   PO4  468  13.264  10.259  10.565  0.2154  0.1416 -0.0646
   30loPI   GL1  469  13.549  10.114  10.241  0.2621 -0.0936 -0.0482
   30loPI   GL2  470  13.409  10.465  10.071 -0.0861 -0.1994  0.1316
   30loPI   C1A  471  13.576  10.008   9.820 -0.0948 -0.1247 -0.0835
   30loPI   C2A  472  13.562   9.868   9.442 -0.0179 -0.0558  0.2289
   30loPI   C3A  473  13.530   9.913   9.063 -0.3663 -0.3741 -0.2256
   30loPI   C4A  474  13.629   9.979   8.618  0.4344 -0.1698 -0.0356
   30loPI   C5A  475  13.428   9.941   8.244 -0.2624  0.0549  0.3957
   30loPI   C6A  476  13.517   9.964   7.725  0.1361 -0.0223 -0.0875
   30loPI   C1B  477  13.474  10.432   9.637  0.1762  0.1342 -0.0155
   30loPI   C2B  478  13.440  10.376   9.192  0.0936  0.0387 -0.1199
   30loPI   C3B  479  13.314  10.314   8.848 -0.3695 -0.1293 -0.0029
   30loPI   C4B  480  13.516  10.404   8.358  0.0063 -0.0186  0.0950
   31loPI    C1  481   7.838   1.783  10.939  0.0367  0.0069  0.0286
   31loPI    C2  482   7.723   1.925  11.295  0.0638 -0.2505  0.1426
   31loPI    C3  483   7.478   1.687  11.086 -0.0524  0.0980 -0.1278
   31loPI   PO4  484   7.949   1.884  10.786 -0.0509 -0.1404 -0.4695
   31loPI   GL1  485   7.792   2.136  10.496  0.2759 -0.3695 -0.2609
   31loPI   GL2  486   7.648   1.977  10.367 -0.1880  0.0143 -0.2181
   31loPI   C1A  487   7.937   2.296  10.058 -0.0656  0.1802  0.2125
   31loPI   C2A  488   7.892   2.267   9.690  0.1929  0.0621 -0.2650
   31loPI   C3A  489   7.878   2.239   9.285  0.0184  0.2517  0.1997
   31loPI   C4A  490   7.894   2.217   8.841  0.1256 -0.0867  0.0233
   31loPI   C5A  491   7.980   1.942   8.543 -0.1649  0.1090  0.1579
   31loPI   C6A  492   7.860   1.507   8.440 -0.1260 -0.2979  0.0363
   31loPI   C1B  493   7.518   1.844  10.016 -0.0397 -0.1098  0.0516
   31loPI   C2B  494   7.527   1.850   9.596 -0.2649  0.0057 -0.1210
   31loPI   C3B  495   7.597   1.834   9.165 -0.0761 -0.1176 -0.2011
   31loPI   C4B  496   7.522   1.824   8.679 -0.1163 -0.0177 -0.1220
   32loPI    C1  497  10.366   6.393  11.236  0.1515  0.0112  0.0425
   32loPI    C2  498  10.159   6.440  11.575  0.1175  0.3095 -0.0169
   32loPI    C3  499  10.524   6.275  11.585  0.0009  0.0547  0.1259
   32loPI   PO4  500  10.194   6.574  11.067  0.3533  0.1062 -0.3234
   32loPI   GL1  501   9.925   6.446  10.635  0.0690 -0.1243 -0.1537
   32loPI   GL2  502  10.163   6.655  10.468 -0.0637 -0.2864 -0.1031
   32loPI   C1A  503   9.747   6.489  10.245  0.1234 -0.0262 -0.3287
   32loPI   C2A  504   9.655   6.445   9.826  0.0609 -0.1093 -0.1160
   32loPI   C3A  505   9.708   6.434   9.398 -0.4265  0.0837  0.0120
   32loPI   C4A  506   9.598   6.366   8.975 -0.0115 -0.1887 -0.2598
   32loPI   C5A  507   9.529   6.563   8.635  0.2215 -0.0643  0.2465
   32loPI   C6A  508   9.285   6.863   8.489  0.4337 -0.1636  0.1387
   32loPI   C1B  509  10.115   6.386  10.000  0.0167  0.0517  0.1312
   32loPI   C2B  510  10.113   6.246   9.681  0.2813 -0.2456 -0.0872
   32loPI   C3B  511  10.209   6.134   9.267 -0.0919 -0.1364  0.2531
   32loPI   C4B  512  10.277   6.208   8.842 -0.0013  0.1502 -0.1835
   33loPI    C1  513  17.127   1.964  11.330 -0.0610 -0.1278 -0.0900
   33loPI    C2  514  17.196   2.025  11.719  0.0229 -0.1241 -0.1055
   33loPI    C3  515  16.918   1.762  11.604 -0.2052  0.0854 -0.0404
   33loPI   PO4  516  17.172   2.212  11.245 -0.0640 -0.1515 -0.0988
   33loPI   GL1  517  17.263   2.365  10.857 -0.1865 -0.0701 -0.2550
   33loPI   GL2  518  17.453   1.884  10.926 -0.0080  0.0188  0.0757
   33loPI   C1A  519  17.251   2.305  10.407  0.0822 -0.0498 -0.0235
   33loPI   C2A  520  17.249   2.244   9.934 -0.0199  0.2194  0.1548
   33loPI   C3A  521  17.211   2.278   9.527  0.0916 -0.1744  0.0486
   33loPI   C4A  522  17.074   2.312   9.073 -0.2084 -0.2644  0.0301
   33loPI   C5A  523  17.441   2.189   8.765 -0.0160 -0.0131 -0.1216
   33loPI   C6A  524  17.848   2.108   8.658 -0.0768  0.1252 -0.0677
   33loPI   C1B  525  17.530   1.950  10.560  0.1488  0.1667 -0.2268
   33loPI   C2B  526  17.673   2.083  10.112 -0.1752 -0.2058 -0.1575
   33loPI   C3B  527  17.650   2.063   9.640  0.1987 -0.2822  0.0214
   33loPI   C4B  528  17.776   2.071   9.154  0.3026 -0.0130 -0.1413
   34loPI    C1  529  16.863   5.515  11.419  0.0800 -0.0669  0.0552
   34loPI    C2  530  16.750   5.307  11.741 -0.0909 -0.0271  0.0225
   34loPI    C3  531  17.016   5.603  11.778 -0.2825  0.1295  0.1671
   34loPI   PO4  532  16.602   5.579  11.275  0.0179 -0.1088  0.0746
   34loPI   GL1  533  16.647   5.591  10.889  0.1799  0.2085  0.0933
   34loPI   GL2  534  16.448   5.785  10.715 -0.3436  0.0763  0.2344
   34loPI   C1A  535  16.939   5.712  10.542  0.1474  0.0240 -0.0439
   34loPI   C2A  536  16.960   5.799  10.155  0.1564  0.0332 -0.0201
   34loPI   C3A  537  16.894   5.697   9.763 -0.1504  0.0191  0.1331
   34loPI   C4A  538  16.911   5.607   9.372 -0.2103 -0.0853  0.1602
   34loPI   C5A  539  16.745   5.737   9.036  0.1879  0.1418 -0.0299
   34loPI   C6A  540  16.400   5.882   8.759 -0.2471  0.0572  0.0053
   34loPI   C1B  541  16.432   5.968  10.304 -0.1112  0.1585  0.0830
   34loPI   C2B  542  16.446   5.901   9.927  0.0682 -0.2482  0.2196
   34loPI   C3B  543  16.409   5.777   9.512  0.1226  0.2321 -0.0155
   34loPI   C4B  544  16.215   5.823   9.180 -0.3067 -0.0597 -0.0609
   35loPI    C1  545   6.507   6.254  10.978  0.1071  0.0966 -0.0902
   35loPI    C2  546   6.862   6.385  11.108  0.1286 -0.0960  0.0493
   35loPI    C3  547   6.554   6.357  11.361  0.0337 -0.0022 -0.0544
   35loPI   PO4  548   6.551   6.191  10.779  0.1747 -0.2648 -0.0953
   35loPI   GL1  549   6.237   6.292  10.546 -0.0954  0.2059 -0.1881
   35loPI   GL2  550   6.405   6.499  10.414 -0.3363 -0.1829 -0.1363
   35loPI   C1A  551   6.171   6.051  10.152 -0.0188  0.0257 -0.0527
   35loPI   C2A  552   6.104   6.091   9.685  0.1326 -0.2449  0.2692
   35loPI   C3A  553   6.060   6.038   9.190 -0.2301 -0.2202  0.2117
   35loPI   C4A  554   6.107   6.044   8.736  0.3364  0.2071 -0.1579
   35loPI   C5A  555   6.166   6.252   8.370  0.2236 -0.0645  0.1172
   35loPI   C6A  556   6.191   6.147   7.927 -0.0627 -0.2524  0.1096
   35loPI   C1B  557   6.455   6.411   9.955  0.1029  0.1594  0.0445
   35loPI   C2B  558   6.497   6.449   9.516 -0.3600 -0.0736 -0.0212
   35loPI   C3B  559   6.473   6.432   9.048  0.0192  0.2673  0.1215
   35loPI   C4B  560   6.647   6.417   8.593  0.2464 -0.0120  0.1337
   36loPI    C1  561   1.800   3.611  11.276 -0.0132 -0.0403  0.0923
   36loPI    C2  562   1.578   3.283  11.218  0.1439 -0.1603  0.1612
   36loPI    C3  563   1.525   3.505  11.547 -0.1688  0.0526 -0.0278
   36loPI   PO4  564   1.744   3.716  11.029 -0.0407  0.0283 -0.2227
   36loPI   GL1  565   1.478   3.742  10.684  0.0108 -0.0088  0.1275
   36loPI   GL2  566   1.447   3.437  10.688 -0.1882  0.0274 -0.1246
   36loPI   C1A  567   1.535   3.511  10.232 -0.5327 -0.2538  0.0506
   36loPI   C2A  568   1.474   3.483   9.777  0.0399  0.1981  0.0167
   36loPI   C3A  569   1.454   3.470   9.321 -0.2597 -0.0774 -0.2989
   36loPI   C4A  570   1.671   3.568   8.945 -0.2513  0.1403  0.0780
   36loPI   C5A  571   1.993   3.627   8.694  0.0559 -0.0371 -0.2466
   36loPI   C6A  572   2.341   3.299   8.467  0.1738 -0.1642  0.1377
   36loPI   C1B  573   1.024   3.585  10.487  0.1425  0.0002  0.2423
   36loPI   C2B  574   1.022   3.707  10.067  0.0436 -0.0842 -0.3743
   36loPI   C3B  575   0.979   3.700   9.668  0.1660 -0.0567 -0.1952
   36loPI   C4B  576   0.842   3.672   9.212 -0.2580  0.1121  0.3322
   37loPI    C1  577  16.752  15.673  10.963  0.1575 -0.1636 -0.0935
   37loPI    C2  578  16.456  15.799  11.201  0.1364 -0.0729 -0.1674
   37loPI    C3  579  16.566  15.415  11.206 -0.0349 -0.1229 -0.1957
   37loPI   PO4  580  16.700  15.936  10.758 -0.2527  0.1024 -0.2549
   37loPI   GL1  581  16.681  16.103  10.384  0.3046 -0.3307  0.1391
   37loPI   GL2  582  16.688  16.321  10.178 -0.0659 -0.0791  0.0848
   37loPI   C1A  583  16.786  15.812  10.010  0.0863  0.0832 -0.2582
   37loPI   C2A  584  16.773  15.921   9.687  0.1660 -0.1480  0.0687
   37loPI   C3A  585  16.887  15.858   9.365 -0.2874 -0.0917 -0.1098
   37loPI   C4A  586  16.838  15.791   9.011  0.0428 -0.2187  0.1183
   37loPI   C5A  587  16.871  15.651   8.649 -0.2810  0.0673  0.0628
   37loPI   C6A  588  16.859  15.523   8.126  0.2487  0.0056  0.0017
   37loPI   C1B  589  16.633  16.395   9.837  0.0924  0.2534  0.1533
   37loPI   C2B  590  16.758  16.366   9.492 -0.0744 -0.3214 -0.0507
   37loPI   C3B  591  16.717  16.258   9.069 -0.1500 -0.1245 -0.0170
   37loPI   C4B  592  16.621  16.321   8.696  0.0073  0.1265 -0.1918
   38loPI    C1  593   1.449  16.887  10.977  0.0244  0.1773 -0.1406
   38loPI    C2  594   1.162  17.034  11.215  0.0910  0.1448 -0.0392
   38loPI    C3  595   1.509  16.913  11.372  0.0771 -0.0222 -0.1347
   38loPI   PO4  596   1.463  16.989  10.807 -0.0319  0.1524 -0.0454
   38loPI   GL1  597   1.331  17.042  10.440  0.3433 -0.1645  0.0366
   38loPI   GL2  598   1.070  17.191  10.322  0.1073  0.0990  0.2801
   38loPI   C1A  599   1.640  16.991  10.017 -0.1639  0.0159 -0.1218
   38loPI   C2A  600   1.578  17.001   9.483  0.1067  0.1479 -0.3814
   38loPI   C3A  601   1.600  17.107   9.054  0.1949 -0.0419  0.1162
   38loPI   C4A  602   1.611  17.189   8.598  0.0915 -0.0258  0.0893
   38loPI   C5A  603   1.391  17.505   8.408 -0.1248 -0.1186 -0.0784
   38loPI   C6A  604   1.152  17.824   8.276 -0.0509 -0.2175 -0.1197
   38loPI   C1B  605   0.994  17.173   9.867  0.1639  0.2352 -0.2629
   38loPI   C2B  606   1.027  17.189   9.466 -0.0418  0.1078  0.3983
   38loPI   C3B  607   1.122  17.170   8.974 -0.2194  0.0017  0.3171
   38loPI   C4B  608   1.094  17.055   8.522  0.2241  0.0931  0.0242
   39loPI    C1  609   0.966   2.189  11.427  0.2064 -0.0257 -0.0277
   39loPI    C2  610   0.788   1.843  11.336  0.2719 -0.0182 -0.1869
   39loPI    C3  611   0.911   1.912  11.710 -0.0571 -0.0238 -0.0749
   39loPI   PO4  612   1.234   2.272  11.203  0.1244  0.0215  0.0832
   39loPI   GL1  613   1.353   2.155  10.787  0.2127  0.0673  0.0757
   39loPI   GL2  614   1.599   2.424  10.757  0.1263 -0.0406  0.0776
   39loPI   C1A  615   1.362   2.109  10.364 -0.4265  0.1464  0.0385
   39loPI   C2A  616   1.285   2.160   9.878 -0.2523 -0.1807  0.3440
   39loPI   C3A  617   1.251   2.148   9.401 -0.0468  0.2788  0.0694
   39loPI   C4A  618   1.234   2.166   8.974  0.1435  0.1440  0.0554
   39loPI   C5A  619   1.302   1.929   8.622  0.1146 -0.0970 -0.2641
   39loPI   C6A  620   1.483   1.880   8.244  0.2329 -0.1708  0.0678
   39loPI   C1B  621   1.766   2.574  10.377 -0.0290  0.0650 -0.2814
   39loPI   C2B  622   1.749   2.504   9.972 -0.0939 -0.1868 -0.0597
   39loPI   C3B  623   1.595   2.456   9.582  0.2503  0.0757 -0.0908
   39loPI   C4B  624   1.637   2.412   9.205 -0.0593  0.1123  0.0523
   40loPI    C1  625   7.345   2.540  11.240 -0.0753 -0.1111 -0.0648
   40loPI    C2  626   7.460   2.921  11.285 -0.1500 -0.0857 -0.0896
   40loPI    C3  627   7.380   2.697  11.606 -0.1671 -0.0618 -0.0770
   40loPI   PO4  628   7.197   2.548  11.079 -0.0204  0.0457 -0.7081
   40loPI   GL1  629   7.433   2.583  10.716  0.1733  0.1099  0.0627
   40loPI   GL2  630   7.420   2.924  10.761  0.0077  0.1774  0.1912
   40loPI   C1A  631   7.417   2.444  10.224  0.1299  0.2668  0.0272
   40loPI   C2A  632   7.465   2.318   9.861 -0.0346 -0.0551 -0.0263
   40loPI   C3A  633   7.405   2.354   9.402 -0.0437 -0.1882  0.0491
   40loPI   C4A  634   7.427   2.407   8.975  0.0320 -0.3375 -0.0108
   40loPI   C5A  635   7.255   2.590   8.630  0.1666 -0.2120 -0.0302
   40loPI   C6A  636   7.126   2.987   8.503 -0.0146  0.0099  0.2869
   40loPI   C1B  637   7.244   2.922  10.424  0.1223  0.1318 -0.1486
   40loPI   C2B  638   7.245   2.809   9.885  0.2119 -0.0622  0.0429
   40loPI   C3B  639   7.257   2.842   9.449  0.0538  0.0389 -0.0699
   40loPI   C4B  640   7.285   2.911   9.030 -0.2139  0.2171 -0.0656
   41loPI    C1  641   4.402   3.125  11.147 -0.0822 -0.0383 -0.3034
   41loPI    C2  642   4.019   3.201  11.233 -0.0507 -0.0890 -0.1134
   41loPI    C3  643   4.286   3.159  11.528  0.1539  0.2093 -0.2504
   41loPI   PO4  644   4.379   3.121  10.874  0.1300 -0.1262 -0.1465
   41loPI   GL1  645   4.247   3.059  10.545 -0.2387 -0.0630 -0.1913
   41loPI   GL2  646   4.462   3.336  10.365  0.0384  0.0478 -0.0466
   41loPI   C1A  647   3.970   2.852  10.183 -0.1272 -0.1245  0.0963
   41loPI   C2A  648   4.032   2.791   9.693  0.0598 -0.0717 -0.2705
   41loPI   C3A  649   4.185   2.895   9.197 -0.1083 -0.0578  0.0112
   41loPI   C4A  650   4.071   2.727   8.870  0.2303  0.1219  0.1059
   41loPI   C5A  651   3.833   2.532   8.591 -0.0239  0.2052  0.2201
   41loPI   C6A  652   3.496   2.197   8.429  0.4591 -0.0458 -0.0786
   41loPI   C1B  653   4.375   3.178   9.951  0.1411  0.0221  0.0458
   41loPI   C2B  654   4.472   3.114   9.512 -0.1644  0.0416  0.2893
   41loPI   C3B  655   4.576   3.182   9.066  0.2190  0.0821  0.2310
   41loPI   C4B  656   4.489   3.058   8.673 -0.0997  0.0643  0.0659
   42loPI    C1  657  14.222   8.522  10.918  0.2623 -0.2760 -0.0315
   42loPI    C2  658  14.036   8.603  11.262 -0.0082 -0.1207 -0.2102
   42loPI    C3  659  14.418   8.711  11.211 -0.0368  0.0654 -0.0447
   42loPI   PO4  660  14.090   8.590  10.777  0.1543 -0.2255  0.0852
   42loPI   GL1  661  14.095   8.429  10.344 -0.0611 -0.0637 -0.0338
   42loPI   GL2  662  14.492   8.365  10.424 -0.0546 -0.3209  0.5202
   42loPI   C1A  663  13.891   8.449   9.943 -0.0430  0.1520 -0.0005
   42loPI   C2A  664  13.944   8.443   9.519 -0.0590 -0.2189  0.0771
   42loPI   C3A  665  13.949   8.424   9.122  0.2400  0.2468 -0.4272
   42loPI   C4A  666  13.834   8.403   8.828  0.0233 -0.1905  0.0844
   42loPI   C5A  667  13.740   8.673   8.569 -0.0237 -0.1104  0.0794
   42loPI   C6A  668  13.847   8.980   8.364  0.0185  0.0073 -0.0005
   42loPI   C1B  669  14.473   8.381   9.915  0.0047  0.1333 -0.3386
   42loPI   C2B  670  14.443   8.306   9.529 -0.0831 -0.0379  0.2935
   42loPI   C3B  671  14.449   8.247   9.083  0.2715  0.1303  0.0552
   42loPI   C4B  672  14.411   8.326   8.638 -0.0241  0.0200  0.0237
   43loPI    C1  673  12.326   9.241  10.966  0.1377  0.0561 -0.1505
   43loPI    C2  674  12.109   9.576  10.989  0.0237 -0.0099 -0.2510
   43loPI    C3  675  11.978   9.241  11.163  0.1618  0.0093 -0.1078
   43loPI   PO4  676  12.332   9.195  10.720  0.1004  0.0995  0.2892
   43loPI   GL1  677  12.118   8.941  10.474  0.1708  0.0900  0.0816
   43loPI   GL2  678  12.435   8.828  10.444  0.0411  0.1091 -0.1113
   43loPI   C1A  679  11.990   9.058  10.045 -0.0499 -0.0174  0.3417
   43loPI   C2A  680  11.984   9.008   9.570  0.1304  0.2625 -0.0337
   43loPI   C3A  681  11.880   9.071   9.168 -0.0380 -0.2644 -0.1125
   43loPI   C4A  682  11.664   9.485   8.910 -0.2163  0.0916  0.1980
   43loPI   C5A  683  11.654   9.472   8.457  0.2915 -0.1607  0.3409
   43loPI   C6A  684  11.681   9.261   8.008 -0.0173  0.0601 -0.0696
   43loPI   C1B  685  12.447   8.858   9.877  0.1918 -0.2373  0.0394
   43loPI   C2B  686  12.433   8.810   9.458  0.2650  0.1171  0.0863
   43loPI   C3B  687  12.443   8.759   9.013  0.2126 -0.2793 -0.5378
   43loPI   C4B  688  12.347   8.837   8.632  0.0325 -0.0938 -0.0330
   44loPI    C1  689   7.034   0.045  10.973 -0.0622  0.0438  0.0778
   44loPI    C2  690   7.401   0.077  11.128 -0.1130  0.2922  0.1514
   44loPI    C3  691   7.110  -0.099  11.338 -0.0119 -0.0019  0.0494
   44loPI   PO4  692   7.062  -0.028  10.638  0.2204 -0.0229 -0.3532
   44loPI   GL1  693   7.040   0.096  10.285  0.1916  0.2066  0.2886
   44loPI   GL2  694   7.231   0.315  10.293 -0.1804  0.1619  0.3742
   44loPI   C1A  695   7.005   0.024   9.906  0.1511  0.3232  0.0066
   44loPI   C2A  696   6.944   0.029   9.490  0.3096  0.1030  0.0253
   44loPI   C3A  697   6.837   0.047   8.985 -0.1343 -0.1422 -0.1481
   44loPI   C4A  698   6.876   0.121   8.604 -0.3474  0.3221  0.0211
   44loPI   C5A  699   6.897   0.332   8.260  0.1588  0.2735  0.1714
   44loPI   C6A  700   6.910   0.009   7.803 -0.3110 -0.2969 -0.0046
   44loPI   C1B  701   7.278   0.408   9.901  0.0661 -0.1826 -0.0364
   44loPI   C2B  702   7.329   0.424   9.467  0.0624 -0.0343 -0.0095
   44loPI   C3B  703   7.235   0.370   9.077 -0.0341 -0.1696  0.3910
   44loPI   C4B  704   7.238   0.477   8.574  0.0620  0.0755 -0.2122
   45loPI    C1  705   0.955  13.375  10.843 -0.1133  0.0674 -0.0312
   45loPI    C2  706   0.811  13.674  10.619  0.0463  0.1386 -0.0403
   45loPI    C3  707   1.199  13.578  10.599 -0.0185 -0.1185 -0.0925
   45loPI   PO4  708   0.733  13.180  10.757  0.2041  0.0833  0.0028
   45loPI   GL1  709   0.541  13.310  10.314 -0.1733 -0.3709  0.0564
   45loPI   GL2  710   0.876  13.381  10.257 -0.0319  0.0306 -0.1510
   45loPI   C1A  711   0.463  13.431   9.807  0.1688  0.0145 -0.1116
   45loPI   C2A  712   0.520  13.433   9.366 -0.1621  0.1608 -0.1022
   45loPI   C3A  713   0.492  13.389   8.936 -0.4554  0.0054  0.0441
   45loPI   C4A  714   0.367  13.203   8.458 -0.1829 -0.2065  0.0736
   45loPI   C5A  715   0.692  12.972   8.132  0.0304  0.0999  0.1353
   45loPI   C6A  716   0.696  12.640   7.904  0.1674  0.0867 -0.3291
   45loPI   C1B  717   0.969  13.230   9.860 -0.2127  0.1201  0.2722
   45loPI   C2B  718   1.035  13.318   9.478  0.2045  0.1750  0.0821
   45loPI   C3B  719   0.953  13.180   9.042 -0.0777  0.1743  0.2633
   45loPI   C4B  720   0.878  13.134   8.579  0.0214  0.1920  0.0027
   46loPI    C1  721  14.468  15.054  10.483  0.1340 -0.0701 -0.0637
   46loPI    C2  722  14.094  15.149  10.590  0.1215 -0.1212 -0.0616
   46loPI    C3  723  14.326  14.939  10.839  0.2684  0.2033  0.0808
   46loPI   PO4  724  14.441  14.928  10.252 -0.1338 -0.0522  0.1092
   46loPI   GL1  725  14.183  14.996   9.898 -0.4717  0.0008 -0.0698
   46loPI   GL2  726  14.545  15.142   9.830  0.1766 -0.0471 -0.0082
   46loPI   C1A  727  14.127  15.213   9.543  0.0361  0.1333  0.0688
   46loPI   C2A  728  14.117  15.175   9.124  0.1739  0.2168 -0.1768
   46loPI   C3A  729  14.132  15.015   8.730 -0.0597 -0.2484  0.0418
   46loPI   C4A  730  14.271  15.003   8.271  0.1643 -0.1071 -0.0608
   46loPI   C5A  731  14.156  14.895   7.885  0.0753 -0.1409 -0.1624
   46loPI   C6A  732  14.297  15.209   7.590 -0.0102 -0.0200 -0.2009
   46loPI   C1B  733  14.615  15.099   9.468 -0.1929 -0.2154 -0.2633
   46loPI   C2B  734  14.614  14.984   9.047  0.0916  0.1782  0.1196
   46loPI   C3B  735  14.713  14.871   8.618  0.1249 -0.3065  0.1049
   46loPI   C4B  736  14.728  14.585   8.362  0.2586  0.1285 -0.0553
   47loPI    C1  737   6.711   9.346  11.000 -0.0511  0.1343  0.1223
   47loPI    C2  738   6.885   9.676  11.143  0.2736  0.0230 -0.0054
   47loPI    C3  739   7.060   9.320  11.194  0.0424 -0.1024 -0.0720
   47loPI   PO4  740   6.420   9.405  10.750 -0.0363 -0.3582  0.2018
   47loPI   GL1  741   6.388   9.740  10.379  0.1364  0.1605  0.0176
   47loPI   GL2  742   6.078   9.974  10.254 -0.0534 -0.1116 -0.0872
   47loPI   C1A  743   6.548   9.877   9.959 -0.1612  0.1222 -0.0480
   47loPI   C2A  744   6.626   9.758   9.550 -0.1871  0.0050 -0.1170
   47loPI   C3A  745   6.629   9.684   9.141  0.2565 -0.0564  0.2292
   47loPI   C4A  746   6.555   9.553   8.732 -0.0007  0.2174  0.3089
   47loPI   C5A  747   6.488   9.086   8.554 -0.0638 -0.1059 -0.2138
   47loPI   C6A  748   6.781   8.930   8.209  0.2420 -0.1258 -0.1915
   47loPI   C1B  749   6.010   9.970   9.862 -0.0395  0.0638  0.0829
   47loPI   C2B  750   6.100   9.908   9.415  0.0165 -0.0453  0.0539
   47loPI   C3B  751   6.117   9.702   9.034 -0.1407  0.0190 -0.1822
   47loPI   C4B  752   6.015   9.629   8.648  0.0636  0.0589  0.0404
   48loPI    C1  753   9.329   9.567  11.208  0.0251  0.0848 -0.0685
   48loPI    C2  754   9.594   9.621  11.503 -0.0566  0.0828  0.0055
   48loPI    C3  755   9.316   9.900  11.429  0.0249  0.1281 -0.1336
   48loPI   PO4  756   9.509   9.438  10.961 -0.1739  0.1679  0.2821
   48loPI   GL1  757   9.402   9.334  10.541  0.2609 -0.4837  0.3675
   48loPI   GL2  758   9.250   9.000  10.387 -0.1240 -0.0705 -0.2745
   48loPI   C1A  759   9.598   9.364  10.147 -0.1961 -0.1051 -0.2474
   48loPI   C2A  760   9.545   9.247   9.702  0.0887  0.0139  0.2140
   48loPI   C3A  761   9.485   9.188   9.258 -0.1748  0.2779  0.0122
   48loPI   C4A  762   9.552   9.220   8.804 -0.1243 -0.2269  0.1396
   48loPI   C5A  763   9.499   9.324   8.381 -0.0857  0.3662 -0.1904
   48loPI   C6A  764   9.518   9.847   8.217  0.1064  0.0528 -0.0207
   48loPI   C1B  765   9.232   9.050   9.963 -0.0981  0.2146 -0.0971
   48loPI   C2B  766   9.206   8.887   9.513 -0.1250  0.1677  0.1388
   48loPI   C3B  767   9.111   8.856   9.168 -0.1099 -0.3916  0.0600
   48loPI   C4B  768   8.975   8.741   8.727 -0.4391 -0.1132  0.1554
   49loPI    C1  769  15.636   3.471  11.552 -0.0679  0.0120  0.0433
   49loPI    C2  770  15.439   3.223  11.797  0.0049 -0.0142  0.0757
   49loPI    C3  771  15.624   3.545  11.945  0.1533 -0.0971  0.0721
   49loPI   PO4  772  15.348   3.461  11.306  0.0602  0.1192  0.1103
   49loPI   GL1  773  15.287   3.320  10.884  0.0795  0.3417  0.3359
   49loPI   GL2  774  15.641   3.370  10.932  0.1254 -0.1390  0.0347
   49loPI   C1A  775  14.970   3.599  10.698 -0.0570 -0.4173  0.5544
   49loPI   C2A  776  14.917   3.723  10.256 -0.2131  0.1659  0.0253
   49loPI   C3A  777  14.963   3.837   9.829 -0.1855  0.1520  0.2237
   49loPI   C4A  778  14.926   3.797   9.413  0.2375  0.1519  0.1061
   49loPI   C5A  779  14.966   3.704   8.996 -0.2928 -0.0665 -0.0780
   49loPI   C6A  780  14.983   3.535   8.659  0.0645  0.3255 -0.1739
   49loPI   C1B  781  15.935   3.451  10.570  0.0737  0.5664 -0.2879
   49loPI   C2B  782  15.999   3.495  10.205  0.1430  0.0070  0.1212
   49loPI   C3B  783  15.828   3.529   9.865 -0.2810  0.1026 -0.0202
   49loPI   C4B  784  15.914   3.449   9.399 -0.0252 -0.6505  0.1514
   50loPI    C1  785  13.608   3.174  11.595 -0.0566  0.1133  0.1469
   50loPI    C2  786  13.218   3.257  11.627 -0.0427  0.2520 -0.0252
   50loPI    C3  787  13.450   3.256  11.953 -0.2175  0.0032  0.1025
   50loPI   PO4  788  13.651   2.895  11.422 -0.3396  0.1981  0.0580
   50loPI   GL1  789  13.802   2.706  10.975  0.0517  0.0920 -0.1028
   50loPI   GL2  790  13.465   2.708  10.893  0.3653  0.0024  0.1025
   50loPI   C1A  791  13.829   2.705  10.537  0.1085 -0.2773  0.1247
   50loPI   C2A  792  13.788   2.616  10.082 -0.3876 -0.0969  0.0093
   50loPI   C3A  793  13.812   2.702   9.577  0.0924  0.1024 -0.1897
   50loPI   C4A  794  13.836   2.956   9.082 -0.2492  0.1356  0.0548
   50loPI   C5A  795  14.018   3.218   8.734 -0.1840 -0.0587  0.1825
   50loPI   C6A  796  14.175   3.523   8.475  0.2012  0.0327  0.0853
   50loPI   C1B  797  13.370   2.882  10.576  0.1106 -0.0110 -0.0792
   50loPI   C2B  798  13.257   2.878  10.110  0.0163 -0.1127 -0.0461
   50loPI   C3B  799  13.330   2.938   9.719 -0.0999  0.1742 -0.1175
   50loPI   C4B  800  13.412   2.975   9.291 -0.2194 -0.3255  0.0760
   51loPI    C1  801  13.782   4.913  11.504  0.2578  0.1260 -0.0561
   51loPI    C2  802  13.836   4.521  11.560  0.1575  0.1437  0.1743
   51loPI    C3  803  13.999   4.784  11.814  0.1452  0.2478  0.0748
   51loPI   PO4  804  13.807   4.951  11.298 -0.1036  0.1525  0.0134
   51loPI   GL1  805  13.655   4.709  10.986  0.0950  0.0930  0.0142
   51loPI   GL2  806  13.647   4.377  11.090  0.1850  0.0252  0.1845
   51loPI   C1A  807  13.760   4.590  10.566  0.1111  0.0606 -0.0493
   51loPI   C2A  808  13.858   4.627  10.194 -0.1862  0.3605  0.1139
   51loPI   C3A  809  13.873   4.614   9.769 -0.2739  0.0038 -0.1544
   51loPI   C4A  810  13.975   4.661   9.278  0.4256  0.1635 -0.0276
   51loPI   C5A  811  13.865   4.861   8.952  0.3597 -0.0191  0.1575
   51loPI   C6A  812  13.737   5.200   8.699 -0.0227  0.0254 -0.2721
   51loPI   C1B  813  13.886   4.078  10.760 -0.2937 -0.0289  0.3230
   51loPI   C2B  814  13.964   4.125  10.441 -0.0049  0.2463  0.2682
   51loPI   C3B  815  13.986   4.115   9.957  0.2007 -0.1435  0.2343
   51loPI   C4B  816  14.003   4.181   9.552 -0.2981 -0.2520 -0.0973
   52loPI    C1  817   9.375   6.782  11.362  0.0120 -0.0126  0.1254
   52loPI    C2  818   9.598   6.550  11.600 -0.2840 -0.3844  0.0497
   52loPI    C3  819   9.484   6.913  11.724  0.0271 -0.3502  0.2465
   52loPI   PO4  820   9.544   6.752  11.119 -0.1733  0.1833  0.3016
   52loPI   GL1  821   9.503   7.084  10.687  0.1814 -0.0020 -0.1530
   52loPI   GL2  822   9.580   7.037  10.445 -0.0492  0.3356 -0.0103
   52loPI   C1A  823   9.076   7.121  10.426 -0.0823  0.2184  0.2577
   52loPI   C2A  824   9.105   7.064   9.932 -0.1774  0.2820 -0.1420
   52loPI   C3A  825   9.074   6.997   9.571  0.2311  0.1956  0.0213
   52loPI   C4A  826   9.026   7.002   9.127 -0.0681  0.2575 -0.0766
   52loPI   C5A  827   8.885   7.060   8.712 -0.1752  0.3441 -0.0763
   52loPI   C6A  828   8.798   7.343   8.353  0.1711 -0.0878 -0.1125
   52loPI   C1B  829   9.554   6.984  10.005  0.0533  0.3285 -0.1111
   52loPI   C2B  830   9.539   6.889   9.507  0.0144 -0.1360 -0.0735
   52loPI   C3B  831   9.532   6.869   9.031 -0.3835 -0.0525 -0.0407
   52loPI   C4B  832   9.715   7.085   8.567  0.0756 -0.0970 -0.0553
   53loPI    C1  833  10.589   4.721  11.740  0.1282 -0.0355 -0.0020
   53loPI    C2  834  10.585   4.839  12.122 -0.0341 -0.1000  0.0172
   53loPI    C3  835  10.797   4.518  12.014  0.1129 -0.0084  0.0299
   53loPI   PO4  836  10.692   4.852  11.622  0.0949 -0.2186 -0.0459
   53loPI   GL1  837  10.867   4.777  11.205  0.0517 -0.1786 -0.2678
   53loPI   GL2  838  10.582   4.769  11.135 -0.0745 -0.0567  0.0520
   53loPI   C1A  839  10.976   4.986  10.813  0.2819  0.1733  0.0711
   53loPI   C2A  840  11.087   5.141  10.407 -0.0059  0.0738 -0.1144
   53loPI   C3A  841  10.972   5.069  10.041  0.0699 -0.1706 -0.2489
   53loPI   C4A  842  11.002   5.052   9.608 -0.1868  0.1916  0.2057
   53loPI   C5A  843  10.987   5.215   9.099 -0.0111  0.1358 -0.1193
   53loPI   C6A  844  11.064   5.377   8.662  0.2442 -0.1823 -0.0129
   53loPI   C1B  845  10.626   4.639  10.726 -0.1307 -0.0905 -0.0565
   53loPI   C2B  846  10.604   4.733  10.320  0.3757 -0.0574 -0.2690
   53loPI   C3B  847  10.600   4.710   9.914 -0.1534  0.2186  0.2495
   53loPI   C4B  848  10.608   4.730   9.473 -0.1110  0.1824  0.0423
   54loPI    C1  849   5.039   7.577  11.376 -0.0590 -0.0037  0.0849
   54loPI    C2  850   5.275   7.267  11.286 -0.1976 -0.0374 -0.1744
   54loPI    C3  851   5.225   7.376  11.667  0.1456 -0.0991 -0.1080
   54loPI   PO4  852   5.035   7.705  11.110  0.0431 -0.0796 -0.0235
   54loPI   GL1  853   4.894   7.773  10.700 -0.0015  0.0800  0.1779
   54loPI   GL2  854   4.981   7.540  10.548  0.2565 -0.3717  0.2881
   54loPI   C1A  855   4.698   7.937  10.262 -0.1324  0.1865  0.3138
   54loPI   C2A  856   4.752   7.988   9.873  0.0530  0.4072  0.0366
   54loPI   C3A  857   4.728   7.905   9.434 -0.0037 -0.1066 -0.0704
   54loPI   C4A  858   4.595   7.777   9.069  0.0951  0.0714  0.1168
   54loPI   C5A  859   4.574   7.704   8.660  0.3741  0.0589 -0.2853
   54loPI   C6A  860   4.538   7.952   8.290  0.1105  0.0122  0.4855
   54loPI   C1B  861   4.889   7.389  10.072 -0.0710 -0.3477 -0.1134
   54loPI   C2B  862   4.849   7.463   9.662  0.1136 -0.0769  0.2632
   54loPI   C3B  863   4.800   7.441   9.298 -0.1181  0.1951  0.2335
   54loPI   C4B  864   4.749   7.330   8.916 -0.0913  0.2467 -0.1982
   55loPI    C1  865   4.258   9.044  10.907  0.1062  0.0456  0.0062
   55loPI    C2  866   4.182   9.152  11.285  0.0677 -0.0597  0.0290
   55loPI    C3  867   4.553   9.184  11.138  0.0455  0.1577  0.0167
   55loPI   PO4  868   4.129   8.842  10.866  0.3088 -0.2505  0.0840
   55loPI   GL1  869   3.917   8.674  10.557 -0.0479  0.2942  0.2391
   55loPI   GL2  870   3.880   8.964  10.462 -0.1360 -0.2822 -0.0152
   55loPI   C1A  871   4.025   8.577  10.101 -0.1518  0.1057  0.2448
   55loPI   C2A  872   4.087   8.501   9.721 -0.1869  0.1633 -0.0210
   55loPI   C3A  873   3.992   8.450   9.241 -0.2226 -0.0059 -0.1166
   55loPI   C4A  874   3.869   8.628   8.854 -0.2419  0.3303 -0.2838
   55loPI   C5A  875   3.890   9.082   8.722  0.0086  0.1723  0.2312
   55loPI   C6A  876   4.041   9.361   8.394  0.3608 -0.4353 -0.1017
   55loPI   C1B  877   3.886   9.016  10.019  0.0816  0.1104 -0.0704
   55loPI   C2B  878   3.889   8.934   9.561  0.0887  0.0126  0.0675
   55loPI   C3B  879   3.709   8.957   9.178  0.0721  0.0384  0.4717
   55loPI   C4B  880   3.426   8.987   8.790  0.1045 -0.1104  0.1119
   56loPI    C1  881   9.490  13.101  10.252  0.1232  0.0761  0.1951
   56loPI    C2  882   9.318  13.456  10.318 -0.2724 -0.1388  0.3543
   56loPI    C3  883   9.515  13.271  10.613  0.0202 -0.0097  0.2433
   56loPI   PO4  884   9.610  13.085  10.078 -0.2902 -0.3153 -0.3415
   56loPI   GL1  885   9.421  13.006   9.720 -0.0570 -0.1649 -0.0504
   56loPI   GL2  886   9.756  13.135   9.545 -0.1481  0.2565  0.0173
   56loPI   C1A  887   9.417  12.790   9.309  0.1988  0.2552 -0.2664
   56loPI   C2A  888   9.390  12.848   8.927 -0.1821  0.1799 -0.1785
   56loPI   C3A  889   9.307  12.718   8.572  0.0183  0.0925  0.2151
   56loPI   C4A  890   9.198  12.646   8.133  0.0587  0.1216  0.1157
   56loPI   C5A  891   9.347  12.546   7.768 -0.1342  0.0669 -0.0606
   56loPI   C6A  892   9.827  12.564   7.671  0.0200  0.0548 -0.0416
   56loPI   C1B  893   9.558  13.230   9.156 -0.1613 -0.1331  0.2355
   56loPI   C2B  894   9.594  13.252   8.688 -0.0983 -0.1192 -0.0523
   56loPI   C3B  895   9.810  13.394   8.267 -0.1084 -0.1239 -0.1697
   56loPI   C4B  896  10.110  13.443   7.938  0.0115 -0.0894 -0.4430
   57loPI    C1  897   4.761   2.587  11.282  0.1346 -0.3230  0.0559
   57loPI    C2  898   4.736   2.938  11.473  0.1365 -0.3065  0.0258
   57loPI    C3  899   4.571   2.611  11.633  0.2335 -0.3149  0.1095
   57loPI   PO4  900   4.616   2.683  11.019  0.2736 -0.0964 -0.1058
   57loPI   GL1  901   4.601   2.729  10.647  0.0179  0.3367 -0.0213
   57loPI   GL2  902   4.796   2.969  10.566  0.0451 -0.1105 -0.1468
   57loPI   C1A  903   4.464   2.766  10.183 -0.1892  0.2143 -0.1197
   57loPI   C2A  904   4.484   2.677   9.740 -0.0698  0.1805  0.0139
   57loPI   C3A  905   4.590   2.670   9.355  0.1379  0.3527  0.0802
   57loPI   C4A  906   4.664   2.614   8.894  0.2697 -0.0566  0.1146
   57loPI   C5A  907   4.893   2.397   8.705 -0.2578 -0.3899 -0.2700
   57loPI   C6A  908   5.290   2.152   8.607  0.1719 -0.1209  0.1957
   57loPI   C1B  909   4.873   3.108  10.146 -0.0553  0.0170 -0.2454
   57loPI   C2B  910   4.873   2.987   9.772 -0.2227  0.1081 -0.0411
   57loPI   C3B  911   4.984   2.997   9.246  0.3761  0.0810  0.0218
   57loPI   C4B  912   5.090   3.043   8.856  0.0486  0.3047 -0.1587
   58loPI    C1  913   4.791   5.762  10.883 -0.0004 -0.2048  0.2774
   58loPI    C2  914   4.796   5.666  11.272  0.1269  0.1168  0.3579
   58loPI    C3  915   4.859   6.045  11.158 -0.0623  0.0539  0.0313
   58loPI   PO4  916   4.926   5.592  10.711  0.1603  0.1114 -0.3577
   58loPI   GL1  917   5.086   5.714  10.309 -0.1857  0.1323  0.0684
   58loPI   GL2  918   4.803   5.565  10.202 -0.0894 -0.2309  0.2283
   58loPI   C1A  919   5.180   5.858   9.855  0.1253 -0.0468 -0.1711
   58loPI   C2A  920   5.192   5.838   9.446 -0.0670  0.1850  0.2933
   58loPI   C3A  921   5.259   5.723   8.977 -0.0044  0.0253  0.1228
   58loPI   C4A  922   5.236   5.832   8.506  0.1862  0.2082 -0.0027
   58loPI   C5A  923   5.110   6.138   8.208 -0.0428  0.0988 -0.0402
   58loPI   C6A  924   5.241   6.385   7.829 -0.1395  0.2071  0.1456
   58loPI   C1B  925   4.817   5.534   9.693 -0.1765  0.0931  0.0346
   58loPI   C2B  926   4.857   5.468   9.307 -0.0478 -0.0343 -0.0508
   58loPI   C3B  927   4.849   5.349   8.900  0.4150 -0.2956  0.1459
   58loPI   C4B  928   4.640   5.011   8.645  0.0312  0.1581 -0.2913
   59loPI    C1  929   9.145   5.632  11.599 -0.1264 -0.0888 -0.2584
   59loPI    C2  930   9.435   5.359  11.636 -0.1361 -0.0757 -0.0779
   59loPI    C3  931   9.401   5.654  11.905 -0.0777  0.1503 -0.3138
   59loPI   PO4  932   9.206   5.615  11.242  0.1974  0.2538 -0.0509
   59loPI   GL1  933   9.057   5.700  10.844 -0.0252  0.0263 -0.1829
   59loPI   GL2  934   9.289   5.377  10.748 -0.1153  0.0633  0.0310
   59loPI   C1A  935   9.052   5.673  10.376  0.2525  0.4599  0.1507
   59loPI   C2A  936   8.985   5.694   9.964  0.1190 -0.0363 -0.1566
   59loPI   C3A  937   8.915   5.660   9.519 -0.1780 -0.1224 -0.0376
   59loPI   C4A  938   8.987   5.575   9.146 -0.2249 -0.0007 -0.1255
   59loPI   C5A  939   9.015   5.588   8.693  0.1521  0.0341  0.0142
   59loPI   C6A  940   8.910   5.883   8.278 -0.1303 -0.2674 -0.1344
   59loPI   C1B  941   9.507   5.499  10.433 -0.2758  0.0652  0.1761
   59loPI   C2B  942   9.434   5.581  10.052 -0.2372 -0.0175  0.0433
   59loPI   C3B  943   9.436   5.459   9.664 -0.0313  0.3987  0.1370
   59loPI   C4B  944   9.496   5.583   9.297 -0.0638 -0.0125 -0.1582
   60loPI    C1  945  12.533  11.467  10.635 -0.2781 -0.2331  0.0007
   60loPI    C2  946  12.567  11.483  11.033 -0.0180 -0.3943 -0.0123
   60loPI    C3  947  12.589  11.131  10.845  0.1560 -0.2883 -0.1936
   60loPI   PO4  948  12.305  11.575  10.500  0.3065 -0.0632  0.3593
   60loPI   GL1  949  12.388  11.708  10.082 -0.1662  0.0459 -0.3151
   60loPI   GL2  950  12.293  11.920   9.956  0.2779 -0.1403 -0.3647
   60loPI   C1A  951  12.819  11.625   9.794  0.0078 -0.1055  0.2364
   60loPI   C2A  952  12.915  11.507   9.382 -0.1904 -0.0761 -0.1180
   60loPI   C3A  953  13.098  11.506   8.985 -0.1002 -0.4138 -0.1817
   60loPI   C4A  954  13.005  11.794   8.611 -0.0294  0.0402 -0.2657
   60loPI   C5A  955  13.038  11.761   8.122 -0.0846  0.0525 -0.1822
   60loPI   C6A  956  13.188  11.591   7.759 -0.0912 -0.2642  0.1914
   60loPI   C1B  957  12.402  11.874   9.600 -0.2549 -0.1063 -0.0780
   60loPI   C2B  958  12.555  11.867   9.233  0.5485 -0.0979  0.0546
   60loPI   C3B  959  12.526  11.682   8.845 -0.1589 -0.2206 -0.0353
   60loPI   C4B  960  12.568  11.595   8.372 -0.0701 -0.0667 -0.1969
   61loPI    C1  961   4.748  17.712  11.190 -0.0610 -0.0778 -0.2679
   61loPI    C2  962   4.738  18.020  11.444 -0.0067 -0.2190 -0.0919
   61loPI    C3  963   4.661  18.078  11.056  0.2394  0.0577 -0.1030
   61loPI   PO4  964   5.034  17.591  11.154  0.0436  0.0858 -0.0247
   61loPI   GL1  965   5.114  17.539  10.704  0.2608  0.0956 -0.2964
   61loPI   GL2  966   5.130  17.909  10.749 -0.4143 -0.0327 -0.3568
   61loPI   C1A  967   5.184  17.619  10.294  0.1450  0.0575  0.2663
   61loPI   C2A  968   5.119  17.694   9.849 -0.1702 -0.0075 -0.0017
   61loPI   C3A  969   5.071  17.805   9.506 -0.0394 -0.0459  0.0720
   61loPI   C4A  970   5.153  17.942   9.204  0.0779  0.0479  0.1561
   61loPI   C5A  971   5.120  17.916   8.802 -0.1464 -0.1854  0.4928
   61loPI   C6A  972   5.161  18.041   8.334 -0.1084 -0.2851 -0.0816
   61loPI   C1B  973   4.765  17.887  10.458 -0.0371  0.2282  0.1053
   61loPI   C2B  974   4.626  17.918  10.020  0.1558 -0.3065 -0.3721
   61loPI   C3B  975   4.591  18.017   9.601 -0.0953 -0.0873 -0.0612
   61loPI   C4B  976   4.643  18.028   9.180 -0.0113  0.0416  0.1140
   62loPI    C1  977   3.360  12.975  10.747  0.0202 -0.0071 -0.1117
   62loPI    C2  978   3.418  13.263  11.018  0.2270  0.0749 -0.2405
   62loPI    C3  979   3.073  13.245  10.817  0.1243  0.0934 -0.0681
   62loPI   PO4  980   3.657  13.001  10.549  0.4274  0.4636 -0.1952
   62loPI   GL1  981   3.631  13.027  10.116  0.1903  0.0689  0.2692
   62loPI   GL2  982   3.932  13.000  10.091  0.1085  0.2224 -0.2366
   62loPI   C1A  983   3.457  13.059   9.628 -0.1756  0.0573  0.0493
   62loPI   C2A  984   3.407  13.033   9.202 -0.2929 -0.2349 -0.0130
   62loPI   C3A  985   3.290  13.084   8.790  0.0917  0.2322  0.0921
   62loPI   C4A  986   3.268  13.208   8.441 -0.0487  0.1030 -0.1377
   62loPI   C5A  987   3.482  13.119   8.039  0.2148  0.0468  0.0144
   62loPI   C6A  988   3.729  13.095   7.590 -0.4306  0.1297 -0.0152
   62loPI   C1B  989   3.939  12.943   9.688 -0.0158 -0.0434  0.2173
   62loPI   C2B  990   4.027  12.818   9.346 -0.0003  0.0979 -0.0837
   62loPI   C3B  991   4.032  12.881   8.913  0.0560  0.3764 -0.1331
   62loPI   C4B  992   3.770  12.976   8.597 -0.1941 -0.0278  0.0660
   63loPI    C1  993   3.537   8.092  11.246  0.0055 -0.0458  0.0352
   63loPI    C2  994   3.580   8.403  11.495  0.0963 -0.0100 -0.0248
   63loPI    C3  995   3.866   8.124  11.471  0.1164  0.0197 -0.1348
   63loPI   PO4  996   3.507   8.186  10.978  0.1256  0.0084 -0.2031
   63loPI   GL1  997   3.637   7.935  10.666 -0.0165 -0.0932 -0.0558
   63loPI   GL2  998   3.821   8.180  10.567  0.0965 -0.0001 -0.0520
   63loPI   C1A  999   3.333   7.733  10.447  0.0932 -0.0658 -0.2692
   63loPI   C2A 1000   3.399   7.751   9.974  0.1492  0.0544  0.0909
   63loPI   C3A 1001   3.284   7.764   9.663  0.1935  0.1441  0.2546
   63loPI   C4A 1002   3.240   7.660   9.296  0.1453  0.2784 -0.0571
   63loPI   C5A 1003   3.324   7.690   8.898  0.0006 -0.2103  0.1036
   63loPI   C6A 1004   3.595   7.756   8.559 -0.2001 -0.0504 -0.0267
   63loPI   C1B 1005   3.771   8.071  10.172  0.0574  0.0827  0.1156
   63loPI   C2B 1006   3.702   8.124   9.723  0.0060 -0.1951 -0.0506
   63loPI   C3B 1007   3.653   8.056   9.260  0.0608 -0.0281 -0.1190
   63loPI   C4B 1008   3.715   8.172   8.773 -0.0899  0.0870 -0.0242
   64loPI    C1 1009  13.967   6.225  11.322 -0.0286 -0.2146  0.1493
   64loPI    C2 1010  13.708   6.423  11.089  0.3624 -0.0197 -0.1310
   64loPI    C3 1011  13.772   6.543  11.465  0.0473 -0.0730 -0.0573
   64loPI   PO4 1012  13.885   5.876  11.197  0.0863  0.2846  0.0139
   64loPI   GL1 1013  13.818   5.736  10.805  0.1318  0.2585 -0.0059
   64loPI   GL2 1014  13.666   6.098  10.745  0.3254  0.2643  0.1442
   64loPI   C1A 1015  13.963   5.963  10.373 -0.0647 -0.0535 -0.1115
   64loPI   C2A 1016  13.898   6.060   9.894 -0.1261  0.2665  0.1412
   64loPI   C3A 1017  14.035   6.105   9.496  0.0088 -0.1422  0.0320
   64loPI   C4A 1018  14.105   6.111   9.016  0.0119 -0.2534  0.3189
   64loPI   C5A 1019  14.418   6.428   8.882  0.1757 -0.0183  0.0431
   64loPI   C6A 1020  14.530   6.675   8.477  0.0604  0.1927 -0.2636
   64loPI   C1B 1021  13.553   6.215  10.332 -0.3419 -0.2592 -0.1335
   64loPI   C2B 1022  13.435   6.292   9.895 -0.1231 -0.0563  0.2415
   64loPI   C3B 1023  13.524   6.217   9.481  0.0583  0.2412 -0.1565
   64loPI   C4B 1024  13.537   6.185   9.034 -0.1603 -0.4552  0.2845
   65loPI    C1 1025   6.865   2.785  11.335  0.0904 -0.1656  0.0579
   65loPI    C2 1026   7.015   3.137  11.216 -0.1007 -0.0599  0.1241
   65loPI    C3 1027   6.999   3.048  11.605 -0.3473 -0.0055  0.1279
   65loPI   PO4 1028   6.608   2.745  11.231 -0.1010  0.1078 -0.4276
   65loPI   GL1 1029   6.272   2.550  10.891 -0.0983  0.2281 -0.1387
   65loPI   GL2 1030   6.488   2.560  10.652  0.0707 -0.1274 -0.2091
   65loPI   C1A 1031   6.184   2.987  10.555 -0.0864  0.0144 -0.1998
   65loPI   C2A 1032   6.188   3.127  10.129 -0.0770 -0.0972  0.1413
   65loPI   C3A 1033   6.256   3.169   9.628  0.0706 -0.0739  0.1931
   65loPI   C4A 1034   6.394   3.135   9.228  0.2070 -0.2037  0.1007
   65loPI   C5A 1035   6.365   2.982   8.796  0.0988 -0.1374 -0.0005
   65loPI   C6A 1036   6.038   2.746   8.553  0.0298  0.0722  0.0437
   65loPI   C1B 1037   6.433   2.654  10.304  0.0080  0.1454  0.1486
   65loPI   C2B 1038   6.453   2.693   9.824 -0.2392  0.1222 -0.3480
   65loPI   C3B 1039   6.404   2.611   9.356 -0.1356 -0.2901  0.0024
   65loPI   C4B 1040   6.375   2.462   8.860  0.1554 -0.1193 -0.0916
   66loPI    C1 1041   6.609  17.477  11.112  0.0817  0.0444  0.0265
   66loPI    C2 1042   6.247  17.452  11.281  0.0876 -0.0583  0.0244
   66loPI    C3 1043   6.564  17.294  11.465  0.1305  0.0258  0.0229
   66loPI   PO4 1044   6.607  17.520  10.828 -0.1005 -0.1402  0.1285
   66loPI   GL1 1045   6.463  17.397  10.415 -0.4321 -0.1145 -0.0943
   66loPI   GL2 1046   6.260  17.280  10.423 -0.0251  0.3666  0.1550
   66loPI   C1A 1047   6.703  17.417  10.037  0.2472 -0.0460 -0.0923
   66loPI   C2A 1048   6.659  17.366   9.668  0.2280 -0.1780 -0.0306
   66loPI   C3A 1049   6.570  17.475   9.347 -0.0693 -0.1260  0.0116
   66loPI   C4A 1050   6.482  17.442   8.911  0.0141 -0.0660 -0.3088
   66loPI   C5A 1051   6.410  17.603   8.430 -0.0172 -0.0354  0.1288
   66loPI   C6A 1052   6.054  17.679   8.160 -0.0509  0.2645 -0.2053
   66loPI   C1B 1053   6.216  17.264   9.905  0.0586 -0.0582  0.0653
   66loPI   C2B 1054   6.045  17.436   9.475 -0.0672 -0.3276  0.0211
   66loPI   C3B 1055   6.042  17.645   9.132 -0.0725 -0.3688  0.1905
   66loPI   C4B 1056   5.991  17.645   8.732 -0.1451 -0.0159 -0.0298
   67loPI    C1 1057   8.507   8.387  10.859  0.2171  0.3055 -0.0271
   67loPI    C2 1058   8.593   8.463  11.242  0.2442  0.0084  0.0288
   67loPI    C3 1059   8.559   8.085  11.116 -0.2578  0.1055 -0.1538
   67loPI   PO4 1060   8.306   8.526  10.803  0.0519 -0.0408 -0.0168
   67loPI   GL1 1061   8.108   8.726  10.419 -0.1372 -0.2840 -0.0114
   67loPI   GL2 1062   8.235   8.797  10.125  0.0359 -0.2220 -0.0708
   67loPI   C1A 1063   7.832   8.496  10.090 -0.3666  0.3048 -0.3527
   67loPI   C2A 1064   7.866   8.404   9.697  0.0683 -0.0913  0.4958
   67loPI   C3A 1065   7.906   8.311   9.299  0.1271  0.3910 -0.0839
   67loPI   C4A 1066   7.930   8.368   8.865  0.0031  0.0413 -0.2490
   67loPI   C5A 1067   7.645   8.528   8.660 -0.2550 -0.0240 -0.0584
   67loPI   C6A 1068   7.496   8.869   8.432  0.0817  0.4105  0.0485
   67loPI   C1B 1069   8.312   8.775   9.702 -0.0082 -0.1574  0.0573
   67loPI   C2B 1070   8.167   8.753   9.256  0.0724  0.2471 -0.1425
   67loPI   C3B 1071   7.974   8.926   8.756 -0.0197 -0.0600  0.1809
   67loPI   C4B 1072   7.988   9.143   8.369  0.0716 -0.3186 -0.2615
   68loPI    C1 1073   8.841   2.568  11.074  0.2109 -0.0390  0.0717
   68loPI    C2 1074   8.851   2.601  11.473  0.1707 -0.3235  0.0983
   68loPI    C3 1075   8.913   2.246  11.300  0.2467 -0.1904 -0.1529
   68loPI   PO4 1076   8.938   2.827  11.020  0.0795 -0.0632 -0.0834
   68loPI   GL1 1077   8.881   3.042  10.639 -0.0687 -0.2706 -0.3502
   68loPI   GL2 1078   8.667   2.956  10.450  0.0098  0.2038 -0.1275
   68loPI   C1A 1079   9.071   3.257  10.345 -0.0041 -0.3039 -0.0835
   68loPI   C2A 1080   9.185   3.360   9.939 -0.0516 -0.0016  0.0288
   68loPI   C3A 1081   9.010   3.401   9.473  0.2879  0.1697  0.0459
   68loPI   C4A 1082   9.012   3.296   9.092  0.1884 -0.1744  0.1855
   68loPI   C5A 1083   9.079   3.363   8.726  0.2033  0.0306  0.2008
   68loPI   C6A 1084   9.350   3.509   8.648 -0.2171 -0.0688 -0.2382
   68loPI   C1B 1085   8.650   2.923   9.983 -0.0664  0.1820  0.1297
   68loPI   C2B 1086   8.635   2.937   9.532  0.1039 -0.0882  0.0829
   68loPI   C3B 1087   8.629   2.920   9.083 -0.2484  0.1063  0.4521
   68loPI   C4B 1088   8.728   2.906   8.655 -0.0580  0.1678  0.2357
   69loPI    C1 1089  12.872   6.441  11.405 -0.0588 -0.1772 -0.1223
   69loPI    C2 1090  12.551   6.440  11.644 -0.0257  0.2481 -0.0688
   69loPI    C3 1091  12.890   6.264  11.763 -0.2236 -0.1727 -0.1113
   69loPI   PO4 1092  12.771   6.405  11.207 -0.1713 -0.4486 -0.2968
   69loPI   GL1 1093  12.898   6.425  10.808 -0.0603 -0.3332 -0.0851
   69loPI   GL2 1094  12.568   6.516  10.767  0.0302 -0.1820  0.3092
   69loPI   C1A 1095  13.007   6.389  10.332 -0.1769  0.2986 -0.2047
   69loPI   C2A 1096  12.936   6.422   9.909 -0.1950  0.0329 -0.0549
   69loPI   C3A 1097  12.976   6.367   9.468 -0.0003 -0.2351 -0.0620
   69loPI   C4A 1098  12.998   6.330   9.050 -0.0456 -0.0924  0.0302
   69loPI   C5A 1099  13.188   6.150   8.657 -0.0313 -0.1072  0.0740
   69loPI   C6A 1100  13.262   6.138   8.147 -0.0848 -0.0782 -0.2553
   69loPI   C1B 1101  12.419   6.455  10.306  0.0368  0.0902  0.1563
   69loPI   C2B 1102  12.466   6.500   9.870 -0.2107 -0.1589 -0.1259
   69loPI   C3B 1103  12.491   6.500   9.488 -0.3556  0.0718 -0.0599
   69loPI   C4B 1104  12.465   6.491   9.113 -0.1023 -0.0952 -0.1883
   70loPI    C1 1105   1.212   7.656  11.277  0.2321  0.1395 -0.0587
   70loPI    C2 1106   1.564   7.615  11.463  0.1420 -0.0445  0.0740
   70loPI    C3 1107   1.308   7.900  11.579  0.2066  0.0280  0.0398
   70loPI   PO4 1108   1.218   7.695  11.007  0.0238  0.1469 -0.1909
   70loPI   GL1 1109   1.411   7.848  10.707  0.0388 -0.0290 -0.1408
   70loPI   GL2 1110   1.278   8.164  10.621  0.1506  0.4090  0.1813
   70loPI   C1A 1111   1.422   7.750  10.263  0.1786  0.0258  0.0611
   70loPI   C2A 1112   1.442   7.852   9.774 -0.1507  0.1339 -0.1042
   70loPI   C3A 1113   1.458   7.812   9.325 -0.0174 -0.1273  0.0557
   70loPI   C4A 1114   1.330   7.709   8.834 -0.0038 -0.1470 -0.2171
   70loPI   C5A 1115   1.613   7.495   8.581 -0.0361  0.0560  0.1391
   70loPI   C6A 1116   2.019   7.671   8.606  0.0507 -0.0440  0.1150
   70loPI   C1B 1117   1.265   8.240  10.197  0.0863  0.3468  0.0303
   70loPI   C2B 1118   1.295   8.318   9.709  0.1425 -0.0104 -0.1381
   70loPI   C3B 1119   1.335   8.358   9.288  0.0971 -0.4360  0.0666
   70loPI   C4B 1120   1.284   8.286   8.858  0.1753 -0.6070  0.1905
   71loPI    C1 1121  13.941   1.207  11.296 -0.0956 -0.0743  0.1576
   71loPI    C2 1122  14.170   1.470  11.493 -0.2223  0.0039  0.2020
   71loPI    C3 1123  13.886   1.267  11.688 -0.3071  0.0359  0.1124
   71loPI   PO4 1124  13.841   1.344  11.055  0.0007  0.2852 -0.2118
   71loPI   GL1 1125  13.693   1.654  10.888  0.1674 -0.0171  0.0034
   71loPI   GL2 1126  14.065   1.702  10.665 -0.0157  0.0324  0.1377
   71loPI   C1A 1127  13.534   1.825  10.548  0.0038  0.1571 -0.0624
   71loPI   C2A 1128  13.540   1.855  10.065  0.0589 -0.0807 -0.0171
   71loPI   C3A 1129  13.587   1.859   9.595 -0.0500 -0.0141 -0.0450
   71loPI   C4A 1130  13.492   1.976   9.147  0.1817 -0.0264  0.1059
   71loPI   C5A 1131  13.515   1.924   8.643 -0.0111 -0.0746 -0.1942
   71loPI   C6A 1132  13.800   1.980   8.321 -0.1466 -0.2631  0.0874
   71loPI   C1B 1133  14.034   1.684  10.197  0.1547  0.1060 -0.1007
   71loPI   C2B 1134  14.131   1.673   9.732 -0.1660 -0.1106 -0.0857
   71loPI   C3B 1135  14.031   1.799   9.322 -0.0898  0.1386 -0.0253
   71loPI   C4B 1136  14.010   1.850   8.925  0.3171 -0.0831 -0.3017
   72loPI    C1 1137  11.114   4.598  11.603  0.1223 -0.0880 -0.0680
   72loPI    C2 1138  11.471   4.750  11.702 -0.0066  0.1087  0.1044
   72loPI    C3 1139  11.137   4.899  11.866 -0.1768 -0.0060 -0.1312
   72loPI   PO4 1140  11.205   4.450  11.378  0.0238 -0.0595  0.1415
   72loPI   GL1 1141  11.323   4.526  10.969  0.1113  0.0566 -0.1617
   72loPI   GL2 1142  11.558   4.381  10.766 -0.0322  0.1301  0.0582
   72loPI   C1A 1143  11.069   4.534  10.537  0.2086 -0.0582 -0.1150
   72loPI   C2A 1144  11.094   4.555  10.106  0.1787 -0.0231 -0.0521
   72loPI   C3A 1145  11.123   4.573   9.585  0.1608 -0.1980 -0.0091
   72loPI   C4A 1146  11.033   4.682   9.189 -0.2248  0.3382 -0.0783
   72loPI   C5A 1147  10.800   4.833   8.827 -0.0980  0.1255  0.1060
   72loPI   C6A 1148  10.579   5.186   8.560 -0.0290 -0.0237 -0.1325
   72loPI   C1B 1149  11.510   4.377  10.288 -0.2511  0.3939  0.2152
   72loPI   C2B 1150  11.603   4.534   9.865  0.0089 -0.1263  0.1239
   72loPI   C3B 1151  11.653   4.448   9.445 -0.0384 -0.0841 -0.0446
   72loPI   C4B 1152  11.806   4.588   9.049  0.0547 -0.0427  0.0432
   73loPI    C1 1153   9.927   8.711  11.041  0.0669 -0.1228  0.1253
   73loPI    C2 1154  10.263   8.530  11.162  0.2184 -0.0188 -0.1306
   73loPI    C3 1155  10.222   8.926  11.204  0.0527 -0.0545  0.0614
   73loPI   PO4 1156   9.943   8.715  10.712  0.1147 -0.1130  0.0945
   73loPI   GL1 1157   9.871   8.990  10.374 -0.1472 -0.0968  0.0104
   73loPI   GL2 1158  10.093   9.070  10.244  0.0175 -0.2353 -0.3178
   73loPI   C1A 1159   9.667   8.894  10.041  0.0592  0.2222  0.3947
   73loPI   C2A 1160   9.686   8.791   9.688  0.0870 -0.0314  0.0302
   73loPI   C3A 1161   9.653   8.727   9.304  0.2173 -0.1421 -0.0960
   73loPI   C4A 1162   9.572   8.742   8.899  0.2854 -0.0658  0.0909
   73loPI   C5A 1163   9.538   8.757   8.462 -0.0657  0.2104  0.1176
   73loPI   C6A 1164   9.748   8.657   8.142 -0.2191  0.0161  0.0827
   73loPI   C1B 1165  10.051   9.217   9.848 -0.1667  0.4691  0.2110
   73loPI   C2B 1166   9.956   9.143   9.401  0.0624 -0.0433  0.1988
   73loPI   C3B 1167   9.986   9.093   9.000  0.1292  0.2798 -0.0074
   73loPI   C4B 1168   9.938   9.113   8.504  0.1051 -0.1458 -0.2061
   74loPI    C1 1169   1.394  13.987  11.010  0.1650  0.1478  0.1143
   74loPI    C2 1170   1.362  13.592  11.064  0.0594  0.1558  0.1109
   74loPI    C3 1171   1.034  13.821  11.056  0.1244  0.2520  0.1752
   74loPI   PO4 1172   1.492  14.030  10.788 -0.4019  0.1056 -0.1923
   74loPI   GL1 1173   1.170  14.030  10.392 -0.1113  0.1598  0.1195
   74loPI   GL2 1174   1.403  14.108  10.286 -0.2185 -0.1671  0.0978
   74loPI   C1A 1175   1.286  13.665  10.094  0.3343  0.0534 -0.4077
   74loPI   C2A 1176   1.429  13.467   9.771  0.0797 -0.0427  0.0369
   74loPI   C3A 1177   1.450  13.547   9.288  0.1193 -0.2968  0.1581
   74loPI   C4A 1178   1.317  13.589   8.866  0.0342 -0.0929 -0.2179
   74loPI   C5A 1179   1.366  13.497   8.469  0.0855  0.1701 -0.0183
   74loPI   C6A 1180   1.210  13.691   8.109  0.0157 -0.0261 -0.0783
   74loPI   C1B 1181   1.186  14.174   9.883 -0.0748  0.3363  0.0347
   74loPI   C2B 1182   1.228  14.111   9.445 -0.1674  0.0668  0.1581
   74loPI   C3B 1183   1.268  14.036   9.012  0.5073  0.0019 -0.0039
   74loPI   C4B 1184   1.241  14.075   8.605 -0.1467  0.3742  0.2330
   75loPI    C1 1185  13.887  11.073  10.678 -0.3252  0.0117 -0.1202
   75loPI    C2 1186  14.151  11.363  10.755  0.0562 -0.3452 -0.0445
   75loPI    C3 1187  13.922  11.218  11.049 -0.1564 -0.1072 -0.0885
   75loPI   PO4 1188  14.014  10.880  10.608  0.1618 -0.1243 -0.0055
   75loPI   GL1 1189  14.167  10.735  10.273  0.0874 -0.1138  0.1736
   75loPI   GL2 1190  13.943  10.505  10.269  0.0836  0.1897  0.2008
   75loPI   C1A 1191  14.218  10.740   9.869 -0.0725 -0.0379  0.2983
   75loPI   C2A 1192  14.286  10.648   9.437  0.2041  0.1221  0.3607
   75loPI   C3A 1193  14.361  10.626   8.989  0.0747  0.1575  0.0224
   75loPI   C4A 1194  14.312  10.813   8.500 -0.0982  0.3258  0.0555
   75loPI   C5A 1195  13.988  10.720   8.222 -0.0572  0.0292 -0.0169
   75loPI   C6A 1196  13.730  10.894   7.844 -0.0844  0.3755  0.1208
   75loPI   C1B 1197  13.894  10.353   9.901 -0.1058 -0.0113 -0.0446
   75loPI   C2B 1198  13.903  10.223   9.493 -0.0263 -0.2853 -0.0534
   75loPI   C3B 1199  13.928  10.298   9.124 -0.0099 -0.2071 -0.0096
   75loPI   C4B 1200  14.034  10.201   8.659  0.0246  0.0686 -0.0981
   76loPI    C1 1201  12.047  14.853  10.552 -0.2441 -0.0088  0.4162
   76loPI    C2 1202  12.251  14.578  10.760  0.0057  0.0032  0.1925
   76loPI    C3 1203  12.309  14.968  10.831 -0.0549  0.0044  0.2360
   76loPI   PO4 1204  12.116  14.812  10.306 -0.3393  0.2238  0.1842
   76loPI   GL1 1205  11.851  14.608   9.963 -0.0542 -0.0273  0.2515
   76loPI   GL2 1206  11.972  14.363   9.898 -0.0098  0.0561  0.0274
   76loPI   C1A 1207  11.843  14.744   9.570  0.1729 -0.0210 -0.1621
   76loPI   C2A 1208  11.842  14.713   9.151 -0.1391 -0.0864  0.0284
   76loPI   C3A 1209  11.831  14.653   8.782 -0.3011 -0.3578  0.0276
   76loPI   C4A 1210  11.754  14.477   8.277  0.0152  0.0090  0.2274
   76loPI   C5A 1211  11.462  14.484   7.976  0.0368  0.0169 -0.1045
   76loPI   C6A 1212  11.092  14.347   7.810  0.1302  0.0753  0.0723
   76loPI   C1B 1213  11.985  14.292   9.447  0.2291 -0.0469  0.1581
   76loPI   C2B 1214  11.987  14.219   9.021 -0.4531 -0.0205 -0.1592
   76loPI   C3B 1215  11.890  14.108   8.581  0.1545  0.1504  0.1299
   76loPI   C4B 1216  11.541  14.005   8.252  0.1805  0.1342  0.2134
   77loPI    C1 1217   9.159  11.613  10.847  0.0113 -0.1940 -0.0720
   77loPI    C2 1218   9.520  11.737  10.725  0.0109 -0.1766 -0.0560
   77loPI    C3 1219   9.477  11.575  11.088  0.0210 -0.2713 -0.0966
   77loPI   PO4 1220   9.115  11.486  10.578  0.1375  0.0235 -0.0654
   77loPI   GL1 1221   9.079  11.553  10.076  0.1646 -0.1365  0.2149
   77loPI   GL2 1222   8.841  11.331  10.048 -0.4007 -0.0176 -0.0471
   77loPI   C1A 1223   9.125  11.383   9.612 -0.2642 -0.2701  0.0869
   77loPI   C2A 1224   9.107  11.241   9.091  0.0172 -0.1004  0.0610
   77loPI   C3A 1225   9.076  11.174   8.626  0.0577 -0.2350  0.1241
   77loPI   C4A 1226   9.052  11.158   8.214  0.0893 -0.2194  0.1965
   77loPI   C5A 1227   9.245  10.963   7.890 -0.1917 -0.0038 -0.2438
   77loPI   C6A 1228   9.247  10.819   7.529  0.2753  0.3368  0.1200
   77loPI   C1B 1229   8.651  11.077   9.730 -0.0358  0.1410  0.0109
   77loPI   C2B 1230   8.634  11.051   9.379  0.0047  0.1823 -0.1046
   77loPI   C3B 1231   8.623  10.952   8.948 -0.1442 -0.0853  0.1640
   77loPI   C4B 1232   8.698  10.877   8.527 -0.1560 -0.3397  0.1687
   78loPI    C1 1233  10.400   0.697  10.684  0.0396  0.2141  0.0803
   78loPI    C2 1234  10.463   0.315  10.785  0.1119  0.1906 -0.0506
   78loPI    C3 1235  10.524   0.606  11.053 -0.1325  0.0968  0.1100
   78loPI   PO4 1236  10.455   0.740  10.434 -0.3619 -0.0646  0.2484
   78loPI   GL1 1237  10.525   0.879  10.103  0.0166  0.0367 -0.1314
   78loPI   GL2 1238  10.153   0.671  10.030 -0.0087  0.2526  0.1626
   78loPI   C1A 1239  10.446   0.941   9.679  0.0922 -0.1105  0.2031
   78loPI   C2A 1240  10.395   0.893   9.200 -0.0845  0.1103 -0.1410
   78loPI   C3A 1241  10.442   1.091   8.869  0.0604 -0.0445  0.1682
   78loPI   C4A 1242  10.581   1.173   8.483  0.0313 -0.3556  0.1122
   78loPI   C5A 1243  10.734   1.279   8.034  0.0038 -0.0580  0.2133
   78loPI   C6A 1244  10.811   1.514   7.601  0.4658  0.1591  0.2303
   78loPI   C1B 1245  10.161   0.534   9.561  0.2979  0.2473  0.1727
   78loPI   C2B 1246   9.962   0.565   9.168  0.0926 -0.0830 -0.3467
   78loPI   C3B 1247  10.118   0.565   8.791 -0.0147  0.3032  0.2408
   78loPI   C4B 1248  10.193   0.784   8.391  0.0363  0.0456 -0.1436
   79loPI    C1 1249  15.405   1.823  11.336  0.0002  0.0074 -0.0778
   79loPI    C2 1250  15.089   1.945  11.549  0.0804 -0.1112  0.1122
   79loPI    C3 1251  15.439   1.876  11.731  0.1658 -0.1597 -0.0678
   79loPI   PO4 1252  15.443   1.971  11.119  0.0879 -0.1241 -0.1619
   79loPI   GL1 1253  15.328   2.014  10.791 -0.0569 -0.0416 -0.0471
   79loPI   GL2 1254  15.017   1.885  10.673  0.2444  0.1005 -0.0316
   79loPI   C1A 1255  15.463   2.097  10.404  0.0018 -0.2379  0.1665
   79loPI   C2A 1256  15.388   2.158   9.988 -0.0105 -0.0530  0.1165
   79loPI   C3A 1257  15.233   2.260   9.609  0.0830 -0.1944 -0.0652
   79loPI   C4A 1258  15.303   2.217   9.180 -0.0740 -0.2117  0.0314
   79loPI   C5A 1259  15.362   2.308   8.712 -0.1710  0.3001  0.2915
   79loPI   C6A 1260  15.334   2.290   8.274 -0.1415 -0.0033 -0.2063
   79loPI   C1B 1261  14.947   1.957  10.288 -0.0124  0.2752  0.3138
   79loPI   C2B 1262  14.947   1.938   9.893 -0.2268 -0.0305  0.3560
   79loPI   C3B 1263  14.892   1.953   9.447 -0.1139 -0.1524  0.1529
   79loPI   C4B 1264  14.864   1.963   9.057 -0.3275 -0.2918 -0.1695
   80loPI    C1 1265  17.615   1.458  11.200 -0.0946 -0.2545 -0.1957
   80loPI    C2 1266  17.292   1.452  11.435 -0.0807 -0.0498 -0.1694
   80loPI    C3 1267  17.591   1.706  11.513 -0.0871  0.0378 -0.4224
   80loPI   PO4 1268  17.558   1.371  10.965  0.0824 -0.2344 -0.1005
   80loPI   GL1 1269  17.356   1.504  10.645 -0.1098 -0.2047  0.1042
   80loPI   GL2 1270  17.066   1.481  10.554  0.0966  0.1610 -0.3148
   80loPI   C1A 1271  17.300   1.713  10.196  0.1290  0.2806 -0.3333
   80loPI   C2A 1272  17.236   1.712   9.820 -0.0538  0.2141 -0.2557
   80loPI   C3A 1273  17.312   1.730   9.385 -0.1965 -0.0103 -0.0402
   80loPI   C4A 1274  17.291   1.772   9.046 -0.0831  0.0882 -0.1827
   80loPI   C5A 1275  17.431   1.695   8.601  0.0350 -0.3947  0.0463
   80loPI   C6A 1276  17.443   1.392   8.236 -0.0128 -0.0854 -0.0158
   80loPI   C1B 1277  16.944   1.283  10.172 -0.2841  0.1063  0.1799
   80loPI   C2B 1278  16.931   1.308   9.776 -0.2782  0.3838  0.3442
   80loPI   C3B 1279  17.016   1.365   9.393 -0.2485 -0.0971 -0.1058
   80loPI   C4B 1280  16.991   1.406   8.959 -0.3041 -0.0371  0.0699
   81loPI    C1 1281   3.403  16.649  11.174 -0.1869 -0.0944 -0.0790
   81loPI    C2 1282   3.345  16.336  11.416 -0.1882 -0.0112  0.0294
   81loPI    C3 1283   3.669  16.566  11.462 -0.1733 -0.0123 -0.0676
   81loPI   PO4 1284   3.338  16.588  10.924 -0.2647 -0.0930  0.2169
   81loPI   GL1 1285   3.329  16.672  10.423 -0.2414  0.2523 -0.2861
   81loPI   GL2 1286   3.194  16.408  10.482 -0.0957  0.2722  0.0038
   81loPI   C1A 1287   3.463  16.856   9.997  0.0716 -0.0857  0.1396
   81loPI   C2A 1288   3.581  16.898   9.632 -0.0539 -0.0035 -0.1896
   81loPI   C3A 1289   3.455  16.920   9.219 -0.0972  0.0655 -0.0991
   81loPI   C4A 1290   3.509  17.081   8.804 -0.4869 -0.0279  0.0241
   81loPI   C5A 1291   3.388  16.907   8.504  0.2670  0.2796  0.2617
   81loPI   C6A 1292   3.207  16.898   8.225  0.1479 -0.0670 -0.0527
   81loPI   C1B 1293   3.111  16.448  10.016  0.1160  0.0044  0.2161
   81loPI   C2B 1294   3.047  16.474   9.570 -0.0835 -0.0355  0.0616
   81loPI   C3B 1295   3.070  16.607   9.094  0.0121 -0.0599 -0.1970
   81loPI   C4B 1296   3.032  16.489   8.643  0.0688  0.0114  0.4606
   82loPI    C1 1297   6.799  13.392  10.569  0.0592 -0.0327  0.1501
   82loPI    C2 1298   6.627  13.681  10.785  0.1882  0.2353 -0.0979
   82loPI    C3 1299   7.024  13.635  10.793  0.1570 -0.0323  0.0523
   82loPI   PO4 1300   6.747  13.358  10.246  0.0988 -0.0230 -0.0456
   82loPI   GL1 1301   6.804  13.546   9.823  0.0082 -0.2623 -0.1077
   82loPI   GL2 1302   7.121  13.371   9.911  0.0526 -0.0407  0.0563
   82loPI   C1A 1303   6.631  13.585   9.421 -0.3271  0.0970  0.1338
   82loPI   C2A 1304   6.655  13.563   9.080 -0.0446 -0.1898 -0.1907
   82loPI   C3A 1305   6.644  13.559   8.608  0.1589 -0.2417  0.0424
   82loPI   C4A 1306   6.602  13.527   8.166 -0.0433  0.1108 -0.0798
   82loPI   C5A 1307   6.866  13.284   7.880  0.1934  0.0015 -0.0032
   82loPI   C6A 1308   7.225  12.996   7.892 -0.2308  0.1239 -0.1316
   82loPI   C1B 1309   7.155  13.439   9.513 -0.2649  0.3744 -0.0072
   82loPI   C2B 1310   7.239  13.400   9.039  0.0561  0.0516  0.0123
   82loPI   C3B 1311   7.103  13.423   8.587 -0.3123  0.1364  0.0782
   82loPI   C4B 1312   6.984  13.036   8.314  0.3757 -0.0362 -0.0212
   83loPI    C1 1313   4.993   8.874  11.192  0.2797  0.1884 -0.0219
   83loPI    C2 1314   5.064   8.596  11.470  0.0110  0.0658 -0.0727
   83loPI    C3 1315   5.135   8.981  11.550  0.0964  0.0144  0.1056
   83loPI   PO4 1316   5.030   8.604  10.942 -0.2081 -0.2936  0.0619
   83loPI   GL1 1317   5.087   8.746  10.505  0.0267 -0.0116 -0.1708
   83loPI   GL2 1318   5.379   8.738  10.317 -0.3593  0.0977  0.1546
   83loPI   C1A 1319   4.950   8.800  10.122  0.0970  0.1505 -0.0332
   83loPI   C2A 1320   4.932   8.756   9.726  0.2330 -0.1057  0.1909
   83loPI   C3A 1321   4.913   8.614   9.301  0.0478  0.1680  0.1452
   83loPI   C4A 1322   4.816   8.597   8.865  0.2032  0.0435  0.1179
   83loPI   C5A 1323   4.828   8.959   8.594  0.0485 -0.2245 -0.1203
   83loPI   C6A 1324   4.545   9.252   8.326 -0.1700 -0.1190 -0.1096
   83loPI   C1B 1325   5.413   8.719   9.896 -0.0388  0.2894  0.2907
   83loPI   C2B 1326   5.456   8.651   9.485  0.0849 -0.0026 -0.2674
   83loPI   C3B 1327   5.350   8.486   9.061  0.1811 -0.1467  0.1361
   83loPI   C4B 1328   5.274   8.455   8.677  0.1196  0.0557 -0.0944
   84loPI    C1 1329   3.360   9.029  11.292 -0.0545  0.1650  0.0837
   84loPI    C2 1330   3.735   8.899  11.241 -0.0554  0.2613 -0.1902
   84loPI    C3 1331   3.667   9.245  11.430 -0.0438 -0.0380  0.3847
   84loPI   PO4 1332   3.260   9.072  11.093  0.0286  0.0476  0.0251
   84loPI   GL1 1333   3.258   9.179  10.660 -0.1224  0.0549  0.0094
   84loPI   GL2 1334   3.067   8.992  10.503 -0.1029  0.0468  0.4966
   84loPI   C1A 1335   3.511   9.203  10.245  0.0862  0.2361 -0.1422
   84loPI   C2A 1336   3.447   9.182   9.817  0.1181  0.0204  0.0286
   84loPI   C3A 1337   3.389   9.200   9.419  0.3789 -0.1309 -0.1106
   84loPI   C4A 1338   3.523   9.417   9.043  0.2977  0.1861 -0.0933
   84loPI   C5A 1339   3.580   9.394   8.574  0.3450  0.1736 -0.2902
   84loPI   C6A 1340   3.530   9.047   8.273  0.1469  0.1168  0.1296
   84loPI   C1B 1341   3.129   8.862  10.101  0.2409 -0.0550  0.3298
   84loPI   C2B 1342   3.161   8.797   9.631 -0.2165  0.2923  0.2418
   84loPI   C3B 1343   3.078   8.808   9.176  0.1236 -0.1342  0.1051
   84loPI   C4B 1344   3.007   8.733   8.684  0.1457  0.0779 -0.2600
   85loPI    C1 1345   4.566   8.606  11.196 -0.0638  0.1435 -0.2798
   85loPI    C2 1346   4.223   8.697  11.380  0.0659  0.0221  0.0309
   85loPI    C3 1347   4.566   8.861  11.504  0.1574 -0.0696 -0.0979
   85loPI   PO4 1348   4.484   8.541  10.948  0.0882 -0.0844  0.1445
   85loPI   GL1 1349   4.374   8.655  10.461  0.1539  0.0395 -0.2454
   85loPI   GL2 1350   4.405   8.894  10.342  0.0282 -0.0583 -0.0238
   85loPI   C1A 1351   4.638   8.416  10.140 -0.0094  0.0834 -0.1193
   85loPI   C2A 1352   4.581   8.401   9.663 -0.3104 -0.0061 -0.1538
   85loPI   C3A 1353   4.529   8.298   9.214 -0.0538 -0.1333  0.0728
   85loPI   C4A 1354   4.390   8.203   8.756  0.1502 -0.2440  0.1516
   85loPI   C5A 1355   4.155   8.346   8.456 -0.0024 -0.0647 -0.1550
   85loPI   C6A 1356   3.887   8.671   8.306 -0.1063 -0.0739  0.0447
   85loPI   C1B 1357   4.452   8.857   9.992 -0.0546  0.0283  0.1335
   85loPI   C2B 1358   4.354   8.852   9.499 -0.0250  0.2266  0.1155
   85loPI   C3B 1359   4.350   8.739   9.004 -0.0866  0.0675  0.2403
   85loPI   C4B 1360   4.360   8.783   8.530 -0.0872  0.0728  0.0007
   86loPI    C1 1361   1.625   7.084  11.309  0.1482 -0.3352  0.1145
   86loPI    C2 1362   1.310   7.158  11.545  0.1129  0.0489 -0.0452
   86loPI    C3 1363   1.675   7.123  11.704  0.0277 -0.1473  0.1126
   86loPI   PO4 1364   1.562   6.876  11.206  0.0346 -0.0936  0.0902
   86loPI   GL1 1365   1.545   6.656  10.774 -0.1521  0.0338  0.1505
   86loPI   GL2 1366   1.594   6.968  10.675 -0.1149 -0.2633 -0.0536
   86loPI   C1A 1367   1.319   6.464  10.461 -0.1253 -0.0353 -0.1544
   86loPI   C2A 1368   1.367   6.520  10.030  0.0770  0.2255 -0.0398
   86loPI   C3A 1369   1.354   6.486   9.579  0.3391  0.2973 -0.1655
   86loPI   C4A 1370   1.198   6.432   9.164  0.1545 -0.1491 -0.0239
   86loPI   C5A 1371   1.133   6.415   8.745  0.0308 -0.1617 -0.0423
   86loPI   C6A 1372   1.122   6.254   8.370 -0.0440  0.0949  0.2474
   86loPI   C1B 1373   1.709   6.814  10.226  0.0256 -0.1094 -0.1060
   86loPI   C2B 1374   1.742   6.803   9.784 -0.2140  0.1774 -0.3364
   86loPI   C3B 1375   1.642   6.778   9.352 -0.2364  0.1913 -0.1792
   86loPI   C4B 1376   1.592   6.700   8.938 -0.2060 -0.3385  0.0125
   87loPI    C1 1377   1.364  14.395  11.233 -0.1089  0.1052  0.0055
   87loPI    C2 1378   1.101  14.683  11.145 -0.2165  0.0011 -0.0167
   87loPI    C3 1379   0.972  14.326  11.271 -0.0977 -0.1358 -0.2751
   87loPI   PO4 1380   1.568  14.494  10.912 -0.2612  0.1615 -0.2068
   87loPI   GL1 1381   1.710  14.448  10.471 -0.1582 -0.1467 -0.1358
   87loPI   GL2 1382   2.037  14.211  10.347 -0.0496 -0.0329  0.3069
   87loPI   C1A 1383   1.638  14.449  10.003 -0.1929 -0.0193 -0.0406
   87loPI   C2A 1384   1.656  14.445   9.530 -0.3351 -0.0563 -0.0215
   87loPI   C3A 1385   1.665  14.481   9.118  0.2726 -0.1479  0.5013
   87loPI   C4A 1386   1.719  14.367   8.657  0.1799 -0.1347 -0.0345
   87loPI   C5A 1387   1.717  14.565   8.261  0.1008  0.2496 -0.1513
   87loPI   C6A 1388   1.670  14.437   7.851 -0.3861  0.0895 -0.0068
   87loPI   C1B 1389   2.235  14.219   9.997 -0.1109 -0.1835 -0.0292
   87loPI   C2B 1390   2.199  14.399   9.496  0.2490 -0.1431 -0.2010
   87loPI   C3B 1391   2.239  14.438   9.066 -0.0231 -0.0614  0.1134
   87loPI   C4B 1392   2.219  14.345   8.648  0.0756  0.0292  0.1683
   88loPI    C1 1393   5.072  10.871  11.083  0.1603 -0.0298  0.0013
   88loPI    C2 1394   4.922  11.069  11.396  0.1098  0.0411 -0.0672
   88loPI    C3 1395   5.241  10.833  11.443  0.1972  0.1722  0.0067
   88loPI   PO4 1396   4.934  10.948  10.905  0.1243  0.0538 -0.1972
   88loPI   GL1 1397   4.747  11.139  10.516  0.1080 -0.0032 -0.0773
   88loPI   GL2 1398   4.843  11.405  10.542 -0.0200 -0.1414 -0.1122
   88loPI   C1A 1399   4.959  10.799  10.290  0.1037 -0.1676 -0.0247
   88loPI   C2A 1400   4.930  10.670   9.884 -0.0629  0.2047  0.0657
   88loPI   C3A 1401   4.917  10.636   9.502 -0.2394 -0.0057 -0.0154
   88loPI   C4A 1402   4.904  10.544   9.031 -0.2357 -0.0443 -0.3413
   88loPI   C5A 1403   5.053  10.585   8.658 -0.0199  0.2674 -0.4406
   88loPI   C6A 1404   5.139  10.727   8.244  0.0170 -0.0994 -0.2897
   88loPI   C1B 1405   4.872  11.288  10.056  0.1884  0.1368 -0.2139
   88loPI   C2B 1406   4.873  11.158   9.588  0.0552  0.0098  0.1404
   88loPI   C3B 1407   4.886  11.064   9.214 -0.0446  0.0081 -0.0993
   88loPI   C4B 1408   4.879  11.019   8.783  0.0020 -0.1123  0.0676
   89loPI    C1 1409   2.448   4.700  11.049 -0.1308 -0.0971 -0.0038
   89loPI    C2 1410   2.603   4.894  11.362 -0.1132 -0.1797  0.0390
   89loPI    C3 1411   2.313   5.064  11.145  0.0080 -0.0417 -0.0163
   89loPI   PO4 1412   2.590   4.628  10.878  0.2189 -0.1018 -0.1540
   89loPI   GL1 1413   2.771   4.594  10.478  0.1256 -0.1259 -0.1652
   89loPI   GL2 1414   2.633   4.343  10.379  0.0077 -0.0643  0.1286
   89loPI   C1A 1415   3.097   4.592  10.155 -0.2388  0.1143  0.1428
   89loPI   C2A 1416   3.145   4.578   9.704 -0.3642  0.1621  0.2988
   89loPI   C3A 1417   3.205   4.482   9.269  0.3486  0.0963 -0.3821
   89loPI   C4A 1418   3.231   4.462   8.791 -0.1537 -0.2942 -0.1369
   89loPI   C5A 1419   3.291   4.218   8.497  0.0492  0.2383  0.0102
   89loPI   C6A 1420   3.161   4.172   8.082  0.0402 -0.1587  0.1647
   89loPI   C1B 1421   2.601   4.677  10.035  0.0190 -0.0155  0.0527
   89loPI   C2B 1422   2.614   4.734   9.601 -0.2879  0.1332 -0.0495
   89loPI   C3B 1423   2.753   4.648   9.186  0.1145  0.0001 -0.1414
   89loPI   C4B 1424   2.695   4.480   8.847 -0.0362 -0.1285 -0.0170
   90loPI    C1 1425   9.499  16.017  10.487 -0.0143  0.1191 -0.0539
   90loPI    C2 1426   9.627  16.384  10.582 -0.0275  0.1224 -0.0480
   90loPI    C3 1427   9.276  16.253  10.721  0.0302  0.0644  0.0440
   90loPI   PO4 1428   9.537  16.070  10.168  0.2475 -0.0619  0.0942
   90loPI   GL1 1429   9.826  16.320   9.878 -0.1318  0.3046 -0.0208
   90loPI   GL2 1430  10.146  16.476   9.763 -0.2284 -0.1467 -0.0053
   90loPI   C1A 1431  10.207  16.013   9.682 -0.1169  0.0711  0.0790
   90loPI   C2A 1432  10.385  15.874   9.358  0.2415  0.3260  0.1411
   90loPI   C3A 1433  10.357  16.008   8.925 -0.0528  0.0243  0.2635
   90loPI   C4A 1434  10.222  15.981   8.552 -0.0917 -0.1981  0.3960
   90loPI   C5A 1435  10.211  16.042   8.153  0.2661  0.4663 -0.1489
   90loPI   C6A 1436  10.064  15.759   7.953 -0.0774  0.1182  0.0355
   90loPI   C1B 1437  10.157  16.409   9.359 -0.2534 -0.1894  0.0555
   90loPI   C2B 1438  10.264  16.467   9.025  0.0422 -0.1506  0.1456
   90loPI   C3B 1439  10.136  16.504   8.662 -0.0713 -0.0722 -0.1941
   90loPI   C4B 1440   9.894  16.602   8.449  0.0452 -0.0394  0.0100
   91loPI    C1 1441   2.619   2.190  11.441  0.0578  0.0919 -0.1686
   91loPI    C2 1442   2.587   1.987  11.098 -0.0018 -0.1247 -0.0369
   91loPI    C3 1443   2.258   2.110  11.289  0.0264 -0.1447  0.0246
   91loPI   PO4 1444   2.901   2.399  11.362 -0.0692 -0.0514 -0.0267
   91loPI   GL1 1445   2.961   2.588  10.935 -0.0555 -0.2611  0.0316
   91loPI   GL2 1446   2.868   2.288  10.849 -0.0599 -0.0935 -0.0744
   91loPI   C1A 1447   3.108   2.535  10.445 -0.1991 -0.0615 -0.1738
   91loPI   C2A 1448   3.174   2.482  10.037  0.2252 -0.0308  0.0557
   91loPI   C3A 1449   3.113   2.483   9.579  0.0544  0.0189  0.0214
   91loPI   C4A 1450   3.223   2.580   9.119  0.2773  0.1116 -0.0320
   91loPI   C5A 1451   3.297   2.564   8.669 -0.1441 -0.0895  0.0349
   91loPI   C6A 1452   3.482   2.739   8.335  0.1128  0.1607  0.2349
   91loPI   C1B 1453   2.730   2.177  10.434  0.0237 -0.3245  0.2996
   91loPI   C2B 1454   2.702   2.239   9.936 -0.2250 -0.4649 -0.0116
   91loPI   C3B 1455   2.755   2.189   9.446 -0.0450 -0.1884  0.0732
   91loPI   C4B 1456   2.594   2.105   9.103 -0.1997 -0.1000  0.0280
   92loPI    C1 1457  16.526   7.633  11.234  0.2470  0.0013  0.0277
   92loPI    C2 1458  16.738   7.386  11.466 -0.0028 -0.1648  0.0838
   92loPI    C3 1459  16.787   7.782  11.498  0.0814 -0.1917  0.3061
   92loPI   PO4 1460  16.571   7.530  11.031  0.0608  0.1135 -0.1705
   92loPI   GL1 1461  16.626   7.400  10.665 -0.0720  0.0839  0.2056
   92loPI   GL2 1462  16.339   7.509  10.530  0.0847  0.0281 -0.2728
   92loPI   C1A 1463  16.581   7.294  10.199 -0.1324  0.0860  0.1034
   92loPI   C2A 1464  16.563   7.160   9.758  0.1332  0.3240 -0.3575
   92loPI   C3A 1465  16.467   7.179   9.302 -0.1254  0.0413  0.3689
   92loPI   C4A 1466  16.527   7.277   8.814 -0.1199 -0.4886 -0.3177
   92loPI   C5A 1467  16.534   7.739   8.526  0.0918 -0.0996 -0.0918
   92loPI   C6A 1468  16.267   7.720   8.126  0.2188  0.1873  0.0006
   92loPI   C1B 1469  16.092   7.366  10.140 -0.0310  0.2798 -0.2102
   92loPI   C2B 1470  16.035   7.294   9.759 -0.1237 -0.1962 -0.1468
   92loPI   C3B 1471  16.000   7.357   9.356  0.0525 -0.0225 -0.0915
   92loPI   C4B 1472  16.023   7.272   8.891 -0.2500 -0.4321  0.0179
   93loPI    C1 1473   3.393  13.750  11.009 -0.2212  0.3529  0.0670
   93loPI    C2 1474   3.095  13.586  11.220  0.2105 -0.2185  0.2594
   93loPI    C3 1475   3.362  13.822  11.402 -0.1266  0.3188  0.0810
   93loPI   PO4 1476   3.282  13.691  10.754 -0.1267  0.2426  0.1409
   93loPI   GL1 1477   3.341  13.399  10.387 -0.0307  0.0530  0.1550
   93loPI   GL2 1478   3.131  13.200  10.198  0.1411  0.1557  0.0011
   93loPI   C1A 1479   3.320  13.572   9.920 -0.0104  0.0053  0.2184
   93loPI   C2A 1480   3.314  13.697   9.481 -0.0075 -0.0672 -0.3070
   93loPI   C3A 1481   3.246  13.575   9.117 -0.0023  0.2246 -0.1246
   93loPI   C4A 1482   3.221  13.599   8.715  0.0694 -0.0636  0.2829
   93loPI   C5A 1483   3.276  13.700   8.273 -0.1333 -0.2776 -0.2029
   93loPI   C6A 1484   3.342  13.996   7.923  0.1456 -0.1373  0.0566
   93loPI   C1B 1485   2.949  13.246   9.746 -0.1351  0.1892 -0.0520
   93loPI   C2B 1486   2.934  13.079   9.337  0.0989  0.1481  0.0386
   93loPI   C3B 1487   2.859  13.174   8.998 -0.0795  0.0543  0.0601
   93loPI   C4B 1488   2.744  13.079   8.642  0.0000 -0.0200 -0.1738
   94loPI    C1 1489   0.178  11.219  10.841 -0.2002 -0.1349 -0.0917
   94loPI    C2 1490  -0.159  11.062  10.988 -0.0635 -0.2078  0.1512
   94loPI    C3 1491   0.133  11.174  11.236 -0.0898  0.2794 -0.0276
   94loPI   PO4 1492   0.135  11.415  10.681  0.2311  0.0346 -0.1697
   94loPI   GL1 1493   0.192  11.456  10.306  0.1705  0.2883  0.0032
   94loPI   GL2 1494   0.261  11.195  10.035  0.0418  0.0082 -0.3781
   94loPI   C1A 1495   0.070  11.616   9.888 -0.1914  0.1394 -0.0964
   94loPI   C2A 1496   0.095  11.724   9.408  0.0079  0.3462 -0.3593
   94loPI   C3A 1497   0.131  11.525   9.104 -0.0140 -0.1475  0.2576
   94loPI   C4A 1498   0.052  11.458   8.703  0.0333  0.1053  0.1900
   94loPI   C5A 1499   0.056  11.194   8.340 -0.1652  0.4928  0.0429
   94loPI   C6A 1500  -0.198  10.878   8.154  0.0319 -0.3048  0.0599
   94loPI   C1B 1501   0.173  11.243   9.594 -0.1762  0.3239 -0.0746
   94loPI   C2B 1502   0.194  11.028   9.229  0.0237  0.0001  0.1939
   94loPI   C3B 1503   0.232  10.936   8.801 -0.0629 -0.1792 -0.1175
   94loPI   C4B 1504   0.559  10.876   8.492 -0.0050 -0.0685 -0.2204
   95loPI    C1 1505   8.339  11.610  10.724 -0.0292 -0.3584  0.1464
   95loPI    C2 1506   8.597  11.421  10.483  0.1062  0.0494 -0.0366
   95loPI    C3 1507   8.660  11.428  10.878  0.2149 -0.1033 -0.0506
   95loPI   PO4 1508   8.200  11.716  10.506  0.2678  0.3006  0.4534
   95loPI   GL1 1509   8.218  11.802  10.043  0.2742 -0.0609 -0.2222
   95loPI   GL2 1510   8.557  11.724  10.041  0.1469  0.0685  0.0213
   95loPI   C1A 1511   8.105  11.512   9.786 -0.0925  0.0285  0.1201
   95loPI   C2A 1512   8.099  11.358   9.427  0.1320 -0.1250 -0.0274
   95loPI   C3A 1513   8.237  11.276   9.104  0.1218  0.0106 -0.1259
   95loPI   C4A 1514   8.244  11.070   8.657  0.0087  0.0600  0.0932
   95loPI   C5A 1515   8.243  10.997   8.230 -0.1474 -0.0243 -0.0684
   95loPI   C6A 1516   8.002  10.876   8.013 -0.2349  0.1592  0.0113
   95loPI   C1B 1517   8.615  11.552   9.667  0.1481  0.1832  0.2912
   95loPI   C2B 1518   8.753  11.515   9.241 -0.1899  0.0898  0.0939
   95loPI   C3B 1519   8.648  11.463   8.785 -0.0931  0.3126  0.1281
   95loPI   C4B 1520   8.600  11.299   8.360  0.1539 -0.0589  0.0828
   96loPI    C1 1521  15.059   0.966  11.385  0.0554 -0.0417 -0.3370
   96loPI    C2 1522  15.202   1.047  11.750 -0.2216  0.2537 -0.2890
   96loPI    C3 1523  15.213   0.673  11.609  0.1420  0.1854 -0.0932
   96loPI   PO4 1524  15.208   1.103  11.177  0.2650 -0.0215  0.1712
   96loPI   GL1 1525  15.269   1.215  10.771  0.1043 -0.2438  0.2170
   96loPI   GL2 1526  15.563   1.173  10.644  0.5944  0.2613  0.1099
   96loPI   C1A 1527  15.290   1.560  10.480 -0.1484  0.1939 -0.3126
   96loPI   C2A 1528  15.405   1.685  10.130 -0.1372  0.0113 -0.1695
   96loPI   C3A 1529  15.420   1.784   9.627  0.0291 -0.1656 -0.0931
   96loPI   C4A 1530  15.345   1.704   9.218 -0.1888 -0.1574  0.0377
   96loPI   C5A 1531  15.301   1.727   8.748 -0.1809  0.1138  0.0670
   96loPI   C6A 1532  14.967   2.074   8.590  0.0759  0.2543  0.2105
   96loPI   C1B 1533  15.574   1.190  10.214 -0.0719 -0.0152 -0.1222
   96loPI   C2B 1534  15.489   1.290   9.799  0.3254 -0.0222  0.1544
   96loPI   C3B 1535  15.559   1.274   9.375 -0.1281  0.0875  0.1641
   96loPI   C4B 1536  15.577   1.299   8.961 -0.2056 -0.2699  0.0782
   97loPI    C1 1537  14.520   3.229  11.619 -0.1094  0.1692 -0.0213
   97loPI    C2 1538  14.758   2.908  11.646  0.0893  0.3239  0.0861
   97loPI    C3 1539  14.468   2.966  11.916 -0.1599  0.0656 -0.1211
   97loPI   PO4 1540  14.491   3.237  11.341  0.1503 -0.0048 -0.1011
   97loPI   GL1 1541  14.649   3.136  10.895 -0.1954 -0.0765 -0.1243
   97loPI   GL2 1542  14.296   2.962  10.985  0.1562 -0.1502  0.3053
   97loPI   C1A 1543  14.541   3.370  10.603 -0.1060  0.2572 -0.0358
   97loPI   C2A 1544  14.556   3.362  10.153  0.1497 -0.0010  0.0228
   97loPI   C3A 1545  14.604   3.510   9.728  0.3209 -0.5132  0.2484
   97loPI   C4A 1546  14.610   3.463   9.261 -0.1039 -0.0772 -0.1230
   97loPI   C5A 1547  14.438   3.407   8.892 -0.2418 -0.1612  0.2120
   97loPI   C6A 1548  14.038   3.573   9.041  0.0057 -0.0693 -0.0324
   97loPI   C1B 1549  14.241   2.995  10.600  0.0780  0.1272 -0.0450
   97loPI   C2B 1550  14.140   2.990  10.232 -0.0974  0.0850  0.1581
   97loPI   C3B 1551  14.207   3.107   9.828 -0.0338 -0.1170 -0.0627
   97loPI   C4B 1552  14.211   3.158   9.387 -0.0472 -0.0069 -0.0349
   98loPI    C1 1553   2.182   8.194  11.272  0.0359 -0.2093 -0.1285
   98loPI    C2 1554   2.357   8.072  11.611 -0.1559  0.0909  0.0841
   98loPI    C3 1555   1.987   7.948  11.521 -0.0505 -0.1037 -0.0912
   98loPI   PO4 1556   2.171   8.222  11.032  0.0637 -0.0054  0.1922
   98loPI   GL1 1557   2.018   8.319  10.708  0.1115 -0.1543 -0.0628
   98loPI   GL2 1558   1.780   8.131  10.568  0.3061  0.0570  0.0054
   98loPI   C1A 1559   2.127   8.523  10.304 -0.1578 -0.2825 -0.3327
   98loPI   C2A 1560   2.213   8.555   9.878  0.0687  0.0912 -0.3694
   98loPI   C3A 1561   2.218   8.503   9.443  0.1709 -0.0890  0.1192
   98loPI   C4A 1562   2.194   8.477   9.088  0.2132 -0.1586  0.0107
   98loPI   C5A 1563   2.161   8.167   8.714  0.0982 -0.1137  0.0055
   98loPI   C6A 1564   1.943   8.171   8.256 -0.2976  0.2485  0.1001
   98loPI   C1B 1565   1.801   8.139  10.153 -0.0891  0.2348  0.1628
   98loPI   C2B 1566   1.830   8.183   9.810  0.1072  0.2079 -0.1460
   98loPI   C3B 1567   1.823   8.173   9.383  0.1302  0.0655 -0.1202
   98loPI   C4B 1568   1.711   8.090   9.009 -0.2876  0.3028  0.2216
   99loPI    C1 1569   2.787   9.161  10.924  0.0334  0.1683 -0.0498
   99loPI    C2 1570   2.534   9.160  11.234  0.1416 -0.0359  0.0402
   99loPI    C3 1571   2.898   9.323  11.272  0.0527  0.1932 -0.0676
   99loPI   PO4 1572   2.822   8.829  10.861  0.1535 -0.0463  0.0467
   99loPI   GL1 1573   3.182   8.474  10.596  0.0869  0.0272 -0.1562
   99loPI   GL2 1574   3.121   8.161  10.572  0.0213 -0.2558  0.3231
   99loPI   C1A 1575   3.501   8.628  10.329  0.1475 -0.1296 -0.3364
   99loPI   C2A 1576   3.596   8.639   9.866  0.0920 -0.1772  0.3846
   99loPI   C3A 1577   3.578   8.523   9.486 -0.3484  0.1650  0.0124
   99loPI   C4A 1578   3.431   8.524   9.032 -0.1185  0.0681  0.5010
   99loPI   C5A 1579   3.468   8.608   8.527 -0.3898  0.2424  0.0650
   99loPI   C6A 1580   3.701   8.199   8.224 -0.3432  0.0548  0.3176
   99loPI   C1B 1581   3.307   8.228  10.096 -0.3343 -0.0466  0.1126
   99loPI   C2B 1582   3.192   8.236   9.746 -0.0068 -0.2008 -0.1787
   99loPI   C3B 1583   3.143   8.180   9.263  0.2207  0.3253 -0.1112
   99loPI   C4B 1584   3.214   8.134   8.856  0.4641  0.2519 -0.0784
  100loPI    C1 1585   8.424   0.251  10.733  0.1703 -0.1936  0.0236
  100loPI    C2 1586   8.591   0.494  10.462 -0.0793 -0.2709 -0.2032
  100loPI    C3 1587   8.759   0.452  10.822  0.0481  0.1234 -0.2118
  100loPI   PO4 1588   8.372   0.086  10.644 -0.1805 -0.2222 -0.1829
  100loPI   GL1 1589   8.278   0.076  10.244 -0.2146 -0.1353  0.2585
  100loPI   GL2 1590   8.378  -0.111  10.057 -0.0254  0.1691 -0.2332
  100loPI   C1A 1591   7.979   0.213  10.126 -0.4410  0.1217 -0.0747
  100loPI   C2A 1592   7.804   0.239   9.792  0.1096  0.1673 -0.0285
  100loPI   C3A 1593   7.768   0.257   9.363  0.0698 -0.1663  0.0183
  100loPI   C4A 1594   7.731   0.289   8.963  0.2836  0.0411 -0.1916
  100loPI   C5A 1595   7.745   0.425   8.603  0.0152 -0.0674  0.0861
  100loPI   C6A 1596   7.671   0.659   8.177  0.0760 -0.0160  0.1639
  100loPI   C1B 1597   8.372   0.196   9.800 -0.0448 -0.1362  0.0810
  100loPI   C2B 1598   8.261   0.155   9.466 -0.0037 -0.0446 -0.0556
  100loPI   C3B 1599   8.215   0.157   9.019 -0.2640  0.0294  0.0064
  100loPI   C4B 1600   8.308   0.287   8.650  0.1544  0.0239  0.2182
  101loPI    C1 1601   0.219   2.939  11.284  0.2960 -0.1920 -0.0586
  101loPI    C2 1602  -0.061   2.896  11.567  0.2288 -0.1164 -0.1133
  101loPI    C3 1603   0.317   2.975  11.670  0.1347  0.2786 -0.0549
  101loPI   PO4 1604   0.279   2.694  11.101 -0.1848  0.1974 -0.2698
  101loPI   GL1 1605   0.152   2.649  10.690  0.0126  0.1914 -0.0607
  101loPI   GL2 1606   0.341   2.905  10.685 -0.3091  0.4726  0.0113
  101loPI   C1A 1607  -0.135   2.664  10.477 -0.0126 -0.2092  0.1068
  101loPI   C2A 1608  -0.130   2.631  10.055 -0.2502  0.1658  0.2137
  101loPI   C3A 1609  -0.177   2.606   9.560  0.0134  0.3943  0.1627
  101loPI   C4A 1610  -0.293   2.632   9.104 -0.0551 -0.0292 -0.3685
  101loPI   C5A 1611  -0.237   2.699   8.662  0.1596  0.4142  0.0767
  101loPI   C6A 1612   0.060   2.986   8.504 -0.0990  0.2490 -0.0022
  101loPI   C1B 1613   0.263   2.947  10.276 -0.0012  0.1549  0.0524
  101loPI   C2B 1614   0.306   2.952   9.886 -0.0806 -0.3232 -0.0791
  101loPI   C3B 1615   0.185   2.938   9.483  0.1353 -0.1897  0.1699
  101loPI   C4B 1616   0.083   2.991   9.044 -0.4267 -0.2227  0.1307
  102loPI    C1 1617  10.398  13.521  10.148 -0.2810 -0.1416  0.0029
  102loPI    C2 1618  10.251  13.810   9.913  0.2427 -0.0557 -0.2332
  102loPI    C3 1619  10.249  13.855  10.311 -0.1285  0.0492 -0.2427
  102loPI   PO4 1620  10.520  13.366   9.993  0.0801 -0.1511  0.0502
  102loPI   GL1 1621  10.289  13.267   9.546 -0.1204  0.1290 -0.1333
  102loPI   GL2 1622  10.175  13.602   9.428  0.0914 -0.0861  0.0706
  102loPI   C1A 1623  10.133  13.178   9.147  0.0386 -0.1297 -0.4270
  102loPI   C2A 1624  10.129  13.193   8.740 -0.0775  0.0399 -0.5219
  102loPI   C3A 1625  10.175  13.070   8.387  0.0313  0.0364  0.1343
  102loPI   C4A 1626  10.057  12.944   7.978 -0.2013 -0.1179  0.0730
  102loPI   C5A 1627   9.959  13.103   7.545 -0.1084 -0.0185  0.1461
  102loPI   C6A 1628  10.178  13.358   7.249 -0.2117 -0.0894 -0.3534
  102loPI   C1B 1629  10.197  13.705   9.008 -0.0044 -0.1266 -0.1244
  102loPI   C2B 1630  10.191  13.657   8.581 -0.2138  0.0023  0.0693
  102loPI   C3B 1631  10.141  13.868   8.207 -0.0055  0.0068 -0.3002
  102loPI   C4B 1632  10.261  14.069   7.742  0.2316  0.1352 -0.1090
  103loPI    C1 1633   5.484  10.420  11.251  0.1090 -0.1125  0.1047
  103loPI    C2 1634   5.088  10.363  11.252  0.0897  0.0058 -0.0997
  103loPI    C3 1635   5.335  10.054  11.309 -0.0305 -0.0796 -0.0367
  103loPI   PO4 1636   5.530  10.548  11.014  0.0631 -0.0516 -0.2086
  103loPI   GL1 1637   5.640  10.458  10.562  0.1348  0.1853  0.0134
  103loPI   GL2 1638   5.702  10.232  10.412  0.1728  0.1476 -0.3195
  103loPI   C1A 1639   5.430  10.531  10.157 -0.0809 -0.0827 -0.0553
  103loPI   C2A 1640   5.386  10.507   9.701  0.2932 -0.0629  0.3547
  103loPI   C3A 1641   5.354  10.431   9.260 -0.1934 -0.0662  0.0515
  103loPI   C4A 1642   5.505  10.430   8.872  0.1783  0.1082 -0.0272
  103loPI   C5A 1643   5.612  10.535   8.375  0.0094  0.0281 -0.4200
  103loPI   C6A 1644   5.554  10.373   7.934 -0.0119 -0.0511  0.0545
  103loPI   C1B 1645   5.581  10.103   9.939  0.1068 -0.0996  0.2333
  103loPI   C2B 1646   5.519  10.039   9.520 -0.0473 -0.0371 -0.1090
  103loPI   C3B 1647   5.637   9.833   9.068  0.2403 -0.0057  0.2589
  103loPI   C4B 1648   5.557   9.957   8.656 -0.1834 -0.3561  0.3622
  104loPI    C1 1649   0.117  17.606  11.074 -0.0245  0.1415  0.0639
  104loPI    C2 1650   0.354  17.545  11.391  0.0447  0.1235  0.0088
  104loPI    C3 1651   0.097  17.852  11.389 -0.1788 -0.0586  0.2130
  104loPI   PO4 1652   0.311  17.623  10.840  0.0789  0.0018  0.1111
  104loPI   GL1 1653   0.234  17.658  10.397 -0.0246 -0.1456  0.2157
  104loPI   GL2 1654   0.106  17.398  10.303 -0.1119 -0.1218  0.1873
  104loPI   C1A 1655   0.475  17.831  10.130 -0.1405 -0.4258  0.0354
  104loPI   C2A 1656   0.402  17.821   9.694 -0.3094  0.0395 -0.2253
  104loPI   C3A 1657   0.432  17.756   9.227 -0.1035  0.0134 -0.0923
  104loPI   C4A 1658   0.458  17.685   8.790 -0.0460 -0.0847 -0.0246
  104loPI   C5A 1659   0.421  17.552   8.395  0.1037 -0.1222 -0.2949
  104loPI   C6A 1660   0.444  17.324   8.074 -0.1128 -0.1916 -0.1303
  104loPI   C1B 1661   0.055  17.457   9.898  0.1183 -0.0887 -0.3870
  104loPI   C2B 1662   0.058  17.439   9.506  0.1721  0.0960 -0.1672
  104loPI   C3B 1663   0.120  17.417   9.065 -0.1335  0.3295 -0.0865
  104loPI   C4B 1664   0.072  17.268   8.646 -0.2555  0.1073  0.0129
  105loPI    C1 1665   0.906   4.011  11.385  0.2546  0.0216  0.0292
  105loPI    C2 1666   1.012   4.320  11.616  0.0979  0.1162 -0.0240
  105loPI    C3 1667   0.794   4.021  11.768 -0.0316  0.1936 -0.0563
  105loPI   PO4 1668   0.874   4.108  11.135 -0.0598 -0.1353  0.1736
  105loPI   GL1 1669   1.055   4.015  10.745  0.0268 -0.1874 -0.1503
  105loPI   GL2 1670   1.220   4.323  10.671  0.0556  0.0386 -0.0516
  105loPI   C1A 1671   0.845   4.115  10.416  0.1843  0.0462 -0.4534
  105loPI   C2A 1672   0.908   4.188   9.953 -0.1294 -0.0044  0.0969
  105loPI   C3A 1673   0.835   4.142   9.471 -0.1158 -0.1575 -0.4672
  105loPI   C4A 1674   0.859   4.153   9.078  0.1440  0.1525 -0.3060
  105loPI   C5A 1675   0.832   4.393   8.765  0.1762 -0.0702  0.2838
  105loPI   C6A 1676   1.045   4.792   8.789 -0.2497 -0.1613 -0.0086
  105loPI   C1B 1677   1.255   4.513  10.222  0.0620 -0.1289 -0.0590
  105loPI   C2B 1678   1.197   4.569   9.819 -0.1690  0.0503  0.2022
  105loPI   C3B 1679   1.202   4.536   9.399  0.4666  0.1286 -0.1782
  105loPI   C4B 1680   1.359   4.400   8.953  0.3132  0.2054 -0.1744
  106loPI    C1 1681  15.046  15.313  10.461  0.0311  0.1039  0.1012
  106loPI    C2 1682  14.801  15.476  10.732  0.1263 -0.1042  0.3166
  106loPI    C3 1683  15.198  15.503  10.779  0.1493  0.1712  0.0055
  106loPI   PO4 1684  14.945  15.089  10.395 -0.2435  0.0364  0.0550
  106loPI   GL1 1685  14.895  14.746  10.078  0.1251  0.1416  0.1249
  106loPI   GL2 1686  14.623  14.663   9.866 -0.1313  0.0462 -0.0011
  106loPI   C1A 1687  15.018  14.867   9.629  0.0873 -0.0062  0.1334
  106loPI   C2A 1688  15.096  14.774   9.161  0.1462  0.1075 -0.0844
  106loPI   C3A 1689  15.292  14.749   8.835  0.0165  0.1858 -0.3315
  106loPI   C4A 1690  15.329  14.756   8.474 -0.2851 -0.0361 -0.3222
  106loPI   C5A 1691  15.077  14.928   8.152 -0.2914  0.0027  0.1344
  106loPI   C6A 1692  14.699  14.965   8.065 -0.1498 -0.2110 -0.0166
  106loPI   C1B 1693  14.668  14.511   9.420 -0.0370  0.1734  0.3014
  106loPI   C2B 1694  14.748  14.504   8.978 -0.1983 -0.2190  0.2998
  106loPI   C3B 1695  15.002  14.379   8.648 -0.2560 -0.2386 -0.0646
  106loPI   C4B 1696  15.120  14.026   8.385 -0.0058 -0.0502 -0.3110
  107loPI    C1 1697   3.098   3.997  11.140 -0.2113  0.0669 -0.1573
  107loPI    C2 1698   3.239   4.323  11.326  0.0242 -0.1276  0.0118
  107loPI    C3 1699   3.188   3.982  11.530 -0.2712 -0.1847 -0.1517
  107loPI   PO4 1700   3.228   4.028  10.912 -0.1772  0.2899  0.0585
  107loPI   GL1 1701   3.366   4.032  10.457  0.3305  0.0655  0.2449
  107loPI   GL2 1702   3.159   4.221  10.417  0.0098  0.0395 -0.0891
  107loPI   C1A 1703   3.394   4.192  10.009  0.2391 -0.0862  0.0884
  107loPI   C2A 1704   3.333   4.115   9.615 -0.2877  0.1653  0.0766
  107loPI   C3A 1705   3.243   3.943   9.260 -0.2825  0.1179 -0.0921
  107loPI   C4A 1706   3.423   3.773   8.843 -0.1028  0.4385  0.1978
  107loPI   C5A 1707   3.520   3.822   8.425 -0.1300  0.1318 -0.0573
  107loPI   C6A 1708   3.674   4.141   8.128  0.0331 -0.2108 -0.1195
  107loPI   C1B 1709   2.824   4.212   9.986 -0.1007  0.0730  0.2218
  107loPI   C2B 1710   2.857   4.226   9.562  0.2109 -0.0231 -0.2084
  107loPI   C3B 1711   2.787   4.028   9.248  0.0157  0.1576 -0.0838
  107loPI   C4B 1712   2.996   4.008   8.849  0.2436  0.1163 -0.2337
  108loPI    C1 1713   1.689   5.994  11.233 -0.3404  0.0943  0.0613
  108loPI    C2 1714   1.889   5.990  11.579 -0.2886  0.0873  0.0314
  108loPI    C3 1715   1.572   5.751  11.528 -0.0938 -0.1592 -0.0453
  108loPI   PO4 1716   1.691   6.267  11.126  0.0026  0.2831  0.1904
  108loPI   GL1 1717   1.945   6.286  10.777  0.0235  0.0105 -0.0269
  108loPI   GL2 1718   2.030   6.673  10.710  0.0296 -0.0267 -0.1246
  108loPI   C1A 1719   1.900   6.277  10.388 -0.0447 -0.0715 -0.0883
  108loPI   C2A 1720   1.804   6.338   9.978 -0.1685  0.1444  0.1159
  108loPI   C3A 1721   1.832   6.276   9.525  0.3845 -0.1280  0.1966
  108loPI   C4A 1722   1.779   6.196   9.126  0.0610 -0.0758 -0.0005
  108loPI   C5A 1723   2.034   6.224   8.703  0.2900  0.0238 -0.1376
  108loPI   C6A 1724   2.481   6.367   8.409 -0.0598 -0.2311  0.0767
  108loPI   C1B 1725   2.245   6.671  10.303 -0.0652 -0.0620  0.0493
  108loPI   C2B 1726   2.194   6.637   9.938  0.0564 -0.1570 -0.0272
  108loPI   C3B 1727   2.140   6.683   9.502 -0.0904 -0.1287 -0.2462
  108loPI   C4B 1728   2.134   6.626   9.051 -0.0490 -0.3354 -0.0317
  109loPI    C1 1729   0.694  10.438  10.936 -0.0232  0.1174  0.0019
  109loPI    C2 1730   0.792  10.590  11.293  0.3798 -0.1477  0.0110
  109loPI    C3 1731   0.648  10.217  11.266 -0.0172  0.0070 -0.0704
  109loPI   PO4 1732   0.957  10.544  10.813 -0.0417 -0.1608 -0.1355
  109loPI   GL1 1733   1.134  10.854  10.576 -0.1047 -0.3388 -0.0052
  109loPI   GL2 1734   1.325  11.053  10.626 -0.0193 -0.3453 -0.1907
  109loPI   C1A 1735   1.192  10.789  10.096 -0.1057 -0.1067 -0.0069
  109loPI   C2A 1736   1.192  10.837   9.538  0.1173  0.0710  0.0527
  109loPI   C3A 1737   1.111  10.642   9.104  0.2064 -0.2614 -0.1551
  109loPI   C4A 1738   1.223  10.726   8.727 -0.1331  0.0136  0.3140
  109loPI   C5A 1739   1.254  10.316   8.392  0.2057  0.0191  0.0369
  109loPI   C6A 1740   1.128  10.021   8.077 -0.2853  0.1819 -0.0704
  109loPI   C1B 1741   1.518  11.164  10.199 -0.1099  0.0720 -0.2112
  109loPI   C2B 1742   1.514  11.179   9.728 -0.0108  0.1132 -0.2296
  109loPI   C3B 1743   1.519  11.273   9.243  0.0653 -0.2461 -0.1366
  109loPI   C4B 1744   1.472  11.223   8.784  0.0531  0.0346  0.0926
  110loPI    C1 1745   7.380   3.673  11.251 -0.1158 -0.3558  0.0250
  110loPI    C2 1746   7.396   3.360  11.500 -0.0291 -0.2218  0.1901
  110loPI    C3 1747   7.394   3.732  11.647  0.0558 -0.1403 -0.0113
  110loPI   PO4 1748   7.210   3.572  11.059  0.1471  0.1470 -0.1194
  110loPI   GL1 1749   7.022   3.698  10.629 -0.0168 -0.1581  0.0932
  110loPI   GL2 1750   7.002   3.388  10.672  0.2537 -0.0668 -0.1442
  110loPI   C1A 1751   7.044   3.835  10.263  0.1201 -0.0312 -0.0882
  110loPI   C2A 1752   6.953   3.745   9.879  0.0708  0.3757 -0.0779
  110loPI   C3A 1753   7.047   3.947   9.624 -0.0281  0.1177  0.0723
  110loPI   C4A 1754   7.104   3.859   9.185  0.0499  0.1189  0.1566
  110loPI   C5A 1755   7.292   3.938   8.749  0.1518  0.2834 -0.1598
  110loPI   C6A 1756   7.093   3.587   8.433 -0.0567 -0.1597 -0.1105
  110loPI   C1B 1757   7.100   3.306  10.165  0.0860 -0.0246 -0.0553
  110loPI   C2B 1758   7.166   3.342   9.681  0.0585 -0.0376 -0.0428
  110loPI   C3B 1759   7.163   3.332   9.253 -0.0828 -0.2499 -0.0082
  110loPI   C4B 1760   7.240   3.357   8.858  0.1252 -0.2281  0.0712
  111loPI    C1 1761   9.871   7.696  10.967 -0.0252 -0.0880  0.0513
  111loPI    C2 1762  10.058   7.573  11.298 -0.1272 -0.1117  0.1004
  111loPI    C3 1763   9.701   7.751  11.325 -0.0353  0.0874  0.0206
  111loPI   PO4 1764   9.910   7.498  10.836 -0.3738 -0.4432  0.2289
  111loPI   GL1 1765   9.694   7.540  10.482  0.2797 -0.2219 -0.0080
  111loPI   GL2 1766   9.759   7.845  10.255 -0.3998  0.1632 -0.0566
  111loPI   C1A 1767   9.889   7.406  10.024 -0.0173  0.1295  0.2147
  111loPI   C2A 1768   9.990   7.228   9.558  0.2162 -0.0806  0.0816
  111loPI   C3A 1769   9.973   7.259   9.161  0.1671 -0.0000 -0.2643
  111loPI   C4A 1770  10.206   7.115   8.739  0.0511  0.2322  0.1068
  111loPI   C5A 1771  10.491   6.766   8.548  0.0498 -0.2454 -0.1210
  111loPI   C6A 1772  10.697   6.649   8.137 -0.2381  0.0297 -0.0411
  111loPI   C1B 1773   9.835   7.875   9.881 -0.1043 -0.0500 -0.2991
  111loPI   C2B 1774   9.911   7.781   9.411 -0.1265 -0.0479 -0.0345
  111loPI   C3B 1775   9.913   7.755   9.034 -0.0453  0.1622  0.2875
  111loPI   C4B 1776   9.924   7.531   8.672  0.3216 -0.0273  0.4168
  112loPI    C1 1777   7.615   8.744  11.180 -0.0148 -0.0202  0.1242
  112loPI    C2 1778   7.498   8.369  11.252  0.1803 -0.0897  0.0864
  112loPI    C3 1779   7.256   8.675  11.341 -0.0322 -0.2300 -0.0009
  112loPI   PO4 1780   7.754   8.700  10.948  0.0953 -0.0592  0.1182
  112loPI   GL1 1781   7.627   8.643  10.557  0.1930 -0.0834 -0.1495
  112loPI   GL2 1782   7.659   8.991  10.510 -0.3690  0.2098  0.2009
  112loPI   C1A 1783   7.387   8.724  10.149  0.0294 -0.1231 -0.3245
  112loPI   C2A 1784   7.399   8.594   9.808  0.3228 -0.0718 -0.1540
  112loPI   C3A 1785   7.321   8.536   9.404  0.1785 -0.3216 -0.1191
  112loPI   C4A 1786   7.269   8.486   8.923  0.0525  0.2086  0.0114
  112loPI   C5A 1787   7.054   8.462   8.541  0.0248  0.1605 -0.1559
  112loPI   C6A 1788   6.627   8.557   8.536  0.1700 -0.5627  0.1576
  112loPI   C1B 1789   7.800   8.981  10.109  0.2722 -0.0885  0.0477
  112loPI   C2B 1790   7.780   8.935   9.741  0.1818  0.0815  0.3037
  112loPI   C3B 1791   7.731   8.775   9.384  0.0540  0.1904  0.1837
  112loPI   C4B 1792   7.617   8.806   9.058  0.0098  0.2344  0.2233
  113loPI    C1 1793   4.433   1.361  11.454  0.1113 -0.0133  0.0560
  113loPI    C2 1794   4.096   1.421  11.661 -0.1066  0.0237 -0.3001
  113loPI    C3 1795   4.271   1.727  11.470  0.0977 -0.0079 -0.1672
  113loPI   PO4 1796   4.396   1.253  11.246  0.0798  0.1274 -0.0890
  113loPI   GL1 1797   4.414   1.215  10.783 -0.0583  0.2032  0.0519
  113loPI   GL2 1798   4.310   0.963  10.554  0.0253  0.1570  0.0272
  113loPI   C1A 1799   4.670   1.289  10.450 -0.0850  0.3014  0.1105
  113loPI   C2A 1800   4.800   1.204   9.998 -0.0925 -0.3842  0.3702
  113loPI   C3A 1801   4.836   1.140   9.594  0.0745  0.0541  0.2006
  113loPI   C4A 1802   4.896   1.201   9.141  0.2636  0.1595  0.1148
  113loPI   C5A 1803   4.917   1.233   8.700 -0.3189  0.0054  0.1402
  113loPI   C6A 1804   4.643   1.462   8.367 -0.1060  0.0140 -0.1464
  113loPI   C1B 1805   4.276   1.176  10.254 -0.0637  0.1655 -0.2699
  113loPI   C2B 1806   4.261   1.307   9.754 -0.2166  0.1271 -0.0906
  113loPI   C3B 1807   4.386   1.272   9.372 -0.2485  0.1034  0.1264
  113loPI   C4B 1808   4.409   1.269   8.929 -0.3077  0.2173  0.0999
  114loPI    C1 1809   2.911   3.515  11.392  0.0073 -0.1748  0.1237
  114loPI    C2 1810   2.664   3.825  11.443  0.1395 -0.0990  0.3145
  114loPI    C3 1811   2.577   3.471  11.608 -0.0278 -0.1745  0.0697
  114loPI   PO4 1812   2.877   3.494  11.031  0.1096 -0.2216 -0.1521
  114loPI   GL1 1813   3.161   3.347  10.700 -0.2423 -0.1950 -0.0765
  114loPI   GL2 1814   3.207   3.030  10.644  0.1115 -0.1750 -0.0600
  114loPI   C1A 1815   3.391   3.569  10.440 -0.0637 -0.4894 -0.1531
  114loPI   C2A 1816   3.441   3.412   9.995 -0.0179 -0.3095  0.4331
  114loPI   C3A 1817   3.420   3.333   9.527 -0.0741 -0.1995 -0.2604
  114loPI   C4A 1818   3.448   3.381   9.107 -0.2246  0.1330 -0.2522
  114loPI   C5A 1819   3.276   3.382   8.622  0.0148 -0.2478 -0.1256
  114loPI   C6A 1820   2.799   3.394   8.555  0.0389 -0.0888  0.1058
  114loPI   C1B 1821   3.050   3.068  10.230 -0.1068 -0.0620 -0.0141
  114loPI   C2B 1822   3.071   2.960   9.831  0.0801  0.2823 -0.1040
  114loPI   C3B 1823   3.034   3.025   9.371 -0.1028  0.0848  0.0627
  114loPI   C4B 1824   2.957   2.972   8.964  0.0342  0.2576  0.0966
  115loPI    C1 1825  16.416   3.292  11.590 -0.0533  0.0431  0.0120
  115loPI    C2 1826  16.796   3.328  11.710 -0.0465 -0.1868  0.0644
  115loPI    C3 1827  16.541   3.631  11.762  0.1544  0.0075 -0.0652
  115loPI   PO4 1828  16.445   3.239  11.344 -0.2094 -0.0227  0.1982
  115loPI   GL1 1829  16.370   3.067  10.983  0.1728 -0.4124  0.1556
  115loPI   GL2 1830  16.072   3.082  10.806 -0.2112  0.2623 -0.0082
  115loPI   C1A 1831  16.438   3.277  10.545  0.3423 -0.0193  0.1968
  115loPI   C2A 1832  16.470   3.280  10.090 -0.2506 -0.0879 -0.2034
  115loPI   C3A 1833  16.279   3.379   9.718 -0.1529  0.0434  0.4782
  115loPI   C4A 1834  16.412   3.365   9.271 -0.0731 -0.2347 -0.3579
  115loPI   C5A 1835  16.424   3.356   8.857 -0.1274 -0.3366  0.1292
  115loPI   C6A 1836  16.332   3.459   8.494  0.0667 -0.0747 -0.0368
  115loPI   C1B 1837  16.099   3.003  10.346 -0.2664  0.0762  0.1229
  115loPI   C2B 1838  16.049   3.024   9.884 -0.0011 -0.0805  0.1481
  115loPI   C3B 1839  16.050   3.017   9.401  0.2265  0.1723  0.2109
  115loPI   C4B 1840  16.082   3.091   9.028  0.2284 -0.1514  0.1050
  116loPI    C1 1841  16.719  11.212  10.903  0.1245 -0.0035 -0.2435
  116loPI    C2 1842  17.074  11.051  10.994  0.0803  0.0038 -0.0543
  116loPI    C3 1843  16.737  10.849  11.071  0.0311  0.1225  0.0458
  116loPI   PO4 1844  16.706  11.202  10.564 -0.0935 -0.1455  0.1539
  116loPI   GL1 1845  16.725  10.921  10.200  0.0738 -0.1179  0.1541
  116loPI   GL2 1846  16.453  11.038  10.093 -0.1578  0.3012 -0.0637
  116loPI   C1A 1847  17.042  10.815   9.764 -0.2586 -0.0254 -0.0177
  116loPI   C2A 1848  16.984  10.830   9.341  0.2061  0.1423  0.1046
  116loPI   C3A 1849  17.043  10.883   8.966  0.0453 -0.2312 -0.1899
  116loPI   C4A 1850  17.006  10.709   8.575  0.0398 -0.2606  0.1373
  116loPI   C5A 1851  17.030  10.519   8.129  0.0438  0.0463  0.1916
  116loPI   C6A 1852  16.835  10.074   8.134 -0.0818 -0.1947 -0.3288
  116loPI   C1B 1853  16.534  11.025   9.636 -0.0434 -0.0791 -0.0530
  116loPI   C2B 1854  16.539  11.051   9.169  0.0538  0.1282  0.1517
  116loPI   C3B 1855  16.476  10.938   8.783  0.2203  0.1405 -0.3088
  116loPI   C4B 1856  16.341  10.922   8.378  0.0902 -0.2150  0.1325
  117loPI    C1 1857   8.279   5.766  11.455 -0.2185  0.1332 -0.0515
  117loPI    C2 1858   8.138   5.590  11.785 -0.0521  0.0611 -0.0176
  117loPI    C3 1859   8.531   5.591  11.711 -0.0474  0.4332 -0.0099
  117loPI   PO4 1860   8.171   5.732  11.282 -0.1937 -0.0545 -0.1452
  117loPI   GL1 1861   8.266   5.803  10.923  0.2205  0.2147 -0.1237
  117loPI   GL2 1862   8.316   5.456  10.868  0.5058 -0.1460 -0.1937
  117loPI   C1A 1863   8.177   5.969  10.543 -0.3113  0.2483 -0.1590
  117loPI   C2A 1864   8.061   5.936  10.113 -0.1438 -0.3705 -0.0258
  117loPI   C3A 1865   7.979   5.932   9.711 -0.5666 -0.3104  0.2647
  117loPI   C4A 1866   7.904   6.005   9.286  0.1547  0.1699 -0.0180
  117loPI   C5A 1867   7.931   5.940   8.865  0.4321 -0.3713 -0.0461
  117loPI   C6A 1868   7.954   6.154   8.441 -0.0806 -0.2183 -0.0424
  117loPI   C1B 1869   8.179   5.468  10.371  0.2662  0.2041 -0.1056
  117loPI   C2B 1870   8.076   5.416   9.939  0.0100  0.2193 -0.1917
  117loPI   C3B 1871   8.070   5.435   9.506 -0.0108 -0.0018 -0.1317
  117loPI   C4B 1872   8.087   5.445   9.022 -0.2797 -0.0942 -0.0343
  118loPI    C1 1873  13.797   0.737  11.364  0.0574  0.0199 -0.1689
  118loPI    C2 1874  14.007   0.450  11.182  0.3251  0.2368 -0.2089
  118loPI    C3 1875  14.178   0.674  11.465 -0.0337  0.0236  0.1880
  118loPI   PO4 1876  13.656   0.794  11.069  0.3741 -0.0188 -0.3758
  118loPI   GL1 1877  13.967   0.964  10.734 -0.0198 -0.1630  0.0524
  118loPI   GL2 1878  13.752   0.966  10.614  0.2745  0.1858 -0.1586
  118loPI   C1A 1879  14.141   1.221  10.432 -0.1245 -0.0683 -0.1229
  118loPI   C2A 1880  14.161   1.171  10.042  0.0918 -0.2833 -0.0020
  118loPI   C3A 1881  14.233   1.222   9.623  0.3855 -0.1200 -0.0948
  118loPI   C4A 1882  14.175   1.305   9.197 -0.3379 -0.0617 -0.0556
  118loPI   C5A 1883  14.068   1.306   8.794  0.1388  0.1369  0.3309
  118loPI   C6A 1884  14.242   1.211   8.437 -0.1218 -0.1937 -0.1539
  118loPI   C1B 1885  13.741   0.930  10.141  0.0964 -0.1118  0.0103
  118loPI   C2B 1886  13.786   0.890   9.703  0.0071  0.1917 -0.0571
  118loPI   C3B 1887  13.836   0.958   9.228  0.2196 -0.0022  0.0417
  118loPI   C4B 1888  13.867   0.875   8.831 -0.0363  0.0775 -0.0523
  119loPI    C1 1889   9.753  17.652  10.631 -0.1556  0.1640  0.1896
  119loPI    C2 1890   9.501  17.355  10.722 -0.0318  0.0684  0.2237
  119loPI    C3 1891   9.720  17.527  11.009 -0.0136  0.1103  0.1848
  119loPI   PO4 1892   9.809  17.581  10.392 -0.2334 -0.0734  0.0221
  119loPI   GL1 1893   9.718  17.506  10.035 -0.0096 -0.2568  0.2049
  119loPI   GL2 1894   9.839  17.323   9.806  0.0247  0.1170 -0.3534
  119loPI   C1A 1895   9.727  17.832   9.779  0.1897  0.2190  0.6208
  119loPI   C2A 1896   9.762  17.895   9.361  0.0829  0.0104 -0.3610
  119loPI   C3A 1897   9.778  17.936   8.901  0.1397  0.1301 -0.1045
  119loPI   C4A 1898   9.814  18.092   8.457  0.1236 -0.0278  0.2432
  119loPI   C5A 1899   9.659  17.865   7.999 -0.0286  0.0583  0.1713
  119loPI   C6A 1900   9.774  17.738   7.538  0.0024 -0.1436  0.0500
  119loPI   C1B 1901   9.964  17.445   9.420  0.1890  0.0527  0.1008
  119loPI   C2B 1902   9.904  17.463   9.054  0.2457  0.3177 -0.0816
  119loPI   C3B 1903   9.755  17.489   8.641  0.1660 -0.0023  0.1855
  119loPI   C4B 1904   9.970  17.510   8.187 -0.1250  0.2008 -0.3497
  120loPI    C1 1905  13.905  14.693  10.665  0.0220 -0.0865 -0.0837
  120loPI    C2 1906  13.634  14.987  10.666  0.1301  0.0137  0.0790
  120loPI    C3 1907  13.561  14.647  10.864  0.0025 -0.0731 -0.1142
  120loPI   PO4 1908  13.966  14.658  10.351  0.5065 -0.4049  0.2564
  120loPI   GL1 1909  14.158  14.538   9.945  0.2344 -0.2472 -0.1573
  120loPI   GL2 1910  13.851  14.511   9.840  0.0852  0.0575 -0.0888
  120loPI   C1A 1911  14.228  14.599   9.528  0.1303  0.0015  0.3963
  120loPI   C2A 1912  14.122  14.624   9.125 -0.2436 -0.0086  0.2593
  120loPI   C3A 1913  14.261  14.538   8.665 -0.1984 -0.2314 -0.2768
  120loPI   C4A 1914  14.244  14.528   8.190  0.3799 -0.0338 -0.3803
  120loPI   C5A 1915  14.543  14.457   7.847  0.3433 -0.1047  0.1914
  120loPI   C6A 1916  14.742  14.770   7.586  0.1074 -0.1278  0.0779
  120loPI   C1B 1917  13.809  14.289   9.403  0.0027  0.0220  0.0736
  120loPI   C2B 1918  13.800  14.237   8.927 -0.0752 -0.0974 -0.0708
  120loPI   C3B 1919  13.761  14.373   8.504 -0.2265  0.0098 -0.1229
  120loPI   C4B 1920  13.776  14.601   8.117  0.1686 -0.0956 -0.2080
  121loPI    C1 1921  13.624  17.172  10.625 -0.0982 -0.0290  0.1690
  121loPI    C2 1922  13.600  16.774  10.650  0.0483 -0.0299  0.3072
  121loPI    C3 1923  13.538  16.999  10.975 -0.1093  0.0645  0.2130
  121loPI   PO4 1924  13.519  17.274  10.397 -0.1591  0.0090  0.0468
  121loPI   GL1 1925  13.537  17.346   9.924 -0.1930 -0.1616 -0.0383
  121loPI   GL2 1926  13.215  17.415   9.780 -0.0545  0.0975  0.2593
  121loPI   C1A 1927  13.659  17.430   9.543 -0.0161  0.0944  0.1195
  121loPI   C2A 1928  13.692  17.383   9.062  0.1408  0.1808  0.1074
  121loPI   C3A 1929  13.379  17.215   8.741  0.2920  0.3033 -0.1546
  121loPI   C4A 1930  13.138  17.100   8.372  0.1410 -0.2835 -0.0156
  121loPI   C5A 1931  12.931  17.374   8.094  0.1213  0.0672 -0.0203
  121loPI   C6A 1932  12.682  17.634   7.961 -0.1604  0.2760 -0.0585
  121loPI   C1B 1933  13.152  17.520   9.392 -0.0865  0.1489 -0.1034
  121loPI   C2B 1934  13.131  17.561   8.973 -0.1057  0.2166  0.2007
  121loPI   C3B 1935  13.102  17.602   8.534 -0.0775 -0.0515 -0.2357
  121loPI   C4B 1936  13.392  17.537   8.315  0.0052  0.1668 -0.2283
  122loPI    C1 1937   0.443  17.017  10.770 -0.0694 -0.0088  0.0376
  122loPI    C2 1938   0.635  17.018  11.120 -0.2251 -0.1558  0.1252
  122loPI    C3 1939   0.249  17.121  11.104 -0.2483 -0.2583  0.0146
  122loPI   PO4 1940   0.597  17.119  10.585  0.0151  0.0087  0.1793
  122loPI   GL1 1941   0.635  17.369  10.190  0.3389 -0.0088  0.1738
  122loPI   GL2 1942   0.946  17.610  10.050  0.2108  0.1770  0.2906
  122loPI   C1A 1943   0.497  17.275   9.795 -0.3980 -0.3817 -0.0572
  122loPI   C2A 1944   0.557  17.278   9.404  0.5122 -0.1578  0.0881
  122loPI   C3A 1945   0.590  17.221   8.971  0.3097  0.0397 -0.0813
  122loPI   C4A 1946   0.589  17.102   8.475  0.0119  0.2135 -0.1252
  122loPI   C5A 1947   0.425  16.838   8.214 -0.0904  0.2378  0.1610
  122loPI   C6A 1948  -0.082  16.819   8.207  0.0895  0.0332  0.1106
  122loPI   C1B 1949   0.925  17.664   9.566  0.0688  0.0920 -0.2633
  122loPI   C2B 1950   0.909  17.564   9.130 -0.0338 -0.2934 -0.0544
  122loPI   C3B 1951   0.909  17.535   8.650  0.1180 -0.0676  0.1648
  122loPI   C4B 1952   0.937  17.406   8.313 -0.1044 -0.0691 -0.1909
  123loPI    C1 1953  10.170  17.059  10.445 -0.1629  0.2360 -0.1535
  123loPI    C2 1954   9.969  17.209  10.757  0.1776  0.1163  0.1294
  123loPI    C3 1955  10.367  17.169  10.775  0.1998  0.0846 -0.3144
  123loPI   PO4 1956  10.170  17.187  10.209 -0.0657 -0.1736  0.2137
  123loPI   GL1 1957  10.205  16.944   9.856 -0.1770 -0.0529 -0.0240
  123loPI   GL2 1958  10.358  17.277   9.731 -0.0053  0.0844 -0.1360
  123loPI   C1A 1959  10.036  16.893   9.451 -0.0806 -0.0112 -0.4515
  123loPI   C2A 1960  10.121  16.995   9.076  0.2379  0.2440  0.4139
  123loPI   C3A 1961   9.961  17.048   8.619  0.1258  0.1205 -0.1941
  123loPI   C4A 1962   9.971  17.001   8.166  0.1588 -0.0592  0.3509
  123loPI   C5A 1963   9.634  16.822   8.011 -0.0477  0.0642 -0.0796
  123loPI   C6A 1964   9.240  16.787   7.997 -0.0867 -0.0182  0.0506
  123loPI   C1B 1965  10.499  17.369   9.334  0.0048 -0.1412 -0.0190
  123loPI   C2B 1966  10.401  17.389   8.885  0.0735  0.1115 -0.2547
  123loPI   C3B 1967  10.396  17.372   8.445 -0.1944  0.1076  0.1348
  123loPI   C4B 1968  10.349  17.191   7.997  0.0806 -0.0932  0.1579
  124loPI    C1 1969   9.490   8.585  11.231 -0.0530  0.0488 -0.0546
  124loPI    C2 1970   9.095   8.648  11.221 -0.0567  0.0567  0.1174
  124loPI    C3 1971   9.335   8.909  11.407  0.0183 -0.0018  0.1034
  124loPI   PO4 1972   9.473   8.438  10.908 -0.0160 -0.1237  0.1080
  124loPI   GL1 1973   9.466   8.596  10.437 -0.2267 -0.2275  0.2408
  124loPI   GL2 1974   9.635   8.357  10.410  0.0999  0.2067 -0.1178
  124loPI   C1A 1975   9.238   8.566  10.110 -0.0467  0.1149  0.3768
  124loPI   C2A 1976   9.256   8.463   9.693 -0.0966 -0.1278 -0.0145
  124loPI   C3A 1977   9.242   8.327   9.332 -0.1819 -0.2903  0.0521
  124loPI   C4A 1978   9.238   8.382   8.911  0.0720  0.1448 -0.1027
  124loPI   C5A 1979   9.239   8.190   8.462 -0.0739  0.2395 -0.6249
  124loPI   C6A 1980   9.048   7.880   8.249 -0.1362  0.2994  0.0660
  124loPI   C1B 1981   9.709   8.383   9.952 -0.0657  0.1300 -0.1472
  124loPI   C2B 1982   9.732   8.262   9.535 -0.1482 -0.0394  0.0504
  124loPI   C3B 1983   9.776   8.236   9.137  0.0190  0.1991  0.1801
  124loPI   C4B 1984   9.719   8.304   8.653  0.3517 -0.2197 -0.2389
  125loPI    C1 1985   7.854   3.644  11.433 -0.0691  0.1193 -0.2079
  125loPI    C2 1986   8.185   3.603  11.654 -0.1427 -0.3772 -0.1791
  125loPI    C3 1987   7.916   3.884  11.747  0.2217 -0.0291 -0.1487
  125loPI   PO4 1988   7.866   3.718  11.239 -0.2381  0.1788  0.1009
  125loPI   GL1 1989   7.676   3.790  10.882  0.1720  0.0217  0.1488
  125loPI   GL2 1990   7.885   3.624  10.722  0.1225 -0.2206  0.3322
  125loPI   C1A 1991   7.470   4.095  10.683 -0.2646 -0.0053 -0.0058
  125loPI   C2A 1992   7.444   4.166  10.291 -0.1245 -0.0262 -0.3157
  125loPI   C3A 1993   7.403   4.226   9.847 -0.1104  0.3577  0.0350
  125loPI   C4A 1994   7.444   4.227   9.450 -0.0007 -0.3425  0.2543
  125loPI   C5A 1995   7.452   4.274   9.083  0.1539 -0.0751  0.0254
  125loPI   C6A 1996   7.464   4.482   8.736  0.3661 -0.2220 -0.2009
  125loPI   C1B 1997   8.113   3.642  10.392  0.0390 -0.1087 -0.1287
  125loPI   C2B 1998   8.162   3.624   9.965  0.2658  0.1526  0.0857
  125loPI   C3B 1999   8.103   3.566   9.467  0.3106  0.1254  0.1101
  125loPI   C4B 2000   8.072   3.530   9.043 -0.2009 -0.1466  0.1675
  126loPI    C1 2001   4.658  16.346  10.909  0.2585  0.1604  0.0870
  126loPI    C2 2002   4.907  16.252  11.207  0.1582 -0.2992  0.0325
  126loPI    C3 2003   4.569  16.044  11.155 -0.0637  0.0871 -0.1132
  126loPI   PO4 2004   4.760  16.312  10.719 -0.0416 -0.1389  0.1330
  126loPI   GL1 2005   4.603  16.296  10.313  0.2675 -0.1057  0.2684
  126loPI   GL2 2006   4.333  16.509  10.408  0.0737  0.0880 -0.0143
  126loPI   C1A 2007   4.834  16.315   9.979 -0.2271  0.0983 -0.0308
  126loPI   C2A 2008   4.990  16.438   9.639  0.0956 -0.1689  0.0108
  126loPI   C3A 2009   4.887  16.494   9.274  0.1660 -0.1801  0.0175
  126loPI   C4A 2010   4.813  16.346   8.860 -0.1235 -0.0796 -0.0092
  126loPI   C5A 2011   4.889  16.256   8.472 -0.2518 -0.0380 -0.0417
  126loPI   C6A 2012   5.305  16.206   8.238 -0.3203 -0.0196 -0.1420
  126loPI   C1B 2013   4.417  16.593   9.992 -0.0466 -0.2726  0.0986
  126loPI   C2B 2014   4.466  16.412   9.612  0.0205  0.1474 -0.1447
  126loPI   C3B 2015   4.452  16.662   9.250  0.3029  0.2000 -0.3124
  126loPI   C4B 2016   4.427  16.673   8.797  0.1952 -0.0512 -0.0997
  127loPI    C1 2017   6.445   5.501  11.240  0.0554  0.1467 -0.0240
  127loPI    C2 2018   6.609   5.724  11.528  0.0955 -0.0216  0.0849
  127loPI    C3 2019   6.320   5.463  11.618  0.0607 -0.0260 -0.0389
  127loPI   PO4 2020   6.425   5.728  11.015 -0.1390 -0.0976 -0.2532
  127loPI   GL1 2021   6.720   5.738  10.628 -0.2206  0.1694  0.0830
  127loPI   GL2 2022   6.612   5.966  10.375  0.0666 -0.5955  0.1377
  127loPI   C1A 2023   6.636   5.472  10.292  0.1269 -0.0704 -0.2248
  127loPI   C2A 2024   6.669   5.422   9.815 -0.1971  0.1553  0.3317
  127loPI   C3A 2025   6.650   5.459   9.419  0.0662 -0.1102 -0.0163
  127loPI   C4A 2026   6.627   5.449   8.954 -0.0821  0.2863  0.0376
  127loPI   C5A 2027   6.351   5.417   8.610 -0.0948 -0.3299  0.0837
  127loPI   C6A 2028   6.143   5.689   8.320  0.2801  0.0156 -0.2343
  127loPI   C1B 2029   6.545   5.906   9.938  0.0701  0.3223 -0.1153
  127loPI   C2B 2030   6.619   5.946   9.550 -0.2964 -0.2127  0.0276
  127loPI   C3B 2031   6.571   5.879   9.131  0.0595 -0.2222  0.2311
  127loPI   C4B 2032   6.577   5.913   8.719  0.3425 -0.0994 -0.2309
  128loPI    C1 2033  17.495  16.293  10.648  0.2036  0.2261 -0.1277
  128loPI    C2 2034  17.656  16.135  10.978  0.1057  0.1918 -0.0957
  128loPI    C3 2035  17.381  16.424  11.009 -0.1306 -0.0252 -0.1367
  128loPI   PO4 2036  17.791  16.331  10.490  0.0751  0.0800 -0.0545
  128loPI   GL1 2037  17.811  16.496  10.080  0.0385  0.0357 -0.0064
  128loPI   GL2 2038  18.117  16.487   9.983 -0.1393 -0.1440  0.0328
  128loPI   C1A 2039  17.515  16.570   9.787  0.1648 -0.1581  0.1963
  128loPI   C2A 2040  17.523  16.621   9.355  0.0312 -0.1057 -0.2114
  128loPI   C3A 2041  17.577  16.449   8.970  0.2537  0.1197  0.1243
  128loPI   C4A 2042  17.511  16.412   8.507 -0.0256  0.1156 -0.1521
  128loPI   C5A 2043  17.465  16.322   8.092  0.2792 -0.3473  0.0197
  128loPI   C6A 2044  17.381  16.263   7.717 -0.0703 -0.1171 -0.0960
  128loPI   C1B 2045  18.058  16.458   9.480 -0.1786  0.1682  0.0014
  128loPI   C2B 2046  18.083  16.330   8.958 -0.0122 -0.1976  0.0124
  128loPI   C3B 2047  18.045  16.136   8.585 -0.0333  0.0606  0.3167
  128loPI   C4B 2048  18.076  16.354   8.183  0.0928  0.1868  0.1145
  129loPI    C1 2049   6.802  12.074  10.746  0.0847 -0.0571 -0.0778
  129loPI    C2 2050   6.542  12.280  10.969  0.1218  0.0976 -0.1761
  129loPI    C3 2051   6.435  11.928  10.811  0.0749  0.0163  0.0335
  129loPI   PO4 2052   6.878  12.217  10.558  0.0108  0.1119 -0.3593
  129loPI   GL1 2053   6.676  12.299  10.097  0.0752 -0.0046 -0.1544
  129loPI   GL2 2054   6.891  12.547  10.169 -0.1924 -0.0618  0.0335
  129loPI   C1A 2055   6.673  12.058   9.827  0.0939 -0.0934  0.2036
  129loPI   C2A 2056   6.754  12.093   9.381 -0.0106 -0.2950  0.0538
  129loPI   C3A 2057   6.530  12.105   8.992  0.1077  0.2600 -0.3495
  129loPI   C4A 2058   6.585  12.096   8.569  0.0759  0.2211 -0.1230
  129loPI   C5A 2059   6.322  12.223   8.195 -0.1494 -0.2335  0.1308
  129loPI   C6A 2060   6.054  12.517   7.936  0.0245  0.3512 -0.2348
  129loPI   C1B 2061   7.020  12.472   9.722 -0.2121  0.2858  0.0909
  129loPI   C2B 2062   7.047  12.453   9.296  0.1430  0.0288 -0.1505
  129loPI   C3B 2063   6.910  12.449   8.963 -0.3818  0.2753 -0.2471
  129loPI   C4B 2064   6.847  12.601   8.582 -0.2668 -0.1145  0.0337
  130loPI    C1 2065  16.197   1.305  11.132 -0.1934 -0.1758 -0.1188
  130loPI    C2 2066  16.064   1.212  11.497  0.2393  0.0161  0.0948
  130loPI    C3 2067  16.390   1.032  11.351  0.1125 -0.0045 -0.1697
  130loPI   PO4 2068  16.169   1.534  11.069 -0.1858 -0.0664 -0.0529
  130loPI   GL1 2069  16.381   1.785  10.800  0.2918  0.0175 -0.0225
  130loPI   GL2 2070  16.420   1.992  10.505 -0.0136  0.0355 -0.3136
  130loPI   C1A 2071  16.483   1.508  10.483 -0.2276 -0.0491 -0.2182
  130loPI   C2A 2072  16.489   1.474  10.080  0.0494  0.0264 -0.0667
  130loPI   C3A 2073  16.396   1.483   9.605  0.0914  0.0142  0.0085
  130loPI   C4A 2074  16.444   1.404   9.079  0.0199 -0.2007 -0.2427
  130loPI   C5A 2075  16.292   1.457   8.681  0.2850 -0.1922 -0.0457
  130loPI   C6A 2076  16.158   1.288   8.400  0.0236 -0.1039  0.1143
  130loPI   C1B 2077  16.399   2.015  10.121  0.2362 -0.0383 -0.3085
  130loPI   C2B 2078  16.343   2.102   9.664  0.0810  0.0007  0.2059
  130loPI   C3B 2079  16.301   1.997   9.197 -0.0655 -0.0414 -0.1911
  130loPI   C4B 2080  16.287   1.963   8.726 -0.0527 -0.2843  0.0132
  131loPI    C1 2081   7.247   5.036  11.608  0.2160 -0.0614  0.0620
  131loPI    C2 2082   7.333   4.652  11.682  0.0762 -0.0812  0.1266
  131loPI    C3 2083   7.190   4.885  11.974 -0.0485 -0.0384  0.0328
  131loPI   PO4 2084   7.494   5.046  11.370 -0.1725  0.0840  0.0799
  131loPI   GL1 2085   7.575   4.943  10.928 -0.0925 -0.0169 -0.2482
  131loPI   GL2 2086   7.929   4.885  11.055  0.0431 -0.0330  0.1336
  131loPI   C1A 2087   7.607   5.187  10.576  0.0596  0.0803  0.3986
  131loPI   C2A 2088   7.685   5.113  10.172  0.2737 -0.2037  0.2465
  131loPI   C3A 2089   7.683   5.140   9.708 -0.0272  0.2568  0.0850
  131loPI   C4A 2090   7.667   5.213   9.308  0.0128  0.2926  0.3185
  131loPI   C5A 2091   7.715   5.209   8.904  0.2009 -0.1156 -0.2333
  131loPI   C6A 2092   7.864   5.457   8.582  0.2277  0.1463 -0.1274
  131loPI   C1B 2093   8.076   4.992  10.632  0.2105  0.0077  0.1073
  131loPI   C2B 2094   8.165   4.947  10.199 -0.1280 -0.3479 -0.3277
  131loPI   C3B 2095   8.232   4.953   9.729 -0.2155  0.2582  0.1254
  131loPI   C4B 2096   8.111   4.977   9.301  0.0794 -0.0591  0.0200
  132loPI    C1 2097  15.820  16.373  10.569  0.1841 -0.2818  0.2150
  132loPI    C2 2098  15.740  16.356  10.960  0.2547 -0.0961  0.2387
  132loPI    C3 2099  15.979  16.643  10.818  0.0570 -0.0321  0.0297
  132loPI   PO4 2100  15.813  16.140  10.519 -0.0108  0.0855 -0.1410
  132loPI   GL1 2101  15.824  15.838  10.147 -0.1254  0.2077  0.0450
  132loPI   GL2 2102  15.997  15.657   9.903  0.0460  0.0727 -0.2942
  132loPI   C1A 2103  15.762  16.000   9.672 -0.2365  0.0018 -0.0855
  132loPI   C2A 2104  15.782  16.065   9.206  0.0599  0.2256  0.0245
  132loPI   C3A 2105  15.759  16.036   8.785  0.0774  0.2314  0.3066
  132loPI   C4A 2106  15.801  16.004   8.369 -0.3279 -0.1530 -0.0206
  132loPI   C5A 2107  16.059  16.086   7.997  0.2996 -0.1524  0.1155
  132loPI   C6A 2108  16.074  15.949   7.563 -0.3904  0.1193 -0.0080
  132loPI   C1B 2109  15.986  15.581   9.428 -0.2891  0.0501 -0.3115
  132loPI   C2B 2110  15.904  15.528   8.933 -0.2141  0.1699 -0.0354
  132loPI   C3B 2111  16.016  15.541   8.535 -0.3018 -0.0861 -0.0070
  132loPI   C4B 2112  16.013  15.589   8.094 -0.1864 -0.0982 -0.1567
  133loPI    C1 2113   6.615   1.007  11.013 -0.0044  0.0492  0.0577
  133loPI    C2 2114   6.646   0.824  11.368 -0.0062  0.1011  0.0846
  133loPI    C3 2115   6.653   1.224  11.347  0.0944  0.0960  0.0164
  133loPI   PO4 2116   6.754   0.844  10.878 -0.1928  0.0436 -0.0060
  133loPI   GL1 2117   6.548   0.740  10.472 -0.2364  0.1193  0.0157
  133loPI   GL2 2118   6.254   0.776  10.420 -0.2237 -0.2180  0.0690
  133loPI   C1A 2119   6.768   0.510  10.141 -0.2771  0.0909 -0.4720
  133loPI   C2A 2120   6.881   0.514   9.690  0.2147  0.0789 -0.0829
  133loPI   C3A 2121   6.777   0.596   9.276  0.2034 -0.0223 -0.1232
  133loPI   C4A 2122   6.739   0.574   8.777  0.3507 -0.0691 -0.1145
  133loPI   C5A 2123   6.454   0.347   8.485  0.0276 -0.1416 -0.6133
  133loPI   C6A 2124   6.135   0.411   8.257  0.2347 -0.0274  0.1209
  133loPI   C1B 2125   6.368   0.756   9.993  0.2387 -0.0237 -0.0546
  133loPI   C2B 2126   6.385   0.641   9.638  0.0139 -0.0627 -0.5078
  133loPI   C3B 2127   6.237   0.752   9.139  0.0397  0.0514 -0.0226
  133loPI   C4B 2128   6.238   0.903   8.737 -0.1606 -0.0484 -0.2380
  134loPI    C1 2129  11.507   2.472  11.430 -0.1748  0.1619 -0.1889
  134loPI    C2 2130  11.865   2.294  11.449 -0.2619 -0.0296 -0.3052
  134loPI    C3 2131  11.744   2.533  11.746 -0.0968 -0.0762 -0.1991
  134loPI   PO4 2132  11.469   2.596  11.169 -0.2364  0.0184  0.0377
  134loPI   GL1 2133  11.335   2.780  10.806 -0.1271 -0.4130 -0.0926
  134loPI   GL2 2134  11.611   2.687  10.654  0.0753 -0.0964 -0.1275
  134loPI   C1A 2135  11.385   2.997  10.377 -0.0548  0.0336 -0.1165
  134loPI   C2A 2136  11.450   3.029   9.958 -0.0297 -0.5309 -0.2046
  134loPI   C3A 2137  11.452   3.163   9.537  0.2354  0.1657  0.0345
  134loPI   C4A 2138  11.351   3.146   9.155  0.1594 -0.2034  0.2734
  134loPI   C5A 2139  11.479   3.149   8.805 -0.1427  0.2134  0.0278
  134loPI   C6A 2140  11.400   3.046   8.350 -0.1952 -0.2718  0.0585
  134loPI   C1B 2141  11.885   2.843  10.364  0.1511 -0.1629 -0.0477
  134loPI   C2B 2142  11.956   2.904  10.004 -0.2161  0.0493  0.1551
  134loPI   C3B 2143  12.043   2.916   9.592 -0.0791  0.1307 -0.0154
  134loPI   C4B 2144  11.865   2.986   9.208  0.1328 -0.1429  0.1013
  135loPI    C1 2145   7.791  16.956  10.747 -0.1683 -0.2192 -0.0741
  135loPI    C2 2146   7.893  17.003  11.131  0.0271 -0.1026 -0.1388
  135loPI    C3 2147   7.529  16.868  11.036 -0.1261  0.1460  0.0813
  135loPI   PO4 2148   8.104  17.004  10.598  0.1138  0.2651  0.0862
  135loPI   GL1 2149   8.134  17.181  10.078  0.0085  0.1200 -0.0928
  135loPI   GL2 2150   7.923  17.364   9.982  0.2171  0.2312  0.1078
  135loPI   C1A 2151   8.114  16.965   9.631  0.0259  0.0692  0.1817
  135loPI   C2A 2152   8.023  17.002   9.201  0.0145  0.1415  0.2866
  135loPI   C3A 2153   8.002  17.071   8.748  0.1207 -0.0168  0.3465
  135loPI   C4A 2154   8.207  17.256   8.502 -0.2465  0.0857  0.0931
  135loPI   C5A 2155   8.430  17.321   8.093 -0.2125  0.0850  0.0530
  135loPI   C6A 2156   8.514  17.250   7.645  0.0022  0.2218  0.0181
  135loPI   C1B 2157   7.894  17.515   9.543  0.0332 -0.1410  0.0544
  135loPI   C2B 2158   7.867  17.511   9.116 -0.2168  0.2488 -0.2243
  135loPI   C3B 2159   7.863  17.663   8.657 -0.0181  0.0796 -0.3410
  135loPI   C4B 2160   7.836  17.808   8.256 -0.0398 -0.1296 -0.0141
  136loPI    C1 2161   1.239  16.028  10.797 -0.0969 -0.0788 -0.0207
  136loPI    C2 2162   0.969  16.231  10.584  0.0867 -0.0811 -0.2607
  136loPI    C3 2163   0.856  16.030  10.911 -0.1395  0.2001 -0.1610
  136loPI   PO4 2164   1.367  15.930  10.563  0.0365 -0.0187  0.1424
  136loPI   GL1 2165   1.421  16.206  10.238 -0.2245  0.1071 -0.1049
  136loPI   GL2 2166   1.443  16.526  10.145  0.2738  0.0424  0.0222
  136loPI   C1A 2167   1.215  16.223   9.854  0.1122  0.1408 -0.1107
  136loPI   C2A 2168   1.265  16.249   9.460 -0.0521  0.3051 -0.3353
  136loPI   C3A 2169   1.339  16.274   9.130  0.0598 -0.3338 -0.1591
  136loPI   C4A 2170   1.332  16.215   8.680  0.3905  0.0101  0.1151
  136loPI   C5A 2171   1.427  16.091   8.266  0.4076 -0.2007 -0.0926
  136loPI   C6A 2172   1.800  15.947   8.097  0.1048  0.2635 -0.1552
  136loPI   C1B 2173   1.630  16.543   9.792 -0.0365  0.0811 -0.0354
  136loPI   C2B 2174   1.687  16.552   9.313 -0.2500 -0.0829  0.0999
  136loPI   C3B 2175   1.756  16.400   8.852  0.0959 -0.0999  0.0747
  136loPI   C4B 2176   1.774  16.647   8.427  0.0654 -0.0001 -0.0545
  137loPI    C1 2177   3.930   1.500  11.163 -0.2199  0.1524 -0.0626
  137loPI    C2 2178   3.963   1.109  11.086  0.0271  0.1769 -0.0898
  137loPI    C3 2179   3.652   1.245  11.298 -0.0073 -0.0466  0.0062
  137loPI   PO4 2180   4.062   1.553  10.960  0.0052  0.2035  0.2380
  137loPI   GL1 2181   3.731   1.698  10.678  0.1690  0.0178  0.0461
  137loPI   GL2 2182   3.388   1.951  10.645  0.0813  0.0751 -0.1837
  137loPI   C1A 2183   3.822   1.943  10.346 -0.0927 -0.2151  0.3934
  137loPI   C2A 2184   3.748   2.009   9.919  0.0883 -0.3232 -0.2386
  137loPI   C3A 2185   3.740   1.913   9.496 -0.1847 -0.1774  0.1253
  137loPI   C4A 2186   3.781   1.957   9.133 -0.1026 -0.2062 -0.1107
  137loPI   C5A 2187   3.872   1.942   8.633 -0.0126 -0.0844 -0.0714
  137loPI   C6A 2188   4.090   2.112   8.331  0.0279 -0.0289  0.1057
  137loPI   C1B 2189   3.254   2.036  10.259 -0.0690  0.2806  0.1547
  137loPI   C2B 2190   3.274   2.062   9.746  0.0398  0.3436  0.1140
  137loPI   C3B 2191   3.266   1.998   9.286 -0.1167  0.1121  0.3079
  137loPI   C4B 2192   3.011   2.152   8.859 -0.0736  0.0857 -0.1297
  138loPI    C1 2193  13.798  14.145  10.303 -0.2426  0.1618 -0.0279
  138loPI    C2 2194  13.564  13.860  10.457  0.1752 -0.1434  0.0607
  138loPI    C3 2195  13.690  14.162  10.687  0.1122 -0.1395  0.0905
  138loPI   PO4 2196  13.597  14.140  10.039  0.0103 -0.0201 -0.0309
  138loPI   GL1 2197  13.283  14.275   9.826 -0.0224  0.0570  0.2263
  138loPI   GL2 2198  13.352  14.553   9.695 -0.0012 -0.0536 -0.1773
  138loPI   C1A 2199  13.433  13.901   9.533  0.0832 -0.0557 -0.0761
  138loPI   C2A 2200  13.401  13.869   8.995 -0.1145 -0.1427  0.1182
  138loPI   C3A 2201  13.437  13.940   8.638  0.2157 -0.0233  0.0802
  138loPI   C4A 2202  13.602  13.890   8.310  0.2012  0.0574 -0.0423
  138loPI   C5A 2203  13.781  14.025   7.963  0.1429 -0.0281 -0.0495
  138loPI   C6A 2204  13.817  13.984   7.532 -0.0230  0.1110 -0.2233
  138loPI   C1B 2205  13.334  14.310   9.258  0.0224  0.1260  0.1012
  138loPI   C2B 2206  13.301  14.382   8.825 -0.1101  0.0306  0.1846
  138loPI   C3B 2207  13.323  14.575   8.466 -0.0403  0.1251 -0.2296
  138loPI   C4B 2208  13.238  14.701   8.180  0.1232  0.1600 -0.2305
  139loPI    C1 2209   8.425   4.533  11.520  0.1886 -0.1897  0.1269
  139loPI    C2 2210   8.118   4.467  11.768  0.1122 -0.2876  0.0071
  139loPI    C3 2211   8.458   4.622  11.909 -0.1619  0.2994  0.0544
  139loPI   PO4 2212   8.254   4.601  11.228  0.1432  0.0982 -0.4278
  139loPI   GL1 2213   8.423   4.486  10.863  0.0279  0.1522 -0.1609
  139loPI   GL2 2214   8.651   4.733  10.709  0.2825  0.2193 -0.1925
  139loPI   C1A 2215   8.315   4.497  10.445 -0.2755 -0.2564  0.1585
  139loPI   C2A 2216   8.353   4.478   9.979  0.2003 -0.0250  0.2536
  139loPI   C3A 2217   8.331   4.486   9.532 -0.0832  0.1054  0.1283
  139loPI   C4A 2218   8.316   4.484   9.032 -0.2898  0.0566  0.1631
  139loPI   C5A 2219   7.988   4.306   8.829  0.1308 -0.1215 -0.1219
  139loPI   C6A 2220   7.799   3.967   8.819  0.1623 -0.2633  0.3285
  139loPI   C1B 2221   8.698   4.773  10.231  0.2514  0.1265 -0.2870
  139loPI   C2B 2222   8.701   4.855   9.802 -0.0306 -0.1162 -0.0907
  139loPI   C3B 2223   8.662   4.858   9.374  0.0223 -0.0410  0.2715
  139loPI   C4B 2224   8.633   4.879   8.836 -0.0101  0.0910 -0.3254
  140loPI    C1 2225   0.181  13.347  10.755 -0.0711 -0.0067  0.1273
  140loPI    C2 2226  -0.025  13.429  11.088  0.1910  0.0528  0.2780
  140loPI    C3 2227   0.287  13.180  11.102  0.0796 -0.1051  0.0352
  140loPI   PO4 2228   0.240  13.650  10.602  0.4651 -0.1233 -0.0065
  140loPI   GL1 2229   0.461  13.839  10.297  0.3626  0.0845  0.1687
  140loPI   GL2 2230   0.792  13.848  10.126  0.1304  0.2024 -0.0734
  140loPI   C1A 2231   0.352  13.970   9.885  0.0058 -0.1469 -0.1259
  140loPI   C2A 2232   0.406  13.948   9.482  0.0631  0.3241 -0.1536
  140loPI   C3A 2233   0.348  13.846   9.099 -0.3134 -0.0243  0.0285
  140loPI   C4A 2234   0.353  13.790   8.713  0.1576 -0.0845  0.0583
  140loPI   C5A 2235   0.257  13.629   8.235  0.4032  0.1470 -0.0246
  140loPI   C6A 2236   0.023  13.421   7.924 -0.4892  0.2709  0.0622
  140loPI   C1B 2237   0.867  13.808   9.714  0.0792  0.0787  0.0462
  140loPI   C2B 2238   0.911  13.757   9.239 -0.1068 -0.0749 -0.2050
  140loPI   C3B 2239   0.860  13.727   8.807 -0.1474 -0.0669 -0.0586
  140loPI   C4B 2240   0.746  13.612   8.371 -0.2604 -0.1545  0.0847
  141loPI    C1 2241  13.564  17.671  10.848 -0.0067 -0.0154 -0.1706
  141loPI    C2 2242  13.223  17.467  10.803 -0.2208  0.2348  0.2569
  141loPI    C3 2243  13.408  17.473  11.158  0.1537  0.2227  0.0669
  141loPI   PO4 2244  13.692  17.658  10.637  0.3347  0.1629  0.0610
  141loPI   GL1 2245  13.932  17.885  10.319 -0.1201 -0.3689 -0.0573
  141loPI   GL2 2246  13.882  17.641  10.160  0.1160 -0.3263 -0.0012
  141loPI   C1A 2247  13.864  18.166   9.933  0.1122  0.5215  0.0425
  141loPI   C2A 2248  13.890  18.161   9.473  0.1373 -0.1020  0.1385
  141loPI   C3A 2249  13.966  18.158   9.052  0.0163  0.1130 -0.0282
  141loPI   C4A 2250  13.965  18.175   8.662 -0.2399  0.0283 -0.2807
  141loPI   C5A 2251  13.903  18.493   8.363 -0.1397  0.0507  0.0753
  141loPI   C6A 2252  13.933  18.771   8.049  0.2496 -0.1150  0.2216
  141loPI   C1B 2253  14.001  17.730   9.756 -0.3135  0.4455  0.0677
  141loPI   C2B 2254  14.065  17.712   9.262 -0.1341 -0.0821 -0.1439
  141loPI   C3B 2255  14.022  17.653   8.852  0.3988  0.0235 -0.0517
  141loPI   C4B 2256  14.163  17.697   8.426 -0.0905 -0.1439 -0.0935
  142loPI    C1 2257   6.487   3.970  11.119 -0.1035  0.1715  0.0477
  142loPI    C2 2258   6.613   4.212  11.412  0.1372  0.0310  0.0625
  142loPI    C3 2259   6.515   3.833  11.494  0.0158  0.0472 -0.0058
  142loPI   PO4 2260   6.628   4.030  10.935 -0.1021 -0.1437  0.0763
  142loPI   GL1 2261   6.605   4.001  10.508  0.4388  0.3205  0.0977
  142loPI   GL2 2262   6.504   3.659  10.618  0.2918  0.1256 -0.0653
  142loPI   C1A 2263   6.589   3.982  10.063 -0.4182  0.0765  0.0218
  142loPI   C2A 2264   6.514   4.018   9.731  0.1472 -0.1272 -0.0005
  142loPI   C3A 2265   6.537   4.037   9.299  0.0313 -0.1712  0.2415
  142loPI   C4A 2266   6.703   3.930   8.872 -0.2944  0.0027 -0.0204
  142loPI   C5A 2267   6.733   3.959   8.339 -0.1397 -0.0723 -0.0127
  142loPI   C6A 2268   6.843   3.702   7.974  0.1276 -0.0821  0.1571
  142loPI   C1B 2269   6.625   3.533  10.234  0.0190  0.0028  0.0131
  142loPI   C2B 2270   6.605   3.437   9.752  0.1851  0.1916 -0.0212
  142loPI   C3B 2271   6.698   3.522   9.339  0.2075  0.0387  0.2511
  142loPI   C4B 2272   6.741   3.387   8.895 -0.0388 -0.1931  0.0504
  143loPI    C1 2273  15.493   0.139  10.857 -0.0183  0.0003  0.1072
  143loPI    C2 2274  15.476   0.400  11.160 -0.0526  0.2099 -0.0734
  143loPI    C3 2275  15.267   0.060  11.178  0.1921  0.0716  0.2756
  143loPI   PO4 2276  15.511   0.261  10.656 -0.1719 -0.0725 -0.0364
  143loPI   GL1 2277  15.268   0.463  10.418 -0.1377 -0.1094 -0.1392
  143loPI   GL2 2278  15.393   0.707  10.349 -0.1872  0.2517 -0.2191
  143loPI   C1A 2279  15.175   0.412  10.016 -0.2066  0.1072 -0.0858
  143loPI   C2A 2280  15.166   0.541   9.586 -0.1057 -0.0595  0.0301
  143loPI   C3A 2281  15.218   0.500   9.202  0.1676 -0.0552  0.1154
  143loPI   C4A 2282  15.248   0.597   8.786 -0.1360  0.1073  0.1960
  143loPI   C5A 2283  15.006   0.721   8.496  0.0474 -0.0456 -0.0881
  143loPI   C6A 2284  14.803   1.093   8.324 -0.2979 -0.2776  0.0144
  143loPI   C1B 2285  15.695   0.774  10.010 -0.2461 -0.1160  0.2752
  143loPI   C2B 2286  15.586   0.844   9.585 -0.3483 -0.0468 -0.2773
  143loPI   C3B 2287  15.659   0.834   9.106  0.0444 -0.2151  0.1998
  143loPI   C4B 2288  15.719   0.890   8.622  0.0649  0.0805 -0.3005
  144loPI    C1 2289   8.853   6.140  11.652 -0.1093 -0.0632  0.0649
  144loPI    C2 2290   9.070   6.455  11.533 -0.0438 -0.1281  0.0115
  144loPI    C3 2291   9.243   6.159  11.740 -0.1677  0.0086  0.3169
  144loPI   PO4 2292   8.731   6.030  11.445 -0.2441 -0.0321  0.0716
  144loPI   GL1 2293   8.742   6.083  11.010  0.1363  0.5008 -0.0588
  144loPI   GL2 2294   8.494   6.251  10.810 -0.1049  0.1025  0.0377
  144loPI   C1A 2295   8.631   5.780  10.643 -0.2136  0.2434 -0.1154
  144loPI   C2A 2296   8.560   5.805  10.219  0.0187  0.0039 -0.0210
  144loPI   C3A 2297   8.467   5.823   9.760 -0.0542 -0.0822 -0.1289
  144loPI   C4A 2298   8.412   5.772   9.329 -0.0588 -0.1848  0.1723
  144loPI   C5A 2299   8.534   5.732   8.993 -0.0397 -0.4186 -0.0730
  144loPI   C6A 2300   8.591   5.353   8.642  0.3651  0.0914  0.2042
  144loPI   C1B 2301   8.437   6.299  10.344  0.1968 -0.0871  0.0890
  144loPI   C2B 2302   8.279   6.327   9.936  0.1998 -0.0737  0.2938
  144loPI   C3B 2303   8.319   6.249   9.493  0.0801 -0.0501  0.0637
  144loPI   C4B 2304   8.243   6.301   9.032 -0.0596  0.2953  0.0515
  145loPI    C1 2305   8.967   9.161  11.173  0.0653  0.2982 -0.1231
  145loPI    C2 2306   8.618   9.352  11.212 -0.0983 -0.0127 -0.0223
  145loPI    C3 2307   8.884   9.358  11.511 -0.1746 -0.0832  0.0472
  145loPI   PO4 2308   9.022   9.078  10.876 -0.0715 -0.2861 -0.0874
  145loPI   GL1 2309   8.612   8.978  10.510  0.0423 -0.1240  0.0502
  145loPI   GL2 2310   8.787   9.210  10.353  0.1788  0.3543  0.1363
  145loPI   C1A 2311   8.726   8.729  10.167  0.1497  0.0283  0.0552
  145loPI   C2A 2312   8.748   8.548   9.863  0.3079 -0.0504  0.3174
  145loPI   C3A 2313   8.807   8.478   9.411  0.2319 -0.1373 -0.1569
  145loPI   C4A 2314   8.656   8.618   9.100  0.3716 -0.0186  0.0039
  145loPI   C5A 2315   8.439   8.599   8.745 -0.0444  0.1172  0.1040
  145loPI   C6A 2316   8.152   8.613   8.360  0.0360  0.3487  0.0940
  145loPI   C1B 2317   8.768   9.129   9.849 -0.1388  0.1138 -0.0173
  145loPI   C2B 2318   8.663   9.024   9.424  0.0306 -0.1242  0.2719
  145loPI   C3B 2319   8.575   9.061   8.946 -0.0688 -0.0815 -0.0552
  145loPI   C4B 2320   8.483   9.031   8.469 -0.2557 -0.1571 -0.2141
  146loPI    C1 2321   5.174  11.441  10.876  0.0702  0.3072 -0.0004
  146loPI    C2 2322   5.379  11.256  11.166  0.1317  0.1077 -0.1687
  146loPI    C3 2323   5.108  11.535  11.259 -0.1371 -0.2365  0.1067
  146loPI   PO4 2324   5.373  11.473  10.714  0.1654 -0.0667  0.2582
  146loPI   GL1 2325   5.497  11.460  10.346 -0.1367  0.3840 -0.1015
  146loPI   GL2 2326   5.258  11.169  10.320 -0.1029  0.0166  0.4311
  146loPI   C1A 2327   5.435  11.589  10.000  0.1155  0.2236 -0.1240
  146loPI   C2A 2328   5.276  11.455   9.637 -0.1981 -0.1222  0.0173
  146loPI   C3A 2329   5.329  11.454   9.157  0.3428 -0.2889  0.0846
  146loPI   C4A 2330   5.191  11.416   8.764  0.3030 -0.1161  0.0207
  146loPI   C5A 2331   5.177  11.257   8.340 -0.1908  0.4185  0.1609
  146loPI   C6A 2332   5.220  11.182   7.874 -0.0120 -0.0101 -0.1403
  146loPI   C1B 2333   5.311  10.971   9.934 -0.0139  0.0822 -0.1817
  146loPI   C2B 2334   5.359  10.948   9.474  0.0393 -0.3279  0.0570
  146loPI   C3B 2335   5.440  10.936   8.983  0.0023  0.0575  0.0871
  146loPI   C4B 2336   5.460  10.974   8.588 -0.0486 -0.1242  0.0554
  147loPI    C1 2337   3.369   6.704  11.420 -0.2710  0.0742  0.1124
  147loPI    C2 2338   3.706   6.598  11.608 -0.0383  0.3816 -0.1201
  147loPI    C3 2339   3.353   6.465  11.740  0.1694  0.0734  0.1407
  147loPI   PO4 2340   3.341   6.635  11.170  0.3635 -0.0266  0.0305
  147loPI   GL1 2341   3.657   6.562  10.856 -0.0597 -0.0873 -0.1132
  147loPI   GL2 2342   3.727   6.278  10.681 -0.0309 -0.0948  0.2838
  147loPI   C1A 2343   3.674   6.748  10.480 -0.0302  0.0114  0.0152
  147loPI   C2A 2344   3.586   6.688  10.030 -0.0506  0.0031  0.1123
  147loPI   C3A 2345   3.569   6.694   9.606  0.1269  0.0952  0.0229
  147loPI   C4A 2346   3.532   6.602   9.116 -0.0456  0.0914  0.1529
  147loPI   C5A 2347   3.642   6.704   8.716 -0.1528  0.0783 -0.1635
  147loPI   C6A 2348   3.947   6.860   8.429  0.1950 -0.1961 -0.1653
  147loPI   C1B 2349   3.727   6.274  10.274 -0.1759  0.0567 -0.2077
  147loPI   C2B 2350   3.669   6.277   9.782  0.0242 -0.2837 -0.1235
  147loPI   C3B 2351   3.726   6.170   9.376  0.0980 -0.0624 -0.0510
  147loPI   C4B 2352   3.779   6.144   8.942 -0.4484  0.0120  0.0285
  148loPI    C1 2353  10.045   1.715  10.803  0.0897 -0.1056  0.0119
  148loPI    C2 2354  10.133   1.452  11.092  0.0901 -0.1475 -0.0263
  148loPI    C3 2355  10.254   1.832  11.124  0.0044 -0.1285  0.0761
  148loPI   PO4 2356  10.100   1.576  10.605  0.4081 -0.1100  0.2568
  148loPI   GL1 2357   9.882   1.463  10.204  0.0875 -0.1356  0.0801
  148loPI   GL2 2358   9.539   1.366  10.252 -0.1747 -0.1574 -0.1881
  148loPI   C1A 2359   9.685   1.551   9.749  0.0755 -0.0422  0.2578
  148loPI   C2A 2360   9.774   1.470   9.395  0.0438 -0.2137 -0.0413
  148loPI   C3A 2361   9.851   1.741   9.128 -0.2851 -0.0308  0.0702
  148loPI   C4A 2362  10.044   1.822   8.711  0.2029 -0.1812  0.0374
  148loPI   C5A 2363  10.264   1.679   8.283  0.1368  0.0259 -0.0145
  148loPI   C6A 2364  10.333   1.585   7.824 -0.0664  0.1359 -0.3178
  148loPI   C1B 2365   9.529   1.094   9.927 -0.1336 -0.0291  0.1340
  148loPI   C2B 2366   9.473   1.092   9.535 -0.2744  0.0424 -0.2921
  148loPI   C3B 2367   9.431   1.250   9.106 -0.0226 -0.2319  0.0399
  148loPI   C4B 2368   9.619   1.228   8.707  0.0355  0.0923  0.1292
  149loPI    C1 2369  16.436  16.419  10.653 -0.3233  0.2738 -0.1175
  149loPI    C2 2370  16.225  16.152  10.863  0.0747 -0.0452 -0.1119
  149loPI    C3 2371  16.494  16.383  11.047  0.0508  0.0443 -0.1890
  149loPI   PO4 2372  16.258  16.434  10.432 -0.2760 -0.0714 -0.0587
  149loPI   GL1 2373  16.129  16.397  10.081  0.4267 -0.1026  0.3950
  149loPI   GL2 2374  15.925  16.668  10.144 -0.0955 -0.4491  0.0056
  149loPI   C1A 2375  16.049  16.458   9.683  0.0919  0.1086 -0.1882
  149loPI   C2A 2376  16.058  16.543   9.259 -0.3589 -0.2512 -0.0232
  149loPI   C3A 2377  16.202  16.572   8.851 -0.1659 -0.0140  0.0442
  149loPI   C4A 2378  16.210  16.371   8.429  0.2948  0.2676 -0.1052
  149loPI   C5A 2379  16.387  16.446   8.056  0.1925  0.1195  0.0117
  149loPI   C6A 2380  16.503  16.263   7.656  0.0839 -0.0705 -0.2433
  149loPI   C1B 2381  15.866  16.915   9.759  0.1271 -0.1566  0.1064
  149loPI   C2B 2382  15.940  16.974   9.412 -0.0975  0.0428  0.2179
  149loPI   C3B 2383  16.046  17.072   8.995 -0.0937  0.1554  0.2845
  149loPI   C4B 2384  16.110  16.907   8.452 -0.0652 -0.0718  0.2392
  150loPI    C1 2385  11.192  17.010  10.577 -0.3236 -0.0264 -0.0940
  150loPI    C2 2386  10.838  16.857  10.681 -0.3452  0.1928  0.1665
  150loPI    C3 2387  11.127  16.896  10.955 -0.1016 -0.0250 -0.0539
  150loPI   PO4 2388  11.132  17.062  10.322 -0.0107  0.3652 -0.0027
  150loPI   GL1 2389  11.413  17.215  10.010 -0.3881  0.0068 -0.1966
  150loPI   GL2 2390  11.684  17.269   9.924  0.2294 -0.0728  0.0582
  150loPI   C1A 2391  11.434  17.000   9.626 -0.1533  0.3304  0.1691
  150loPI   C2A 2392  11.436  17.026   9.206  0.1542  0.1563  0.1149
  150loPI   C3A 2393  11.404  17.092   8.843  0.0766  0.0560  0.0123
  150loPI   C4A 2394  11.457  16.864   8.462  0.0497  0.0031  0.0158
  150loPI   C5A 2395  11.602  16.592   8.159  0.0580 -0.1089 -0.0493
  150loPI   C6A 2396  11.613  16.205   7.926 -0.3166 -0.3084 -0.0319
  150loPI   C1B 2397  11.773  17.353   9.507  0.2448  0.2740 -0.2587
  150loPI   C2B 2398  11.891  17.389   9.202 -0.1277 -0.0203  0.1587
  150loPI   C3B 2399  11.749  17.390   8.799 -0.1794  0.2253  0.1603
  150loPI   C4B 2400  11.770  17.388   8.320  0.1624  0.2401  0.0287
  151loPI    C1 2401   6.989   5.385  11.304  0.1051  0.0776  0.1110
  151loPI    C2 2402   7.365   5.509  11.244 -0.0465  0.4356 -0.1342
  151loPI    C3 2403   7.122   5.718  11.483 -0.1010  0.2212  0.0004
  151loPI   PO4 2404   6.864   5.401  10.976  0.1526 -0.2607 -0.0837
  151loPI   GL1 2405   6.830   5.174  10.660  0.2473  0.2950  0.0970
  151loPI   GL2 2406   6.969   4.760  10.616 -0.4732  0.0974 -0.2375
  151loPI   C1A 2407   7.147   5.239  10.407  0.0683 -0.1580 -0.1874
  151loPI   C2A 2408   7.226   5.204  10.026  0.2380  0.2634 -0.2483
  151loPI   C3A 2409   7.210   5.294   9.542  0.0200  0.2435 -0.0348
  151loPI   C4A 2410   7.142   5.356   9.129  0.3216  0.1730 -0.1413
  151loPI   C5A 2411   7.048   5.676   8.762  0.1483 -0.0469  0.0354
  151loPI   C6A 2412   7.089   5.895   8.421 -0.2088 -0.1797  0.1295
  151loPI   C1B 2413   6.800   4.911  10.208  0.1883 -0.2749 -0.1824
  151loPI   C2B 2414   6.742   4.952   9.865 -0.0698 -0.0621  0.0670
  151loPI   C3B 2415   6.862   4.926   9.429  0.0546 -0.2945  0.0735
  151loPI   C4B 2416   6.855   4.937   8.989 -0.2294  0.1086 -0.1271
  152loPI    C1 2417   0.361  11.631  11.308 -0.0386 -0.2164 -0.1478
  152loPI    C2 2418   0.428  11.421  11.642 -0.0715  0.0544  0.0322
  152loPI    C3 2419   0.060  11.557  11.561 -0.0693 -0.0327 -0.1291
  152loPI   PO4 2420   0.548  11.489  11.118  0.1417  0.1429  0.0290
  152loPI   GL1 2421   0.604  11.582  10.653 -0.1583  0.0445  0.0200
  152loPI   GL2 2422   0.760  11.876  10.550  0.0800  0.0256 -0.0544
  152loPI   C1A 2423   0.644  11.513  10.110 -0.3395  0.0379  0.0324
  152loPI   C2A 2424   0.600  11.508   9.746  0.0343 -0.1132 -0.2680
  152loPI   C3A 2425   0.579  11.504   9.325 -0.2272  0.0378 -0.1039
  152loPI   C4A 2426   0.570  11.299   8.951 -0.0153 -0.2074 -0.1606
  152loPI   C5A 2427   0.571  11.437   8.541  0.0276 -0.1007  0.1788
  152loPI   C6A 2428   0.870  11.389   8.178  0.1966 -0.0291  0.2367
  152loPI   C1B 2429   1.073  11.881  10.171 -0.0306 -0.2053 -0.0861
  152loPI   C2B 2430   1.066  11.811   9.666  0.0185  0.0718 -0.0046
  152loPI   C3B 2431   0.983  11.808   9.223  0.2899  0.0242 -0.3534
  152loPI   C4B 2432   0.914  11.655   8.838 -0.2122 -0.2078 -0.0383
  153loPI    C1 2433  17.711  12.565  11.290  0.1756  0.0636 -0.0413
  153loPI    C2 2434  17.664  12.226  11.082 -0.0192  0.1368 -0.1189
  153loPI    C3 2435  17.405  12.321  11.372  0.0242  0.2284 -0.1096
  153loPI   PO4 2436  17.847  12.687  11.093 -0.0376 -0.0188 -0.0668
  153loPI   GL1 2437  17.883  12.826  10.647  0.1967 -0.0303 -0.1099
  153loPI   GL2 2438  17.549  12.605  10.599 -0.2102  0.2669  0.0352
  153loPI   C1A 2439  17.797  13.052  10.301 -0.1319 -0.2623 -0.2297
  153loPI   C2A 2440  17.853  13.051   9.881  0.2639 -0.3207 -0.0036
  153loPI   C3A 2441  17.777  13.032   9.392  0.1952  0.0402 -0.0610
  153loPI   C4A 2442  17.905  12.945   8.947 -0.0551  0.2944 -0.0758
  153loPI   C5A 2443  17.765  12.887   8.575 -0.3094  0.1609 -0.0651
  153loPI   C6A 2444  17.439  12.863   8.487  0.0475  0.4018 -0.1389
  153loPI   C1B 2445  17.452  12.732  10.162 -0.0410 -0.1448  0.0819
  153loPI   C2B 2446  17.480  12.716   9.671 -0.1188  0.2821 -0.0899
  153loPI   C3B 2447  17.420  12.669   9.225  0.1058 -0.3692  0.1128
  153loPI   C4B 2448  17.558  12.580   8.858 -0.3901  0.0953 -0.0288
  154loPI    C1 2449   6.028   0.163  11.303  0.0279  0.1140 -0.0742
  154loPI    C2 2450   5.690   0.287  11.477  0.0872 -0.1400  0.2306
  154loPI    C3 2451   5.827  -0.083  11.546  0.4207 -0.0449  0.0991
  154loPI   PO4 2452   5.994   0.266  11.070  0.2834 -0.1515 -0.0530
  154loPI   GL1 2453   5.676   0.248  10.754  0.2258 -0.1252 -0.0924
  154loPI   GL2 2454   5.890   0.497  10.662  0.3311  0.0244  0.2752
  154loPI   C1A 2455   5.509   0.219  10.456 -0.1978  0.0560  0.2233
  154loPI   C2A 2456   5.514   0.475  10.068 -0.2256 -0.0852 -0.1336
  154loPI   C3A 2457   5.435   0.498   9.598 -0.0178 -0.1417 -0.4404
  154loPI   C4A 2458   5.527   0.542   9.156 -0.2140 -0.0047  0.1432
  154loPI   C5A 2459   5.487   0.584   8.706 -0.2389  0.2085  0.3352
  154loPI   C6A 2460   5.787   0.757   8.542  0.2390  0.0762  0.2188
  154loPI   C1B 2461   5.975   0.387  10.222 -0.2803  0.0320  0.1064
  154loPI   C2B 2462   5.942   0.344   9.738 -0.0878  0.0460 -0.3528
  154loPI   C3B 2463   5.948   0.254   9.427 -0.2328 -0.0139  0.2868
  154loPI   C4B 2464   5.947   0.394   8.914  0.0985 -0.1639  0.0648
  155loPI    C1 2465   4.766  11.757  10.951 -0.2819  0.0473 -0.6491
  155loPI    C2 2466   4.413  11.649  11.106 -0.0132  0.1625  0.0829
  155loPI    C3 2467   4.685  11.370  11.014 -0.1107  0.1023 -0.0257
  155loPI   PO4 2468   4.672  11.894  10.726 -0.3040  0.1726  0.2168
  155loPI   GL1 2469   4.499  12.003  10.427 -0.2471  0.1595 -0.0136
  155loPI   GL2 2470   4.300  12.006  10.252 -0.2584  0.1625  0.0622
  155loPI   C1A 2471   4.498  11.541  10.178  0.2771 -0.2370 -0.3356
  155loPI   C2A 2472   4.351  11.329   9.715 -0.2115  0.2550 -0.0306
  155loPI   C3A 2473   4.362  11.216   9.247  0.1873 -0.0485 -0.1636
  155loPI   C4A 2474   4.356  11.056   8.841  0.1303 -0.0780 -0.3131
  155loPI   C5A 2475   4.138  11.099   8.351  0.1488 -0.0330 -0.3088
  155loPI   C6A 2476   3.824  10.953   8.061 -0.3190  0.0753 -0.0107
  155loPI   C1B 2477   4.373  11.897   9.820 -0.0712  0.0318 -0.0061
  155loPI   C2B 2478   4.252  11.762   9.448  0.0740 -0.0238  0.3483
  155loPI   C3B 2479   4.133  11.833   9.031  0.1592 -0.0742  0.0896
  155loPI   C4B 2480   4.161  11.936   8.532 -0.0702  0.0583 -0.1143
  156loPI    C1 2481  11.377  11.870  10.817 -0.0716 -0.1915 -0.1226
  156loPI    C2 2482  10.978  11.837  10.829 -0.0797 -0.0822 -0.0822
  156loPI    C3 2483  11.197  11.745  11.151 -0.0847  0.0193 -0.0494
  156loPI   PO4 2484  11.449  11.779  10.625 -0.0014  0.0054  0.1550
  156loPI   GL1 2485  11.353  11.540  10.274  0.1120  0.1268  0.3326
  156loPI   GL2 2486  11.286  11.267  10.360 -0.2064  0.0273 -0.1250
  156loPI   C1A 2487  11.269  11.690   9.857  0.0475  0.5022 -0.1475
  156loPI   C2A 2488  11.200  11.752   9.408  0.2138  0.1478  0.2760
  156loPI   C3A 2489  11.194  11.786   8.976 -0.0568  0.1142  0.2431
  156loPI   C4A 2490  11.080  11.728   8.623  0.0381  0.0464 -0.3079
  156loPI   C5A 2491  11.121  12.015   8.327  0.3165 -0.2178 -0.0610
  156loPI   C6A 2492  10.851  12.201   8.072  0.2796 -0.0670  0.1045
  156loPI   C1B 2493  11.344  11.222   9.887  0.0198  0.1453  0.0926
  156loPI   C2B 2494  11.336  11.228   9.476 -0.0794  0.0678  0.2368
  156loPI   C3B 2495  11.182  11.330   9.088  0.1160  0.0224  0.0736
  156loPI   C4B 2496  10.913  11.173   8.683 -0.2432  0.2262 -0.2167
  157loPI    C1 2497   3.322  17.670  11.236 -0.0568  0.1277 -0.0703
  157loPI    C2 2498   3.011  17.613  11.480  0.3236  0.0730  0.4179
  157loPI    C3 2499   3.162  17.980  11.431  0.0746  0.1295  0.0367
  157loPI   PO4 2500   3.334  17.611  10.940 -0.0402  0.1380  0.1010
  157loPI   GL1 2501   3.199  17.860  10.612  0.0075  0.0678  0.0288
  157loPI   GL2 2502   3.101  18.159  10.790 -0.0639  0.4307 -0.2657
  157loPI   C1A 2503   3.046  17.868  10.240 -0.0190  0.0475 -0.0717
  157loPI   C2A 2504   3.217  17.930   9.766  0.2071  0.1167 -0.2466
  157loPI   C3A 2505   3.286  17.960   9.426  0.0910  0.2021  0.3274
  157loPI   C4A 2506   3.345  17.995   8.950  0.0039  0.0005  0.1644
  157loPI   C5A 2507   3.031  18.177   8.594  0.1066  0.3128  0.0478
  157loPI   C6A 2508   3.081  18.317   8.183  0.1221 -0.4280 -0.0965
  157loPI   C1B 2509   3.044  18.374  10.362 -0.3658  0.2778 -0.1839
  157loPI   C2B 2510   3.054  18.362   9.857  0.2782  0.0658 -0.0672
  157loPI   C3B 2511   3.114  18.408   9.349 -0.2458  0.1966  0.0996
  157loPI   C4B 2512   3.183  18.483   9.009  0.0255  0.0371  0.2408
  158loPI    C1 2513  10.609   2.369  11.175 -0.1308 -0.0601  0.1401
  158loPI    C2 2514  10.265   2.410  11.375 -0.1674  0.0654  0.0528
  158loPI    C3 2515  10.612   2.486  11.558 -0.1853 -0.0638  0.1418
  158loPI   PO4 2516  10.564   2.152  10.986  0.0088  0.0726 -0.0718
  158loPI   GL1 2517  10.693   2.209  10.579 -0.0229  0.1073 -0.1491
  158loPI   GL2 2518  10.421   2.025  10.490 -0.0230 -0.0291  0.3759
  158loPI   C1A 2519  10.734   2.323  10.177 -0.3148 -0.3940 -0.1785
  158loPI   C2A 2520  10.742   2.429   9.770 -0.1257 -0.2359 -0.2207
  158loPI   C3A 2521  10.633   2.476   9.382 -0.0220  0.0014  0.1873
  158loPI   C4A 2522  10.755   2.426   9.037 -0.2358 -0.0750 -0.1085
  158loPI   C5A 2523  10.658   2.489   8.621  0.1641 -0.2073  0.2364
  158loPI   C6A 2524  10.425   2.727   8.353  0.2145 -0.0579 -0.4338
  158loPI   C1B 2525  10.413   1.956  10.122  0.3272  0.1223  0.1041
  158loPI   C2B 2526  10.381   2.081   9.709 -0.1319 -0.1059  0.0048
  158loPI   C3B 2527  10.292   2.145   9.293 -0.1547  0.2911  0.1653
  158loPI   C4B 2528  10.390   2.113   8.856 -0.2709  0.1197 -0.0146
  159loPI    C1 2529   1.789   8.948  11.063  0.1149 -0.0103 -0.1424
  159loPI    C2 2530   1.917   8.702  11.351 -0.1237  0.1953  0.1459
  159loPI    C3 2531   2.029   9.086  11.351 -0.0159  0.1661 -0.1159
  159loPI   PO4 2532   1.851   8.826  10.853 -0.0688  0.5127 -0.0611
  159loPI   GL1 2533   1.932   8.947  10.467 -0.0967 -0.2715  0.0263
  159loPI   GL2 2534   2.086   9.370  10.411 -0.1417 -0.0523 -0.2517
  159loPI   C1A 2535   1.636   9.065  10.191  0.2742  0.0053  0.1043
  159loPI   C2A 2536   1.628   9.190   9.807 -0.0107  0.1624  0.2679
  159loPI   C3A 2537   1.618   9.168   9.338 -0.0560  0.3496 -0.1081
  159loPI   C4A 2538   1.491   9.116   8.917 -0.2167 -0.2451  0.1564
  159loPI   C5A 2539   1.559   8.855   8.565  0.2000  0.1356  0.1296
  159loPI   C6A 2540   1.567   8.575   8.244 -0.0888 -0.2131 -0.0838
  159loPI   C1B 2541   2.112   9.205   9.962  0.1763  0.0406 -0.2033
  159loPI   C2B 2542   2.074   8.991   9.612  0.1692 -0.1403  0.1365
  159loPI   C3B 2543   2.020   9.038   9.184  0.2647  0.0837  0.2694
  159loPI   C4B 2544   1.983   8.979   8.720 -0.2053  0.0000 -0.1939
  160loPI    C1 2545   2.558   1.700  11.565  0.0126 -0.2208  0.0908
  160loPI    C2 2546   2.843   1.434  11.476  0.0582 -0.0457 -0.3089
  160loPI    C3 2547   2.924   1.826  11.464 -0.0967 -0.0029 -0.0421
  160loPI   PO4 2548   2.320   1.597  11.412  0.0805 -0.0387  0.0030
  160loPI   GL1 2549   2.139   1.681  11.048 -0.1911  0.2270 -0.1223
  160loPI   GL2 2550   2.067   1.417  10.840 -0.1311 -0.1422  0.1032
  160loPI   C1A 2551   2.401   1.823  10.660  0.3793  0.1256  0.1648
  160loPI   C2A 2552   2.342   1.905  10.161 -0.1414 -0.2937 -0.1715
  160loPI   C3A 2553   2.329   1.829   9.732 -0.0325  0.0701 -0.0017
  160loPI   C4A 2554   2.291   1.769   9.245  0.1483  0.1111 -0.1061
  160loPI   C5A 2555   2.462   1.730   8.833 -0.2332  0.0856  0.0273
  160loPI   C6A 2556   2.631   1.998   8.614  0.1349  0.2192 -0.4060
  160loPI   C1B 2557   2.002   1.521  10.379 -0.0338  0.1576 -0.0816
  160loPI   C2B 2558   1.926   1.449   9.886 -0.0047 -0.0350  0.1099
  160loPI   C3B 2559   1.901   1.472   9.426 -0.1305  0.0515 -0.1835
  160loPI   C4B 2560   2.013   1.433   9.005 -0.2748 -0.2152 -0.1115
  161loPI    C1 2561   5.902  14.997  10.930 -0.1618 -0.1603 -0.0732
  161loPI    C2 2562   6.005  15.139  11.289  0.1001 -0.4353 -0.0358
  161loPI    C3 2563   5.645  14.975  11.236 -0.0658 -0.0956  0.0130
  161loPI   PO4 2564   6.084  15.202  10.786 -0.1912  0.0984 -0.0247
  161loPI   GL1 2565   6.119  15.304  10.416  0.0883  0.1304  0.0407
  161loPI   GL2 2566   5.948  15.041  10.215  0.1048 -0.1112 -0.1105
  161loPI   C1A 2567   6.187  15.437   9.981  0.2070 -0.0133 -0.0165
  161loPI   C2A 2568   6.141  15.534   9.578  0.1421 -0.2987 -0.1424
  161loPI   C3A 2569   6.016  15.609   9.189  0.0403 -0.3109  0.0884
  161loPI   C4A 2570   6.088  15.729   8.731  0.1418 -0.0055 -0.0697
  161loPI   C5A 2571   6.248  16.138   8.519  0.2450 -0.4633 -0.3798
  161loPI   C6A 2572   6.087  16.438   8.242  0.0704  0.0696 -0.0549
  161loPI   C1B 2573   5.762  15.159   9.849 -0.0947  0.0032  0.2970
  161loPI   C2B 2574   5.730  15.135   9.414 -0.1196 -0.0903 -0.1945
  161loPI   C3B 2575   5.663  15.246   9.025 -0.0737 -0.0138  0.1792
  161loPI   C4B 2576   5.687  15.292   8.614 -0.0761  0.3070  0.2328
  162loPI    C1 2577  12.255   5.955  11.656 -0.0334 -0.1491 -0.0754
  162loPI    C2 2578  12.497   6.031  11.966  0.0795 -0.0844 -0.1783
  162loPI    C3 2579  12.129   5.887  12.029  0.0820 -0.0196 -0.0118
  162loPI   PO4 2580  12.426   5.984  11.439 -0.1731  0.0611 -0.2173
  162loPI   GL1 2581  12.294   6.172  11.085  0.1624  0.0533 -0.3240
  162loPI   GL2 2582  12.544   6.070  10.944  0.0973 -0.1610  0.0437
  162loPI   C1A 2583  12.146   6.215  10.654 -0.2740  0.2017 -0.0140
  162loPI   C2A 2584  12.040   6.162  10.258  0.0859 -0.1455 -0.0035
  162loPI   C3A 2585  12.181   6.050   9.745  0.0529 -0.0044  0.0081
  162loPI   C4A 2586  12.166   6.093   9.367  0.0232  0.0324 -0.4149
  162loPI   C5A 2587  11.943   6.240   8.972 -0.0660  0.1260 -0.0093
  162loPI   C6A 2588  11.819   6.206   8.590 -0.0331 -0.0621 -0.0063
  162loPI   C1B 2589  12.581   6.043  10.484 -0.0346 -0.0006 -0.0545
  162loPI   C2B 2590  12.602   6.048  10.053  0.2653 -0.2722  0.1313
  162loPI   C3B 2591  12.697   5.932   9.603 -0.3499 -0.2303  0.1130
  162loPI   C4B 2592  12.672   5.996   9.259 -0.0447 -0.0823  0.4143
  163loPI    C1 2593   1.076   3.193  11.328 -0.1997 -0.0262 -0.1992
  163loPI    C2 2594   1.023   3.527  11.541 -0.0554 -0.0074 -0.1920
  163loPI    C3 2595   0.777   3.216  11.593  0.2134 -0.1499  0.2942
  163loPI   PO4 2596   1.090   3.263  11.124  0.0818  0.0716  0.1820
  163loPI   GL1 2597   1.199   3.064  10.810  0.0717  0.3110 -0.2762
  163loPI   GL2 2598   0.843   3.207  10.694  0.0475 -0.1105  0.3475
  163loPI   C1A 2599   1.173   3.036  10.336  0.0023 -0.0523 -0.2049
  163loPI   C2A 2600   1.141   3.173   9.934  0.0994  0.2292  0.0305
  163loPI   C3A 2601   1.045   3.203   9.595 -0.2604  0.0874 -0.2244
  163loPI   C4A 2602   1.005   3.155   9.132  0.2210 -0.4810 -0.0797
  163loPI   C5A 2603   1.192   3.358   8.766 -0.2300  0.0733  0.0655
  163loPI   C6A 2604   1.508   3.700   8.421  0.0798 -0.1717 -0.1985
  163loPI   C1B 2605   0.621   3.270  10.316 -0.2422 -0.1613  0.1332
  163loPI   C2B 2606   0.639   3.352   9.857 -0.3485  0.1226 -0.1919
  163loPI   C3B 2607   0.565   3.298   9.424 -0.0000 -0.1617 -0.0111
  163loPI   C4B 2608   0.564   3.387   8.990  0.2272  0.0612  0.2299
  164loPI    C1 2609   3.840  16.063  11.326  0.0270 -0.0759  0.0007
  164loPI    C2 2610   3.712  16.050  11.705 -0.1823  0.0819 -0.0627
  164loPI    C3 2611   3.902  15.735  11.547  0.0630  0.0800  0.2256
  164loPI   PO4 2612   3.742  16.219  11.123  0.0047  0.0691 -0.0109
  164loPI   GL1 2613   3.754  16.137  10.729 -0.1433 -0.0867 -0.1206
  164loPI   GL2 2614   3.734  16.453  10.602 -0.4536  0.1042  0.2012
  164loPI   C1A 2615   3.634  15.825  10.369  0.0196 -0.1265 -0.1590
  164loPI   C2A 2616   3.761  15.731  10.000  0.1201  0.0708  0.1094
  164loPI   C3A 2617   3.686  15.886   9.603  0.1089 -0.3029  0.0391
  164loPI   C4A 2618   3.724  15.856   9.129 -0.0515 -0.1637 -0.2902
  164loPI   C5A 2619   3.809  15.935   8.668  0.0312  0.2503 -0.0079
  164loPI   C6A 2620   4.119  15.795   8.441  0.0005 -0.0476 -0.2230
  164loPI   C1B 2621   3.542  16.363  10.106 -0.2533 -0.1931 -0.1902
  164loPI   C2B 2622   3.563  16.413   9.682 -0.0550 -0.2045  0.1219
  164loPI   C3B 2623   3.595  16.420   9.163  0.2080  0.2485 -0.0744
  164loPI   C4B 2624   3.626  16.555   8.719  0.1651 -0.2530 -0.0914
  165loPI    C1 2625  10.480  16.579  10.492  0.0329 -0.0078  0.0256
  165loPI    C2 2626  10.147  16.457  10.679  0.1958  0.0439  0.3564
  165loPI    C3 2627  10.490  16.258  10.730  0.1584 -0.1885 -0.2191
  165loPI   PO4 2628  10.452  16.561  10.145  0.1146  0.2027 -0.0036
  165loPI   GL1 2629  10.693  16.814   9.803 -0.0528  0.0209  0.1939
  165loPI   GL2 2630  10.943  17.009   9.810 -0.0787  0.0151 -0.2226
  165loPI   C1A 2631  10.531  16.804   9.517 -0.2208 -0.0413  0.1565
  165loPI   C2A 2632  10.582  16.849   9.202 -0.0319 -0.1116  0.1642
  165loPI   C3A 2633  10.545  16.852   8.832 -0.0509 -0.1981  0.3502
  165loPI   C4A 2634  10.401  16.898   8.413  0.1852  0.1516  0.0872
  165loPI   C5A 2635  10.234  16.602   8.028  0.1066 -0.0516  0.1323
  165loPI   C6A 2636   9.841  16.339   7.924 -0.0133 -0.3424 -0.3911
  165loPI   C1B 2637  10.961  17.134   9.475  0.3217 -0.1950 -0.1538
  165loPI   C2B 2638  10.896  17.277   9.039  0.1679 -0.0678 -0.1982
  165loPI   C3B 2639  10.852  17.300   8.605 -0.1828 -0.1874  0.1536
  165loPI   C4B 2640  10.866  17.226   8.203  0.2564 -0.4895  0.3396
  166loPI    C1 2641   9.157   4.314  11.441  0.0746 -0.0714  0.0865
  166loPI    C2 2642   8.973   4.043  11.671 -0.1524 -0.0959 -0.1195
  166loPI    C3 2643   8.874   4.429  11.699  0.0303 -0.0584  0.0324
  166loPI   PO4 2644   9.148   4.245  11.253  0.0693  0.1499 -0.1876
  166loPI   GL1 2645   8.965   4.354  10.892 -0.0709 -0.0917 -0.2711
  166loPI   GL2 2646   9.235   4.166  10.737 -0.2990 -0.1013  0.3190
  166loPI   C1A 2647   8.843   4.345  10.393  0.1251  0.0774  0.1389
  166loPI   C2A 2648   8.852   4.325   9.982 -0.0347  0.2057  0.0184
  166loPI   C3A 2649   8.867   4.361   9.508 -0.1851 -0.5668 -0.1709
  166loPI   C4A 2650   8.771   4.345   9.176 -0.3174 -0.0969  0.0194
  166loPI   C5A 2651   8.854   4.379   8.767 -0.0319  0.0476 -0.2540
  166loPI   C6A 2652   8.860   4.635   8.478  0.1838  0.0409  0.1371
  166loPI   C1B 2653   9.329   4.120  10.346  0.1046  0.1023 -0.1716
  166loPI   C2B 2654   9.370   4.140   9.916 -0.3316  0.2238  0.1500
  166loPI   C3B 2655   9.351   4.174   9.448  0.1090  0.0529 -0.0767
  166loPI   C4B 2656   9.236   4.099   9.047 -0.1233  0.0729 -0.1166
  167loPI    C1 2657  17.115   7.546  11.181  0.1117  0.1142 -0.1052
  167loPI    C2 2658  17.224   7.204  11.358 -0.1781  0.1062  0.0628
  167loPI    C3 2659  17.259   7.551  11.554 -0.1785  0.1370  0.0084
  167loPI   PO4 2660  17.078   7.484  10.934 -0.0901 -0.2182  0.2132
  167loPI   GL1 2661  17.104   7.608  10.574 -0.0757 -0.0080  0.1680
  167loPI   GL2 2662  17.357   7.537  10.506 -0.4012  0.2822 -0.0913
  167loPI   C1A 2663  16.936   7.638  10.142  0.1277 -0.2042  0.2328
  167loPI   C2A 2664  16.932   7.513   9.770  0.1373  0.1852 -0.3857
  167loPI   C3A 2665  16.861   7.505   9.355  0.0092 -0.0331 -0.3384
  167loPI   C4A 2666  16.899   7.631   8.904 -0.1536  0.2949  0.3005
  167loPI   C5A 2667  17.069   7.931   8.500 -0.2509  0.3970  0.2387
  167loPI   C6A 2668  16.854   8.284   8.285  0.0001  0.2033 -0.2495
  167loPI   C1B 2669  17.404   7.440  10.059 -0.0929  0.0798  0.0289
  167loPI   C2B 2670  17.382   7.420   9.665 -0.2182  0.2531 -0.3264
  167loPI   C3B 2671  17.388   7.330   9.326 -0.0389  0.0337  0.2212
  167loPI   C4B 2672  17.388   7.464   8.937  0.2355  0.1077 -0.0315
  168loPI    C1 2673  16.960  10.361  11.015 -0.0236 -0.3303  0.2334
  168loPI    C2 2674  17.258  10.234  11.249  0.3474  0.0114 -0.0393
  168loPI    C3 2675  17.087  10.589  11.317  0.0351 -0.1570  0.0794
  168loPI   PO4 2676  17.081  10.233  10.710  0.0859  0.1913  0.0621
  168loPI   GL1 2677  16.944  10.272  10.352 -0.1055 -0.0453 -0.0295
  168loPI   GL2 2678  16.675  10.058  10.273  0.2619 -0.0332  0.1714
  168loPI   C1A 2679  17.137  10.359   9.953  0.0484 -0.0233  0.3649
  168loPI   C2A 2680  17.133  10.354   9.518  0.0230 -0.0107 -0.1002
  168loPI   C3A 2681  17.150  10.402   9.098 -0.1971  0.1329  0.1742
  168loPI   C4A 2682  17.179  10.251   8.613 -0.1780  0.2119 -0.2302
  168loPI   C5A 2683  17.500  10.041   8.368  0.0785 -0.0856 -0.0491
  168loPI   C6A 2684  17.936   9.887   8.287  0.2670 -0.1722 -0.2448
  168loPI   C1B 2685  16.812  10.046   9.853  0.1449 -0.1274  0.0051
  168loPI   C2B 2686  16.772   9.933   9.394 -0.0075 -0.4462  0.0208
  168loPI   C3B 2687  16.820   9.926   8.919  0.0348  0.0475  0.1489
  168loPI   C4B 2688  16.811   9.773   8.511  0.1775 -0.2320 -0.0898
  169loPI    C1 2689  11.457   0.884  10.911  0.0744 -0.0328  0.0877
  169loPI    C2 2690  11.658   1.227  10.955  0.2198 -0.1062  0.0035
  169loPI    C3 2691  11.439   1.083  11.258  0.1078  0.0915  0.0185
  169loPI   PO4 2692  11.279   0.915  10.697  0.0219  0.1028  0.2866
  169loPI   GL1 2693  11.203   0.973  10.270 -0.2137 -0.3125 -0.2354
  169loPI   GL2 2694  11.023   0.727  10.166  0.1454 -0.1302 -0.1180
  169loPI   C1A 2695  11.296   1.163   9.853  0.0354  0.0784  0.5370
  169loPI   C2A 2696  11.419   1.204   9.394 -0.0596 -0.3753 -0.1200
  169loPI   C3A 2697  11.505   1.190   8.965 -0.0980 -0.0965 -0.2627
  169loPI   C4A 2698  11.454   1.311   8.577  0.0007 -0.2556  0.1939
  169loPI   C5A 2699  11.320   1.161   8.105  0.0910 -0.1627 -0.0152
  169loPI   C6A 2700  11.330   1.217   7.789 -0.2595 -0.1368  0.1614
  169loPI   C1B 2701  10.950   0.814   9.714  0.0576  0.1003 -0.1934
  169loPI   C2B 2702  10.967   0.860   9.308  0.3192 -0.0308  0.1715
  169loPI   C3B 2703  10.995   0.890   8.885 -0.0185 -0.0125 -0.1174
  169loPI   C4B 2704  11.029   1.051   8.534  0.0289  0.2830 -0.1286
  170loPI    C1 2705   4.007   7.428  11.296 -0.0444 -0.0538 -0.1668
  170loPI    C2 2706   3.800   7.665  11.543 -0.1929  0.0554 -0.3919
  170loPI    C3 2707   4.195   7.717  11.499 -0.1548 -0.0043 -0.1344
  170loPI   PO4 2708   3.769   7.447  11.054  0.0540  0.0095 -0.0072
  170loPI   GL1 2709   3.629   7.417  10.613  0.1758 -0.0388  0.0641
  170loPI   GL2 2710   3.826   7.097  10.743  0.1461  0.0343 -0.0919
  170loPI   C1A 2711   3.520   7.278  10.184  0.0604  0.0210  0.0965
  170loPI   C2A 2712   3.494   7.245   9.760 -0.1203  0.0890 -0.0936
  170loPI   C3A 2713   3.387   7.120   9.419 -0.1298  0.1392  0.3885
  170loPI   C4A 2714   3.358   7.140   8.984 -0.0920  0.0982  0.2638
  170loPI   C5A 2715   3.083   7.152   8.560  0.0268  0.1795 -0.0572
  170loPI   C6A 2716   3.098   7.297   8.264 -0.3718 -0.1313  0.1555
  170loPI   C1B 2717   3.986   7.205  10.375 -0.0381 -0.2759  0.0684
  170loPI   C2B 2718   3.994   7.047   9.904 -0.0401 -0.2443  0.4113
  170loPI   C3B 2719   3.954   7.018   9.436 -0.0742 -0.2619  0.3103
  170loPI   C4B 2720   3.932   7.015   9.016  0.0295  0.1924 -0.2629
  171loPI    C1 2721  14.167  17.738  11.024 -0.1177  0.0168 -0.1719
  171loPI    C2 2722  13.825  17.740  11.232 -0.0129  0.1744  0.0016
  171loPI    C3 2723  13.953  17.402  11.060 -0.2820  0.1268 -0.1102
  171loPI   PO4 2724  14.118  17.869  10.822 -0.0953  0.0552 -0.0150
  171loPI   GL1 2725  14.257  18.226  10.741  0.0443 -0.0808  0.1086
  171loPI   GL2 2726  14.551  18.198  10.657  0.2323 -0.1376  0.0054
  171loPI   C1A 2727  14.123  18.423  10.346  0.3189 -0.1510  0.0678
  171loPI   C2A 2728  14.248  18.443   9.930 -0.2809  0.2945 -0.0633
  171loPI   C3A 2729  14.241  18.499   9.444 -0.4662  0.0162 -0.2062
  171loPI   C4A 2730  14.284  18.557   9.025 -0.3424 -0.0894  0.1627
  171loPI   C5A 2731  14.410  18.523   8.537  0.0355  0.1313  0.1390
  171loPI   C6A 2732  14.579  18.170   8.265  0.0051 -0.2735 -0.2040
  171loPI   C1B 2733  14.692  18.363  10.186 -0.0544  0.3304  0.2694
  171loPI   C2B 2734  14.725  18.333   9.853  0.2832  0.0437 -0.2499
  171loPI   C3B 2735  14.752  18.355   9.361 -0.0964 -0.0444 -0.2053
  171loPI   C4B 2736  14.794  18.412   8.967 -0.3504  0.0153 -0.1962
  172loPI    C1 2737  14.822  12.709  10.901  0.0109  0.0647  0.3792
  172loPI    C2 2738  14.571  12.585  11.187 -0.1146  0.2637  0.3572
  172loPI    C3 2739  14.499  12.926  10.991 -0.0307  0.1288  0.0858
  172loPI   PO4 2740  14.851  12.446  10.696  0.1081  0.1800  0.0069
  172loPI   GL1 2741  14.651  12.362  10.364  0.4022 -0.2483  0.0175
  172loPI   GL2 2742  14.529  12.082  10.389  0.1538 -0.0821 -0.0997
  172loPI   C1A 2743  14.713  12.579   9.960 -0.0685 -0.2178  0.0935
  172loPI   C2A 2744  14.620  12.582   9.493  0.3270  0.0847 -0.0026
  172loPI   C3A 2745  14.734  12.548   9.074  0.1568  0.0830  0.0780
  172loPI   C4A 2746  14.840  12.316   8.698  0.1551 -0.0847 -0.1391
  172loPI   C5A 2747  14.915  12.132   8.323 -0.0702  0.0679  0.0500
  172loPI   C6A 2748  15.234  11.750   8.357 -0.0065  0.1521 -0.2004
  172loPI   C1B 2749  14.741  12.080   9.966  0.2536 -0.1935  0.0067
  172loPI   C2B 2750  14.837  11.963   9.479  0.1971  0.1075 -0.1150
  172loPI   C3B 2751  14.876  11.847   9.066  0.0711  0.0537  0.1502
  172loPI   C4B 2752  14.836  11.783   8.708  0.0655  0.0172 -0.0217
  173loPI    C1 2753  10.296   3.243  11.573 -0.2650  0.1185  0.2266
  173loPI    C2 2754  10.090   2.902  11.540  0.0758 -0.0720  0.0213
  173loPI    C3 2755   9.904   3.236  11.656 -0.3535 -0.2314 -0.1837
  173loPI   PO4 2756  10.397   3.385  11.290  0.2655 -0.0448  0.0151
  173loPI   GL1 2757  10.190   3.495  10.959 -0.1359 -0.5569 -0.4451
  173loPI   GL2 2758  10.212   3.758  10.796  0.0147  0.0034 -0.0411
  173loPI   C1A 2759  10.376   3.329  10.490 -0.1369  0.1160  0.0021
  173loPI   C2A 2760  10.469   3.342  10.027  0.0077 -0.2215 -0.0550
  173loPI   C3A 2761  10.531   3.430   9.675 -0.2500  0.0212 -0.1945
  173loPI   C4A 2762  10.443   3.399   9.346  0.0496 -0.2218  0.4164
  173loPI   C5A 2763  10.323   3.477   8.977 -0.2082  0.0094  0.0402
  173loPI   C6A 2764   9.843   3.498   8.820  0.2929  0.0583  0.0567
  173loPI   C1B 2765  10.336   3.866  10.341 -0.5213 -0.2849 -0.0585
  173loPI   C2B 2766  10.399   3.881   9.919  0.0005 -0.0867 -0.1687
  173loPI   C3B 2767  10.342   3.862   9.479  0.0434 -0.0962 -0.1325
  173loPI   C4B 2768  10.200   3.957   9.097  0.1260  0.3149  0.1448
  174loPI    C1 2769  16.256  13.696  11.035  0.1844 -0.3416  0.0253
  174loPI    C2 2770  16.069  13.546  11.355 -0.0349 -0.3226 -0.0918
  174loPI    C3 2771  16.468  13.541  11.336  0.0007  0.0754  0.3798
  174loPI   PO4 2772  16.118  13.613  10.863  0.1820  0.1374 -0.0142
  174loPI   GL1 2773  15.959  13.627  10.559 -0.0380 -0.2309 -0.1456
  174loPI   GL2 2774  15.886  13.908  10.287 -0.0308 -0.3165 -0.1475
  174loPI   C1A 2775  15.874  13.375  10.202 -0.4289  0.0155  0.0493
  174loPI   C2A 2776  15.868  13.133   9.939  0.1661  0.0334 -0.1611
  174loPI   C3A 2777  16.004  13.168   9.526 -0.2390  0.2283  0.0798
  174loPI   C4A 2778  15.942  13.103   9.143 -0.1496  0.0200  0.0993
  174loPI   C5A 2779  16.063  13.070   8.733  0.0060  0.0988  0.0342
  174loPI   C6A 2780  16.265  13.155   8.361  0.0307  0.0622 -0.0926
  174loPI   C1B 2781  15.798  13.712   9.892 -0.4172  0.0087  0.1033
  174loPI   C2B 2782  15.879  13.630   9.483  0.0944 -0.0753 -0.3999
  174loPI   C3B 2783  15.822  13.606   8.989  0.1626  0.0338  0.0759
  174loPI   C4B 2784  15.864  13.505   8.504 -0.3073 -0.1674  0.0072
  175loPI    C1 2785   7.091  11.628  10.717  0.0310  0.1347  0.0371
  175loPI    C2 2786   7.148  11.699  10.328 -0.0893 -0.2157 -0.0482
  175loPI    C3 2787   7.429  11.509  10.540  0.1330  0.2888  0.1255
  175loPI   PO4 2788   6.835  11.516  10.688 -0.4115  0.2186 -0.2568
  175loPI   GL1 2789   6.789  11.372  10.242  0.0003  0.0209  0.0304
  175loPI   GL2 2790   6.451  11.256  10.188  0.0389  0.0857  0.2751
  175loPI   C1A 2791   6.839  11.603   9.964  0.0566 -0.1434  0.3544
  175loPI   C2A 2792   6.788  11.639   9.558 -0.1511  0.1244  0.1137
  175loPI   C3A 2793   6.711  11.658   9.124 -0.2596  0.1131  0.4359
  175loPI   C4A 2794   6.793  11.512   8.708 -0.0379 -0.0879  0.0923
  175loPI   C5A 2795   7.006  11.530   8.376  0.2549  0.1495  0.1127
  175loPI   C6A 2796   7.382  11.277   8.256  0.1515  0.1253  0.3090
  175loPI   C1B 2797   6.444  11.287   9.749 -0.0072 -0.0620 -0.3359
  175loPI   C2B 2798   6.323  11.300   9.221 -0.1740  0.2920  0.1331
  175loPI   C3B 2799   6.393  11.244   8.783  0.0928 -0.2092  0.0090
  175loPI   C4B 2800   6.509  11.382   8.358  0.0503 -0.0444 -0.0269
  176loPI    C1 2801   3.690  12.108  10.880 -0.1420 -0.0561 -0.1679
  176loPI    C2 2802   3.478  11.840  11.088  0.2495 -0.1111  0.1727
  176loPI    C3 2803   3.564  12.195  11.249  0.1968  0.0119 -0.0654
  176loPI   PO4 2804   3.692  12.057  10.599 -0.1097 -0.0242 -0.0133
  176loPI   GL1 2805   3.876  12.273  10.212  0.2651  0.1904  0.1615
  176loPI   GL2 2806   4.139  12.578  10.233  0.0379 -0.2126  0.0474
  176loPI   C1A 2807   3.791  12.462   9.862  0.0318 -0.0791  0.3466
  176loPI   C2A 2808   3.646  12.615   9.418 -0.0043  0.0710 -0.0015
  176loPI   C3A 2809   3.564  12.555   9.019 -0.2658 -0.1196  0.1571
  176loPI   C4A 2810   3.432  12.527   8.625 -0.3818 -0.4200  0.2053
  176loPI   C5A 2811   3.486  12.274   8.319 -0.1113  0.2149  0.0286
  176loPI   C6A 2812   3.953  12.260   8.119 -0.0043  0.1214 -0.0247
  176loPI   C1B 2813   4.218  12.353   9.867 -0.0437 -0.1752 -0.3987
  176loPI   C2B 2814   4.245  12.275   9.406 -0.0099  0.1791 -0.1013
  176loPI   C3B 2815   4.129  12.378   9.040  0.0839  0.2923 -0.0000
  176loPI   C4B 2816   3.936  12.455   8.611 -0.0120 -0.1627 -0.0507
  177loPI    C1 2817   4.043  10.336  11.202  0.0224 -0.0832 -0.2458
  177loPI    C2 2818   4.385  10.138  11.138  0.0696 -0.1321  0.1348
  177loPI    C3 2819   4.330  10.337  11.480 -0.1630  0.1322 -0.0515
  177loPI   PO4 2820   4.037  10.522  10.953  0.0161  0.0382  0.4940
  177loPI   GL1 2821   4.319  10.526  10.591  0.2634 -0.0966  0.0356
  177loPI   GL2 2822   4.582  10.614  10.572  0.2724 -0.0592 -0.1273
  177loPI   C1A 2823   4.269  10.522  10.157 -0.1271  0.4046 -0.0330
  177loPI   C2A 2824   4.090  10.418   9.770  0.2938 -0.0187  0.0811
  177loPI   C3A 2825   4.045  10.423   9.330 -0.0093  0.0258 -0.0088
  177loPI   C4A 2826   3.992  10.343   8.890  0.1057 -0.0755  0.0708
  177loPI   C5A 2827   4.107  10.625   8.614  0.1773  0.1362  0.0731
  177loPI   C6A 2828   4.557  10.728   8.494 -0.0898  0.1142 -0.1423
  177loPI   C1B 2829   4.706  10.321  10.243 -0.0658  0.0759  0.1571
  177loPI   C2B 2830   4.557  10.347   9.724  0.0492 -0.0264 -0.1289
  177loPI   C3B 2831   4.538  10.239   9.370 -0.1796 -0.0114  0.1563
  177loPI   C4B 2832   4.587   9.998   9.041 -0.0183 -0.0726  0.1837
  178loPI    C1 2833  14.341  15.981  10.349 -0.0969  0.0087  0.0011
  178loPI    C2 2834  13.968  15.946  10.489 -0.0835  0.1178  0.0648
  178loPI    C3 2835  14.257  15.704  10.624 -0.1009  0.1287  0.1217
  178loPI   PO4 2836  14.418  15.995  10.135  0.1343 -0.5371  0.2811
  178loPI   GL1 2837  14.412  15.636   9.795  0.1545 -0.1616  0.1108
  178loPI   GL2 2838  14.842  15.823   9.851 -0.2040  0.0443 -0.0661
  178loPI   C1A 2839  14.506  15.583   9.369 -0.0394  0.0845 -0.3266
  178loPI   C2A 2840  14.544  15.501   8.919 -0.0269  0.2222  0.0913
  178loPI   C3A 2841  14.595  15.405   8.429  0.3735  0.2198  0.0673
  178loPI   C4A 2842  14.629  15.446   7.986  0.0281 -0.1534 -0.0094
  178loPI   C5A 2843  14.342  15.683   7.681  0.2637  0.0785  0.1374
  178loPI   C6A 2844  14.015  15.793   7.377  0.2986  0.2337 -0.0712
  178loPI   C1B 2845  14.719  16.028   9.476  0.0823 -0.0630 -0.1441
  178loPI   C2B 2846  14.817  15.907   9.122 -0.2268 -0.3787 -0.0783
  178loPI   C3B 2847  14.971  15.739   8.712 -0.1280  0.1102  0.4030
  178loPI   C4B 2848  15.013  15.763   8.340  0.1917  0.1566  0.0115
  179loPI    C1 2849   5.308   8.295  11.204 -0.0968  0.2851  0.0792
  179loPI    C2 2850   5.146   8.121  11.526 -0.0155  0.1537  0.0499
  179loPI    C3 2851   5.513   8.280  11.547 -0.0184  0.1635  0.0277
  179loPI   PO4 2852   5.297   8.126  11.003 -0.0541 -0.0236  0.3879
  179loPI   GL1 2853   5.332   7.971  10.599  0.2788 -0.2808 -0.0596
  179loPI   GL2 2854   5.220   8.269  10.453  0.1693 -0.0644 -0.0099
  179loPI   C1A 2855   5.245   7.842  10.196  0.1950 -0.0343 -0.1779
  179loPI   C2A 2856   5.189   7.814   9.835 -0.1234 -0.1070  0.4164
  179loPI   C3A 2857   5.243   7.724   9.408  0.1246 -0.1255 -0.1191
  179loPI   C4A 2858   5.106   7.710   8.996  0.0784  0.0542  0.0169
  179loPI   C5A 2859   5.137   7.547   8.647  0.0674 -0.2153  0.1298
  179loPI   C6A 2860   4.906   7.301   8.384 -0.1699 -0.0369  0.1397
  179loPI   C1B 2861   5.112   8.357   9.990  0.0474 -0.3520 -0.0693
  179loPI   C2B 2862   5.167   8.228   9.505 -0.2016  0.1281  0.1184
  179loPI   C3B 2863   5.015   8.155   9.116  0.4088  0.2471 -0.3872
  179loPI   C4B 2864   4.881   8.115   8.689  0.0522  0.0261 -0.0873
  180loPI    C1 2865  16.465   0.135  10.721 -0.1621  0.0005 -0.0596
  180loPI    C2 2866  16.468   0.191  11.117  0.2785  0.0009 -0.0579
  180loPI    C3 2867  16.595  -0.156  10.963  0.0263 -0.0320 -0.1968
  180loPI   PO4 2868  16.599   0.315  10.642  0.0378  0.3519 -0.0305
  180loPI   GL1 2869  16.692   0.385  10.260  0.0194 -0.1675  0.1118
  180loPI   GL2 2870  17.013   0.364  10.339  0.2865 -0.1165  0.0737
  180loPI   C1A 2871  16.588   0.513   9.833  0.6049  0.0932  0.2806
  180loPI   C2A 2872  16.692   0.535   9.372 -0.1260 -0.0511  0.0500
  180loPI   C3A 2873  16.752   0.473   8.886 -0.1077 -0.0145  0.3684
  180loPI   C4A 2874  16.803   0.700   8.567  0.4075  0.3657 -0.2480
  180loPI   C5A 2875  16.692   1.098   8.474  0.0426  0.0737 -0.2178
  180loPI   C6A 2876  16.511   1.270   8.049 -0.0942 -0.0075  0.1303
  180loPI   C1B 2877  17.145   0.334   9.883 -0.0900  0.2698  0.1821
  180loPI   C2B 2878  17.181   0.373   9.425  0.2290  0.1256 -0.1434
  180loPI   C3B 2879  17.255   0.301   8.996  0.1613  0.1234 -0.0090
  180loPI   C4B 2880  17.319   0.298   8.566 -0.2335 -0.0770 -0.2042
  181loPI    C1 2881  11.386  14.271  10.369  0.0200  0.1815  0.0840
  181loPI    C2 2882  11.578  13.945  10.498 -0.0168  0.1436  0.0436
  181loPI    C3 2883  11.479  14.234  10.756 -0.0427  0.0925  0.0909
  181loPI   PO4 2884  11.486  14.323  10.187  0.1525 -0.3977 -0.0052
  181loPI   GL1 2885  11.429  14.310   9.799  0.1579  0.0237 -0.1865
  181loPI   GL2 2886  11.257  14.510   9.780 -0.0181 -0.1895 -0.2867
  181loPI   C1A 2887  11.546  14.410   9.344  0.3710  0.0376  0.3967
  181loPI   C2A 2888  11.514  14.339   8.940  0.0325  0.2104  0.1113
  181loPI   C3A 2889  11.283  14.313   8.504  0.2246 -0.1898 -0.0749
  181loPI   C4A 2890  10.954  14.157   8.304 -0.0187 -0.1644 -0.0461
  181loPI   C5A 2891  10.741  13.885   7.937 -0.2551 -0.2043 -0.0238
  181loPI   C6A 2892  10.930  13.641   7.668  0.0343  0.1087  0.2375
  181loPI   C1B 2893  11.363  14.865   9.488 -0.2260 -0.2972 -0.1106
  181loPI   C2B 2894  11.302  14.815   9.058 -0.1652 -0.0124 -0.1123
  181loPI   C3B 2895  11.152  14.926   8.728  0.2157 -0.0614  0.0025
  181loPI   C4B 2896  11.357  14.815   8.359  0.1412 -0.1547 -0.1137
  182loPI    C1 2897   4.956   4.852  11.026 -0.0358  0.1016 -0.1469
  182loPI    C2 2898   4.587   4.807  11.174 -0.0163 -0.1748 -0.1770
  182loPI    C3 2899   4.902   4.819  11.420 -0.0310 -0.0972 -0.1619
  182loPI   PO4 2900   4.951   4.988  10.726  0.0095  0.1051  0.0359
  182loPI   GL1 2901   5.177   5.183  10.362  0.0092 -0.1408  0.0379
  182loPI   GL2 2902   5.053   4.830  10.268  0.0919  0.1003 -0.0932
  182loPI   C1A 2903   5.289   5.317  10.084 -0.0048 -0.3217  0.0543
  182loPI   C2A 2904   5.252   5.354   9.650 -0.0862 -0.1280  0.3750
  182loPI   C3A 2905   5.294   5.251   9.225 -0.2223 -0.1787 -0.0837
  182loPI   C4A 2906   5.331   5.267   8.769 -0.0232  0.0956  0.0441
  182loPI   C5A 2907   4.988   5.307   8.456 -0.3407 -0.4140  0.1557
  182loPI   C6A 2908   4.616   5.299   8.235 -0.0097 -0.0224 -0.1035
  182loPI   C1B 2909   4.895   5.084   9.886  0.3237  0.1716 -0.1689
  182loPI   C2B 2910   4.824   4.957   9.431 -0.0680 -0.2811 -0.2474
  182loPI   C3B 2911   4.981   4.925   9.019  0.0246  0.0599  0.1301
  182loPI   C4B 2912   5.075   4.777   8.568 -0.1791  0.0530  0.2783
  183loPI    C1 2913   6.158  13.795  10.673 -0.0959  0.1880  0.0479
  183loPI    C2 2914   6.300  14.146  10.547  0.0640  0.1857  0.2184
  183loPI    C3 2915   6.285  14.065  10.939 -0.2037  0.0991  0.1918
  183loPI   PO4 2916   5.938  13.820  10.506  0.1515 -0.0278  0.0092
  183loPI   GL1 2917   5.942  14.036  10.175 -0.1480  0.0309  0.1482
  183loPI   GL2 2918   5.947  14.424  10.178  0.0573  0.0192 -0.1572
  183loPI   C1A 2919   6.020  14.188   9.643 -0.0496  0.1413 -0.1668
  183loPI   C2A 2920   5.963  14.160   9.155  0.1110 -0.0482 -0.2094
  183loPI   C3A 2921   5.906  14.369   8.756 -0.1641 -0.3164 -0.3782
  183loPI   C4A 2922   6.020  14.267   8.309  0.0984  0.0571  0.2252
  183loPI   C5A 2923   6.119  14.448   7.971 -0.0179  0.0974  0.0105
  183loPI   C6A 2924   6.214  14.882   8.119 -0.0007 -0.2389 -0.2470
  183loPI   C1B 2925   5.885  14.635   9.857  0.3544 -0.1275  0.0387
  183loPI   C2B 2926   5.949  14.697   9.475  0.2584 -0.1382 -0.1829
  183loPI   C3B 2927   5.765  14.740   9.074 -0.0009  0.0608 -0.0085
  183loPI   C4B 2928   5.422  14.548   8.708 -0.1133 -0.0199 -0.0544
  184loPI    C1 2929  11.749  15.368  10.549 -0.1719  0.0671  0.0613
  184loPI    C2 2930  11.766  15.115  10.858  0.0444 -0.0695 -0.0595
  184loPI    C3 2931  12.013  15.430  10.843 -0.1679  0.1057  0.0497
  184loPI   PO4 2932  11.769  15.281  10.358 -0.2047 -0.1489 -0.0542
  184loPI   GL1 2933  11.755  15.118   9.991 -0.1272  0.4812  0.1064
  184loPI   GL2 2934  12.084  15.030   9.858 -0.0443 -0.3801  0.2154
  184loPI   C1A 2935  11.716  15.239   9.547  0.1334  0.0736 -0.2089
  184loPI   C2A 2936  11.627  15.178   9.181  0.2132  0.1473 -0.0645
  184loPI   C3A 2937  11.626  15.142   8.759  0.1673 -0.0274  0.0690
  184loPI   C4A 2938  11.749  15.053   8.297  0.1086  0.2375  0.1306
  184loPI   C5A 2939  12.048  15.195   7.953  0.2121  0.2706 -0.1766
  184loPI   C6A 2940  12.333  15.338   7.972 -0.0278 -0.1145  0.2714
  184loPI   C1B 2941  12.195  15.066   9.368  0.3088  0.1667 -0.3262
  184loPI   C2B 2942  12.131  15.123   8.977 -0.0229  0.2719  0.0803
  184loPI   C3B 2943  12.224  14.907   8.564 -0.0687  0.0190 -0.0011
  184loPI   C4B 2944  12.204  14.734   8.187  0.0573  0.1452  0.1514
  185loPI    C1 2945   4.747  10.032  11.484 -0.2439  0.0212 -0.1621
  185loPI    C2 2946   4.832   9.772  11.775 -0.2206 -0.0564 -0.2382
  185loPI    C3 2947   5.038  10.114  11.747 -0.1467 -0.1000 -0.2312
  185loPI   PO4 2948   4.850   9.918  11.240 -0.1131 -0.1639 -0.1054
  185loPI   GL1 2949   4.989   9.967  10.819 -0.0812  0.0418 -0.1013
  185loPI   GL2 2950   4.754  10.103  10.682 -0.0836 -0.0340  0.0364
  185loPI   C1A 2951   5.147  10.122  10.344  0.1776 -0.0891  0.0472
  185loPI   C2A 2952   5.014  10.122   9.878  0.0011 -0.0729 -0.1592
  185loPI   C3A 2953   5.045  10.090   9.571 -0.1406 -0.0594 -0.1798
  185loPI   C4A 2954   5.171   9.977   9.114  0.1404 -0.0411  0.0964
  185loPI   C5A 2955   5.017  10.065   8.682 -0.2051 -0.0313  0.0463
  185loPI   C6A 2956   5.182  10.197   8.352 -0.3611  0.0304 -0.0847
  185loPI   C1B 2957   4.768   9.722  10.390  0.4267 -0.1329 -0.0569
  185loPI   C2B 2958   4.730   9.772   9.963 -0.1076 -0.3746  0.1305
  185loPI   C3B 2959   4.648   9.715   9.538 -0.0396 -0.2038  0.2268
  185loPI   C4B 2960   4.443   9.549   9.230 -0.0108 -0.0333 -0.1041
  186loPI    C1 2961   2.528  17.734  11.433 -0.0351  0.1442  0.0625
  186loPI    C2 2962   2.589  17.345  11.359 -0.0584  0.1626 -0.0567
  186loPI    C3 2963   2.596  17.481  11.735  0.1502  0.0813 -0.0299
  186loPI   PO4 2964   2.331  17.831  11.250 -0.0855  0.1768  0.0506
  186loPI   GL1 2965   2.286  18.001  10.945 -0.1594  0.1739  0.1754
  186loPI   GL2 2966   2.555  18.167  10.830  0.0916 -0.1074  0.0981
  186loPI   C1A 2967   2.144  18.241  10.489  0.0111  0.2165 -0.2203
  186loPI   C2A 2968   2.130  18.236  10.041 -0.1277 -0.0428  0.1605
  186loPI   C3A 2969   2.195  18.164   9.610  0.0395 -0.1815  0.2884
  186loPI   C4A 2970   2.259  18.159   9.154  0.1006  0.0647  0.0595
  186loPI   C5A 2971   2.202  18.113   8.754  0.0610  0.2682  0.0384
  186loPI   C6A 2972   2.080  18.284   8.428  0.3543 -0.0068 -0.0674
  186loPI   C1B 2973   2.608  18.132  10.373 -0.0394  0.0856 -0.2433
  186loPI   C2B 2974   2.551  18.015   9.970  0.1816 -0.2547  0.2664
  186loPI   C3B 2975   2.711  18.086   9.535 -0.1024 -0.2303 -0.1129
  186loPI   C4B 2976   2.814  18.043   9.105  0.4009  0.0243  0.0036
  187loPI    C1 2977  11.605  12.295  10.909  0.0448 -0.1091 -0.1814
  187loPI    C2 2978  11.938  12.192  11.105  0.0036  0.0164 -0.0434
  187loPI    C3 2979  11.582  12.071  11.240 -0.0061 -0.1431 -0.2076
  187loPI   PO4 2980  11.701  12.270  10.665 -0.0310  0.1621 -0.1870
  187loPI   GL1 2981  11.649  12.044  10.282  0.0830 -0.2007 -0.2578
  187loPI   GL2 2982  11.517  12.069  10.070 -0.0512 -0.2192  0.0438
  187loPI   C1A 2983  11.878  12.318   9.932 -0.2248  0.1385  0.2420
  187loPI   C2A 2984  11.992  12.090   9.520 -0.0707 -0.1008 -0.1116
  187loPI   C3A 2985  12.073  11.935   9.140  0.2474 -0.1888 -0.0413
  187loPI   C4A 2986  12.092  11.892   8.721  0.0483 -0.0831 -0.1027
  187loPI   C5A 2987  12.022  11.550   8.489 -0.0088  0.2855 -0.0771
  187loPI   C6A 2988  12.150  11.450   8.129 -0.2050  0.1589 -0.0459
  187loPI   C1B 2989  11.518  12.088   9.693 -0.3633  0.2334 -0.1634
  187loPI   C2B 2990  11.498  12.109   9.295  0.0658 -0.2314 -0.2698
  187loPI   C3B 2991  11.633  11.958   8.951 -0.0709  0.1674 -0.1608
  187loPI   C4B 2992  11.572  11.941   8.528 -0.0350 -0.0732 -0.1656
  188loPI    C1 2993   9.336   7.508  11.118 -0.1802 -0.2316 -0.2139
  188loPI    C2 2994   9.625   7.241  11.188  0.0694  0.0599 -0.1099
  188loPI    C3 2995   9.310   7.263  11.433  0.0502 -0.1335 -0.1157
  188loPI   PO4 2996   9.344   7.522  10.842 -0.3259 -0.0703 -0.0332
  188loPI   GL1 2997   9.127   7.595  10.487 -0.1321 -0.0905 -0.2791
  188loPI   GL2 2998   8.873   7.694  10.429 -0.1963  0.0195 -0.1476
  188loPI   C1A 2999   9.358   7.465  10.135  0.0557 -0.0554 -0.1840
  188loPI   C2A 3000   9.431   7.363   9.765 -0.1825 -0.1914  0.2953
  188loPI   C3A 3001   9.497   7.376   9.343 -0.2463  0.2970  0.1181
  188loPI   C4A 3002   9.455   7.427   8.936  0.1442  0.2010 -0.1984
  188loPI   C5A 3003   9.290   7.471   8.556  0.3049 -0.1974 -0.2500
  188loPI   C6A 3004   9.301   7.357   8.164 -0.2042  0.1260  0.2127
  188loPI   C1B 3005   8.859   7.533  10.014  0.0103  0.1198  0.0206
  188loPI   C2B 3006   8.840   7.497   9.551 -0.2463 -0.0042  0.0338
  188loPI   C3B 3007   8.980   7.501   9.117  0.0365  0.4614 -0.0571
  188loPI   C4B 3008   8.870   7.632   8.757 -0.1671 -0.2764 -0.0106
  189loPI    C1 3009   2.022   7.507  11.324 -0.1279  0.0542  0.0858
  189loPI    C2 3010   2.326   7.592  11.570 -0.0463 -0.0394  0.0179
  189loPI    C3 3011   2.169   7.224  11.566  0.0598 -0.0840 -0.1853
  189loPI   PO4 3012   2.120   7.563  11.138  0.2421 -0.2827  0.1800
  189loPI   GL1 3013   2.245   7.493  10.769  0.0101 -0.0062 -0.0260
  189loPI   GL2 3014   1.990   7.687  10.709  0.0240  0.0279  0.2193
  189loPI   C1A 3015   2.213   7.176  10.467 -0.0329  0.1077 -0.1751
  189loPI   C2A 3016   2.100   7.113  10.144  0.3035 -0.0309  0.0155
  189loPI   C3A 3017   2.109   7.121   9.707 -0.1558 -0.1726  0.0482
  189loPI   C4A 3018   2.017   7.160   9.331 -0.0477 -0.0717  0.0111
  189loPI   C5A 3019   1.973   7.140   8.810  0.0845  0.0966  0.2933
  189loPI   C6A 3020   1.923   6.826   8.555  0.1203 -0.4774 -0.3575
  189loPI   C1B 3021   1.951   7.651  10.365 -0.0123 -0.2120 -0.0175
  189loPI   C2B 3022   2.023   7.693   9.936  0.2861 -0.0878 -0.1738
  189loPI   C3B 3023   1.932   7.713   9.521  0.0415  0.0267 -0.1483
  189loPI   C4B 3024   1.826   7.582   9.158  0.0644 -0.0148  0.2197
  190loPI    C1 3025   6.095   6.511  11.155  0.0901 -0.2661 -0.1037
  190loPI    C2 3026   5.763   6.335  11.293  0.1055 -0.1669  0.0627
  190loPI    C3 3027   6.054   6.440  11.547  0.1145  0.0608 -0.0389
  190loPI   PO4 3028   5.990   6.556  10.922 -0.1441 -0.0526 -0.2810
  190loPI   GL1 3029   5.968   6.803  10.534 -0.1464 -0.1572 -0.1525
  190loPI   GL2 3030   5.870   7.129  10.535 -0.0819 -0.1346 -0.0413
  190loPI   C1A 3031   6.229   6.913  10.239 -0.1298 -0.1072  0.0409
  190loPI   C2A 3032   6.340   6.869   9.710  0.1063  0.2651  0.0915
  190loPI   C3A 3033   6.297   6.852   9.269  0.1003 -0.1768  0.0100
  190loPI   C4A 3034   6.305   6.827   8.818 -0.1816  0.0379 -0.2504
  190loPI   C5A 3035   6.341   6.938   8.441 -0.0089 -0.3094  0.0694
  190loPI   C6A 3036   6.429   7.404   8.347  0.1774 -0.0943 -0.0311
  190loPI   C1B 3037   5.779   7.053  10.107 -0.1052 -0.1165 -0.1156
  190loPI   C2B 3038   5.751   7.001   9.705  0.1996  0.0924 -0.0179
  190loPI   C3B 3039   5.774   7.025   9.278 -0.1162  0.0168 -0.1662
  190loPI   C4B 3040   5.630   7.011   8.949 -0.0301 -0.0111 -0.1273
  191loPI    C1 3041  10.833  13.673  10.471 -0.0529 -0.0410  0.0905
  191loPI    C2 3042  11.133  13.848  10.671  0.0920 -0.1406 -0.0372
  191loPI    C3 3043  10.844  13.656  10.871  0.0620  0.0358  0.0913
  191loPI   PO4 3044  10.909  13.545  10.326  0.0482  0.5035  0.1935
  191loPI   GL1 3045  11.073  13.464   9.905 -0.1693  0.1890  0.1106
  191loPI   GL2 3046  11.274  13.132   9.914  0.0931  0.1694  0.0088
  191loPI   C1A 3047  11.256  13.464   9.450  0.0025 -0.3349 -0.2568
  191loPI   C2A 3048  11.295  13.406   8.939 -0.0502  0.1647 -0.2138
  191loPI   C3A 3049  11.326  13.237   8.571  0.1415  0.2525 -0.0279
  191loPI   C4A 3050  11.078  13.212   8.158  0.1067 -0.1854 -0.0457
  191loPI   C5A 3051  10.914  13.137   7.732 -0.0680  0.0160 -0.1349
  191loPI   C6A 3052  10.582  13.127   7.373 -0.2041 -0.2926  0.0424
  191loPI   C1B 3053  11.469  12.994   9.449  0.2272 -0.4771 -0.0314
  191loPI   C2B 3054  11.469  12.916   8.950  0.1932  0.0890 -0.2057
  191loPI   C3B 3055  11.668  12.771   8.603 -0.2645  0.0233 -0.1594
  191loPI   C4B 3056  11.841  12.767   8.177  0.1174  0.0265  0.0764
  192loPI    C1 3057  11.966   3.719  11.484 -0.0840  0.0735 -0.2157
  192loPI    C2 3058  11.897   3.351  11.345 -0.3117 -0.0110  0.1113
  192loPI    C3 3059  11.771   3.454  11.711  0.0145  0.2991  0.1415
  192loPI   PO4 3060  11.885   3.878  11.284  0.3660  0.2119  0.1107
  192loPI   GL1 3061  11.999   4.140  10.960 -0.2052  0.1816 -0.0859
  192loPI   GL2 3062  12.307   4.035  11.024  0.0444  0.3358 -0.0189
  192loPI   C1A 3063  12.003   4.277  10.491 -0.0500 -0.3131 -0.0213
  192loPI   C2A 3064  12.079   4.317  10.101  0.2740  0.3374 -0.1678
  192loPI   C3A 3065  12.110   4.239   9.619  0.2509 -0.1308 -0.0891
  192loPI   C4A 3066  12.201   4.320   9.232 -0.2977  0.0740 -0.2719
  192loPI   C5A 3067  12.476   4.410   8.924 -0.1750 -0.0233  0.3000
  192loPI   C6A 3068  12.723   4.775   8.811 -0.1158 -0.5132 -0.0078
  192loPI   C1B 3069  12.516   4.062  10.642 -0.0311  0.1736 -0.2368
  192loPI   C2B 3070  12.487   4.137  10.178 -0.0005  0.2618 -0.0921
  192loPI   C3B 3071  12.599   4.027   9.734 -0.3110 -0.0012 -0.2284
  192loPI   C4B 3072  12.689   4.076   9.271  0.4064 -0.2319 -0.0249
  193loPI    C1 3073  16.176   5.133  11.223 -0.2876 -0.1796  0.1074
  193loPI    C2 3074  16.282   5.303  11.569 -0.2455  0.1045 -0.0424
  193loPI    C3 3075  16.336   4.911  11.514  0.0343  0.1121  0.1588
  193loPI   PO4 3076  16.292   5.299  11.015  0.3328 -0.1248 -0.0476
  193loPI   GL1 3077  16.459   5.287  10.549 -0.1748 -0.1266 -0.2727
  193loPI   GL2 3078  16.722   5.127  10.736 -0.0491 -0.0868  0.0727
  193loPI   C1A 3079  16.520   5.446  10.200  0.0878 -0.0088 -0.2979
  193loPI   C2A 3080  16.545   5.336   9.802  0.0246 -0.0796 -0.4553
  193loPI   C3A 3081  16.495   5.303   9.335 -0.0529  0.0279 -0.1387
  193loPI   C4A 3082  16.380   5.409   8.893 -0.0886 -0.1364 -0.0077
  193loPI   C5A 3083  16.407   5.464   8.405  0.0209 -0.2111 -0.2485
  193loPI   C6A 3084  16.311   5.549   8.063  0.0603  0.1976 -0.0457
  193loPI   C1B 3085  16.923   5.220  10.426  0.1336  0.0641 -0.0268
  193loPI   C2B 3086  16.998   5.319  10.057  0.5279  0.3401  0.0947
  193loPI   C3B 3087  16.975   5.134   9.575  0.3958  0.1027  0.2452
  193loPI   C4B 3088  16.947   5.190   9.089  0.1105 -0.2714  0.1707
  194loPI    C1 3089   5.620  12.527  10.734 -0.1261 -0.0012  0.0506
  194loPI    C2 3090   5.592  12.289  11.054  0.0326  0.1350  0.1672
  194loPI    C3 3091   5.915  12.271  10.820 -0.0555  0.0793  0.0493
  194loPI   PO4 3092   5.288  12.475  10.677 -0.1326 -0.0526  0.0799
  194loPI   GL1 3093   5.034  12.093  10.402 -0.2095 -0.1115  0.1359
  194loPI   GL2 3094   5.110  11.773  10.425 -0.2290 -0.0700  0.1596
  194loPI   C1A 3095   5.243  12.131   9.992 -0.0990  0.0738 -0.0354
  194loPI   C2A 3096   5.288  11.979   9.531 -0.1559 -0.0553  0.2742
  194loPI   C3A 3097   5.118  11.924   9.146 -0.0996  0.0773  0.0761
  194loPI   C4A 3098   5.062  11.959   8.684  0.1116  0.0004 -0.1210
  194loPI   C5A 3099   4.838  11.894   8.301 -0.0053 -0.2819  0.0065
  194loPI   C6A 3100   4.453  11.724   8.194  0.1928  0.1009 -0.0285
  194loPI   C1B 3101   4.889  11.800   9.991 -0.0566 -0.2709 -0.2015
  194loPI   C2B 3102   4.750  11.600   9.542 -0.2295  0.0198 -0.1913
  194loPI   C3B 3103   4.768  11.526   9.078  0.2080 -0.1076 -0.1205
  194loPI   C4B 3104   4.552  11.597   8.696 -0.0708 -0.0340 -0.1672
  195loPI    C1 3105  10.620   8.159  11.030 -0.1428 -0.1526 -0.0348
  195loPI    C2 3106  10.925   8.124  11.286 -0.0602 -0.0118 -0.1128
  195loPI    C3 3107  10.552   8.171  11.424  0.0039  0.2327 -0.0170
  195loPI   PO4 3108  10.759   8.040  10.807 -0.1901 -0.0011  0.2910
  195loPI   GL1 3109  10.983   8.090  10.438  0.2220  0.0573  0.2854
  195loPI   GL2 3110  10.628   8.140  10.315 -0.2050  0.0720 -0.0727
  195loPI   C1A 3111  11.194   7.978  10.126  0.0056  0.0427 -0.0948
  195loPI   C2A 3112  11.362   7.724   9.829 -0.0341 -0.1412 -0.3039
  195loPI   C3A 3113  11.280   7.779   9.362 -0.0836 -0.0363 -0.5231
  195loPI   C4A 3114  11.304   7.852   8.965  0.2830 -0.0167 -0.0364
  195loPI   C5A 3115  11.190   7.790   8.542 -0.1341  0.2727  0.0980
  195loPI   C6A 3116  11.098   8.127   8.311  0.1597  0.0692 -0.1159
  195loPI   C1B 3117  10.711   8.084   9.863 -0.3948  0.1782 -0.4302
  195loPI   C2B 3118  10.798   8.008   9.423  0.0199  0.0766 -0.0540
  195loPI   C3B 3119  10.753   8.046   8.996  0.2006  0.2043 -0.0187
  195loPI   C4B 3120  10.670   7.964   8.551  0.1651 -0.3368 -0.0910
  196loPI    C1 3121   8.649   6.764  11.235 -0.1523 -0.0771 -0.2666
  196loPI    C2 3122   8.562   6.555  11.565  0.2425  0.2209  0.0372
  196loPI    C3 3123   8.274   6.755  11.372  0.0709  0.3582  0.4259
  196loPI   PO4 3124   8.804   6.568  11.084  0.0193  0.2474 -0.1324
  196loPI   GL1 3125   9.059   6.489  10.856  0.2262  0.0600 -0.2006
  196loPI   GL2 3126   9.260   6.624  10.715 -0.2412 -0.1567 -0.1074
  196loPI   C1A 3127   8.951   6.227  10.550 -0.0284 -0.1570 -0.0349
  196loPI   C2A 3128   8.868   6.193  10.096 -0.1073 -0.1385 -0.3070
  196loPI   C3A 3129   8.853   6.154   9.630  0.3915  0.1313 -0.2208
  196loPI   C4A 3130   8.761   6.151   9.141 -0.3050 -0.1874  0.1238
  196loPI   C5A 3131   8.707   6.130   8.712  0.0953 -0.0089 -0.3213
  196loPI   C6A 3132   8.578   6.472   8.399  0.1301 -0.2716  0.0053
  196loPI   C1B 3133   9.292   6.630  10.313  0.3976  0.0100 -0.1081
  196loPI   C2B 3134   9.189   6.583   9.897 -0.1327  0.2907 -0.2117
  196loPI   C3B 3135   9.222   6.568   9.399 -0.0021  0.0024  0.0307
  196loPI   C4B 3136   9.105   6.512   8.968 -0.1119  0.1289 -0.0134
  197loPI    C1 3137   5.040   9.516  11.121 -0.0662  0.1500  0.1067
  197loPI    C2 3138   4.869   9.367  11.450 -0.1045  0.2416  0.1286
  197loPI    C3 3139   5.213   9.569  11.478  0.1737 -0.2079  0.0491
  197loPI   PO4 3140   4.986   9.339  10.932  0.1352 -0.0169  0.0507
  197loPI   GL1 3141   4.955   9.254  10.467  0.6746  0.0711  0.2948
  197loPI   GL2 3142   5.225   9.201  10.332  0.0895 -0.5328  0.4436
  197loPI   C1A 3143   4.797   9.288  10.030 -0.1015  0.2660 -0.2506
  197loPI   C2A 3144   4.711   9.185   9.575 -0.0932 -0.1598  0.0298
  197loPI   C3A 3145   4.695   9.061   9.154 -0.1699  0.1030  0.3199
  197loPI   C4A 3146   4.807   9.416   8.925 -0.1591  0.1444  0.0147
  197loPI   C5A 3147   4.955   9.570   8.496  0.1975  0.0951 -0.0012
  197loPI   C6A 3148   5.042   9.228   8.257  0.3356  0.0823 -0.0955
  197loPI   C1B 3149   5.281   9.168   9.933 -0.0334 -0.0245  0.1189
  197loPI   C2B 3150   5.294   9.088   9.515  0.0832  0.2604 -0.0375
  197loPI   C3B 3151   5.233   8.959   9.081  0.3162  0.0743 -0.1914
  197loPI   C4B 3152   5.307   9.014   8.690  0.0491 -0.0646 -0.2456
  198loPI    C1 3153   2.941   6.956  11.361  0.0007 -0.1101 -0.3006
  198loPI    C2 3154   2.582   6.842  11.495  0.0089  0.2723  0.0680
  198loPI    C3 3155   2.911   6.655  11.623 -0.0265  0.2248  0.0904
  198loPI   PO4 3156   2.967   6.980  10.987  0.1881 -0.0543 -0.2093
  198loPI   GL1 3157   3.295   7.029  10.699  0.0131  0.0130 -0.3134
  198loPI   GL2 3158   3.110   7.266  10.570  0.0408 -0.0189  0.2373
  198loPI   C1A 3159   3.169   6.871  10.317  0.0397  0.1507 -0.0171
  198loPI   C2A 3160   3.101   6.918   9.865 -0.1519 -0.1082  0.1189
  198loPI   C3A 3161   2.978   6.832   9.439 -0.1372 -0.2925 -0.3625
  198loPI   C4A 3162   3.028   6.803   9.057  0.0004  0.0534  0.0684
  198loPI   C5A 3163   3.176   6.655   8.650  0.0189  0.3708  0.3173
  198loPI   C6A 3164   3.349   6.290   8.421 -0.5720  0.0679  0.0832
  198loPI   C1B 3165   2.989   7.488  10.169  0.3827 -0.2920 -0.0420
  198loPI   C2B 3166   2.933   7.371   9.669 -0.1183  0.1025  0.1392
  198loPI   C3B 3167   2.907   7.311   9.287 -0.0572 -0.2947  0.0204
  198loPI   C4B 3168   2.834   7.409   8.884  0.1236  0.1993  0.0706
  199loPI    C1 3169   1.341  12.495  10.878 -0.0738 -0.1026  0.1615
  199loPI    C2 3170   1.378  12.097  10.887 -0.3851 -0.1367  0.0425
  199loPI    C3 3171   1.464  12.313  11.212  0.2015 -0.2583 -0.0208
  199loPI   PO4 3172   1.094  12.533  10.690  0.4067  0.1099 -0.1508
  199loPI   GL1 3173   1.030  12.794  10.302  0.0760  0.2702 -0.0227
  199loPI   GL2 3174   0.677  12.800  10.422 -0.1752  0.1618 -0.5127
  199loPI   C1A 3175   1.200  12.657   9.958 -0.0903 -0.1461  0.0210
  199loPI   C2A 3176   1.182  12.852   9.527 -0.0479  0.0191  0.0609
  199loPI   C3A 3177   1.190  12.720   9.070  0.1688 -0.0693 -0.0350
  199loPI   C4A 3178   1.101  12.628   8.689 -0.2794  0.0006 -0.1871
  199loPI   C5A 3179   0.899  12.329   8.406 -0.1038 -0.0733  0.0735
  199loPI   C6A 3180   0.725  11.852   8.339  0.0480  0.2870 -0.4184
  199loPI   C1B 3181   0.595  12.920   9.988  0.0295 -0.0302 -0.1280
  199loPI   C2B 3182   0.606  12.992   9.592  0.2252  0.3740  0.1537
  199loPI   C3B 3183   0.631  12.838   9.129  0.5057 -0.1347 -0.2205
  199loPI   C4B 3184   0.586  12.721   8.661 -0.0730  0.3084  0.1370
  200loPI    C1 3185  17.333  14.376  10.784  0.0472  0.1821 -0.1930
  200loPI    C2 3186  17.711  14.393  10.913 -0.0037  0.1061 -0.0308
  200loPI    C3 3187  17.431  14.620  11.086 -0.1094 -0.1386  0.1246
  200loPI   PO4 3188  17.392  14.342  10.523  0.0644 -0.0441 -0.2292
  200loPI   GL1 3189  17.302  14.248  10.246  0.3066 -0.3295  0.0206
  200loPI   GL2 3190  17.589  14.130  10.064 -0.0410  0.0789 -0.1946
  200loPI   C1A 3191  17.116  14.375   9.902 -0.1418 -0.0890  0.0008
  200loPI   C2A 3192  17.099  14.342   9.409 -0.2495 -0.0378 -0.2511
  200loPI   C3A 3193  17.151  14.210   9.033 -0.2812  0.1163  0.2137
  200loPI   C4A 3194  17.177  14.092   8.599 -0.1349  0.1294  0.5117
  200loPI   C5A 3195  17.102  13.735   8.265  0.0127 -0.0171 -0.0029
  200loPI   C6A 3196  16.708  13.488   8.297 -0.1220 -0.0970 -0.0467
  200loPI   C1B 3197  17.556  14.250   9.602 -0.1223  0.1070 -0.0633
  200loPI   C2B 3198  17.661  14.157   9.199  0.1072  0.4770 -0.1520
  200loPI   C3B 3199  17.637  13.937   8.906  0.0043 -0.1085  0.0929
  200loPI   C4B 3200  17.596  13.854   8.417  0.1809  0.1281  0.0293
  201loPI    C1 3201  14.959  14.246  10.680 -0.2285  0.1160 -0.0841
  201loPI    C2 3202  14.885  14.116  11.052  0.1636 -0.2435 -0.1238
  201loPI    C3 3203  15.104  14.446  10.995 -0.0210 -0.1041 -0.0368
  201loPI   PO4 3204  14.793  14.094  10.512  0.2351 -0.0116 -0.0357
  201loPI   GL1 3205  14.801  13.786  10.163 -0.0975 -0.3887 -0.3011
  201loPI   GL2 3206  14.885  13.440  10.228  0.0513  0.1419  0.1716
  201loPI   C1A 3207  14.864  13.906   9.789 -0.0960 -0.1036  0.0893
  201loPI   C2A 3208  14.747  13.948   9.400 -0.2606  0.2520  0.2705
  201loPI   C3A 3209  14.774  13.979   8.953 -0.2695  0.0451 -0.1230
  201loPI   C4A 3210  14.591  14.153   8.604  0.0102  0.1467  0.3803
  201loPI   C5A 3211  14.664  14.088   8.170  0.0977  0.3555 -0.2073
  201loPI   C6A 3212  14.927  13.687   8.084  0.2446  0.2863  0.2117
  201loPI   C1B 3213  14.907  13.341   9.881 -0.1503 -0.0719 -0.0525
  201loPI   C2B 3214  14.967  13.498   9.498  0.0626  0.1135  0.2364
  201loPI   C3B 3215  14.996  13.522   9.004  0.0934  0.0625 -0.1837
  201loPI   C4B 3216  15.009  13.397   8.626  0.0209 -0.0874 -0.2153
  202loPI    C1 3217   5.943   5.569  11.144  0.0370 -0.2323  0.1356
  202loPI    C2 3218   5.571   5.481  11.262 -0.0140  0.0027  0.1537
  202loPI    C3 3219   5.720   5.846  11.327  0.1719 -0.0490  0.0245
  202loPI   PO4 3220   5.953   5.504  10.934  0.0351  0.0567  0.3083
  202loPI   GL1 3221   5.900   5.741  10.542  0.1166 -0.3363  0.0107
  202loPI   GL2 3222   6.191   5.779  10.559 -0.2362  0.1790  0.2522
  202loPI   C1A 3223   5.713   5.797  10.162 -0.1820 -0.2650  0.2264
  202loPI   C2A 3224   5.650   5.742   9.692 -0.1273  0.4465 -0.2052
  202loPI   C3A 3225   5.708   5.706   9.179 -0.1037  0.1701  0.0712
  202loPI   C4A 3226   5.746   5.700   8.699 -0.0871 -0.0292  0.1442
  202loPI   C5A 3227   5.650   5.497   8.356 -0.2047  0.1252  0.1448
  202loPI   C6A 3228   5.661   5.114   8.191 -0.0043 -0.2064  0.0148
  202loPI   C1B 3229   6.178   5.549  10.189  0.2047 -0.1160 -0.0023
  202loPI   C2B 3230   6.183   5.622   9.733 -0.0390 -0.0672 -0.0825
  202loPI   C3B 3231   6.109   5.535   9.391 -0.0610 -0.0284 -0.0516
  202loPI   C4B 3232   6.115   5.511   9.008  0.2552  0.0307 -0.1145
  203loPI    C1 3233  14.833  16.705  10.741 -0.1662  0.1536  0.1802
  203loPI    C2 3234  15.000  16.353  10.830 -0.1002  0.1849  0.1816
  203loPI    C3 3235  14.634  16.440  10.965 -0.0602  0.1735  0.2994
  203loPI   PO4 3236  14.907  16.665  10.433  0.0996 -0.1535  0.0426
  203loPI   GL1 3237  15.034  16.565  10.039  0.3091  0.2465 -0.1320
  203loPI   GL2 3238  14.957  16.329   9.799 -0.0794  0.2777 -0.0413
  203loPI   C1A 3239  15.117  16.855   9.727  0.1775 -0.2112 -0.3210
  203loPI   C2A 3240  15.114  16.864   9.286  0.0243 -0.0796  0.0361
  203loPI   C3A 3241  15.151  16.704   8.945  0.0088 -0.2104 -0.1273
  203loPI   C4A 3242  15.196  16.682   8.497  0.0478 -0.0752  0.2111
  203loPI   C5A 3243  15.472  16.585   8.213  0.1441 -0.1128 -0.2282
  203loPI   C6A 3244  15.864  16.564   8.110 -0.2045 -0.2394 -0.0371
  203loPI   C1B 3245  14.995  16.432   9.463 -0.1638  0.3578  0.0651
  203loPI   C2B 3246  14.779  16.384   9.054 -0.0164  0.2495  0.1439
  203loPI   C3B 3247  14.813  16.323   8.649 -0.1582 -0.0937 -0.1255
  203loPI   C4B 3248  14.829  16.265   8.165  0.2996  0.0326  0.0325
  204loPI    C1 3249  12.903  14.476  10.320  0.1299 -0.0210 -0.0371
  204loPI    C2 3250  13.123  14.328  10.619 -0.0826 -0.1950  0.0356
  204loPI    C3 3251  12.763  14.484  10.694 -0.0305 -0.0077 -0.0969
  204loPI   PO4 3252  13.005  14.605  10.194 -0.2618 -0.0714  0.1553
  204loPI   GL1 3253  12.872  14.724   9.785 -0.0627  0.1075  0.1803
  204loPI   GL2 3254  12.746  15.035   9.922 -0.2694 -0.1740 -0.1266
  204loPI   C1A 3255  13.024  14.777   9.290 -0.1191  0.1229  0.1670
  204loPI   C2A 3256  13.003  14.755   8.806  0.1319 -0.0811  0.0200
  204loPI   C3A 3257  12.735  14.784   8.496  0.2367  0.1987 -0.0942
  204loPI   C4A 3258  12.752  14.852   8.086 -0.1841 -0.0355 -0.1941
  204loPI   C5A 3259  12.820  15.202   7.840 -0.3395 -0.2733 -0.0258
  204loPI   C6A 3260  13.165  15.380   7.659  0.0445  0.2379 -0.2159
  204loPI   C1B 3261  12.582  15.267   9.617 -0.0234 -0.4416 -0.3121
  204loPI   C2B 3262  12.644  15.197   9.170 -0.2584  0.1507  0.0261
  204loPI   C3B 3263  12.567  15.255   8.761  0.1258 -0.0761 -0.0495
  204loPI   C4B 3264  12.784  15.297   8.449 -0.0766 -0.0807 -0.0343
  205loPI    C1 3265   2.552   0.950  11.625 -0.1114  0.1087  0.0012
  205loPI    C2 3266   2.475   1.283  11.833 -0.0409  0.0649  0.0986
  205loPI    C3 3267   2.534   0.937  12.025 -0.0064  0.0178  0.0036
  205loPI   PO4 3268   2.790   0.977  11.341 -0.2349  0.2202 -0.0627
  205loPI   GL1 3269   2.774   0.953  10.982  0.0093 -0.0108  0.0338
  205loPI   GL2 3270   3.015   1.029  10.742 -0.0536 -0.1730 -0.0172
  205loPI   C1A 3271   2.615   0.847  10.602  0.0764 -0.0895  0.0079
  205loPI   C2A 3272   2.612   0.791  10.084  0.2349  0.1010 -0.0267
  205loPI   C3A 3273   2.553   0.832   9.728  0.0623 -0.0005  0.1424
  205loPI   C4A 3274   2.604   0.788   9.277 -0.0474  0.0849 -0.0914
  205loPI   C5A 3275   2.601   0.675   8.814 -0.0558 -0.2931 -0.1034
  205loPI   C6A 3276   2.614   0.543   8.367 -0.1024  0.1359 -0.2838
  205loPI   C1B 3277   2.887   1.125  10.263 -0.2055  0.0478 -0.1249
  205loPI   C2B 3278   2.898   1.203   9.879  0.0157  0.1151  0.1128
  205loPI   C3B 3279   3.005   1.212   9.441 -0.3505  0.0331  0.2385
  205loPI   C4B 3280   2.941   1.148   9.079 -0.4133  0.0116  0.2047
  206loPI    C1 3281   7.532   7.972  10.902 -0.0181  0.0183  0.0124
  206loPI    C2 3282   7.298   7.684  10.752 -0.2936  0.2940 -0.0987
  206loPI    C3 3283   7.218   7.839  11.112  0.1532 -0.1133  0.1894
  206loPI   PO4 3284   7.445   8.189  10.712 -0.0548 -0.0811 -0.0088
  206loPI   GL1 3285   7.465   8.113  10.359 -0.1846 -0.2044  0.0029
  206loPI   GL2 3286   7.460   7.741  10.313  0.0321  0.0397  0.0933
  206loPI   C1A 3287   7.468   8.053   9.919  0.0054 -0.1193 -0.2412
  206loPI   C2A 3288   7.540   7.979   9.544 -0.2186 -0.4373  0.0877
  206loPI   C3A 3289   7.411   8.012   9.076 -0.2694  0.2747  0.1344
  206loPI   C4A 3290   7.350   8.008   8.650 -0.2338 -0.2230 -0.0011
  206loPI   C5A 3291   7.073   8.008   8.288  0.0237 -0.0957 -0.3738
  206loPI   C6A 3292   6.627   7.920   8.368  0.0545  0.1382  0.0881
  206loPI   C1B 3293   7.492   7.551   9.848 -0.1650 -0.5198 -0.2632
  206loPI   C2B 3294   7.587   7.548   9.357 -0.2674  0.0395  0.0197
  206loPI   C3B 3295   7.562   7.501   8.924  0.0367 -0.2277 -0.0577
  206loPI   C4B 3296   7.620   7.610   8.599  0.2546 -0.2151  0.2713
  207loPI    C1 3297   2.883   5.022  11.011 -0.2310 -0.0807  0.1363
  207loPI    C2 3298   3.087   5.190  11.311 -0.0017 -0.0453 -0.0366
  207loPI    C3 3299   3.061   4.792  11.286  0.1044 -0.0518 -0.0506
  207loPI   PO4 3300   2.735   5.283  10.930 -0.1013  0.0923  0.1449
  207loPI   GL1 3301   2.666   5.537  10.578 -0.0191 -0.0954 -0.0706
  207loPI   GL2 3302   2.507   5.717  10.454  0.1109  0.0265  0.0618
  207loPI   C1A 3303   2.908   5.550  10.212 -0.2577 -0.0652  0.1928
  207loPI   C2A 3304   2.944   5.559   9.748 -0.2578 -0.0423 -0.1195
  207loPI   C3A 3305   2.940   5.538   9.318 -0.0905  0.2804 -0.0062
  207loPI   C4A 3306   2.844   5.258   9.042 -0.1659  0.3020  0.0020
  207loPI   C5A 3307   2.919   4.960   8.738  0.0630  0.0162  0.0793
  207loPI   C6A 3308   3.267   4.917   8.657  0.1179 -0.1350  0.0417
  207loPI   C1B 3309   2.460   5.681  10.029 -0.1464 -0.1484 -0.3244
  207loPI   C2B 3310   2.375   5.588   9.670  0.0210  0.2375  0.3015
  207loPI   C3B 3311   2.406   5.662   9.298  0.0769 -0.1165  0.0316
  207loPI   C4B 3312   2.343   5.459   8.972 -0.0848  0.0182 -0.0372
  208loPI    C1 3313   4.205  10.975  11.037  0.1472  0.0233 -0.1313
  208loPI    C2 3314   4.459  10.947  11.344 -0.1946  0.0394  0.1593
  208loPI    C3 3315   4.089  10.798  11.376 -0.2973  0.2113 -0.1773
  208loPI   PO4 3316   4.373  10.996  10.840 -0.2238  0.0619 -0.2806
  208loPI   GL1 3317   4.198  11.059  10.463 -0.1218 -0.0316  0.0137
  208loPI   GL2 3318   3.932  10.968  10.275  0.0461 -0.0408  0.2637
  208loPI   C1A 3319   4.480  10.995  10.076 -0.2731  0.0303  0.0026
  208loPI   C2A 3320   4.486  10.866   9.658  0.0593 -0.1734 -0.0389
  208loPI   C3A 3321   4.489  10.745   9.263 -0.0159  0.1843 -0.0202
  208loPI   C4A 3322   4.427  10.478   8.981 -0.1483 -0.0872 -0.0584
  208loPI   C5A 3323   4.591  10.264   8.596 -0.0726  0.0422 -0.0426
  208loPI   C6A 3324   4.503   9.741   8.546 -0.0987 -0.0816 -0.0377
  208loPI   C1B 3325   3.965  10.879   9.882 -0.0721 -0.1752  0.1485
  208loPI   C2B 3326   4.008  10.864   9.457  0.0066 -0.1841  0.1110
  208loPI   C3B 3327   3.908  10.841   9.022 -0.2149 -0.1111 -0.2608
  208loPI   C4B 3328   3.775  11.000   8.717 -0.1803  0.0163  0.4429
  209loPI    C1 3329   1.899  16.255  10.900 -0.1129 -0.0302 -0.0943
  209loPI    C2 3330   1.795  16.059  11.233  0.1798 -0.0488 -0.0108
  209loPI    C3 3331   1.649  16.424  11.163 -0.3279 -0.2675 -0.1416
  209loPI   PO4 3332   1.810  16.189  10.670  0.2792 -0.2661 -0.0716
  209loPI   GL1 3333   1.960  16.192  10.345 -0.1659 -0.1024  0.0416
  209loPI   GL2 3334   2.211  15.856  10.154 -0.2077  0.1554 -0.1722
  209loPI   C1A 3335   2.068  16.288   9.905 -0.1174 -0.3060 -0.0694
  209loPI   C2A 3336   2.175  16.368   9.457  0.4136 -0.2660 -0.2528
  209loPI   C3A 3337   2.255  16.341   9.008  0.1293 -0.0710 -0.0337
  209loPI   C4A 3338   2.116  16.164   8.701 -0.2451 -0.2085  0.0865
  209loPI   C5A 3339   2.268  15.902   8.442 -0.2052 -0.1282  0.0594
  209loPI   C6A 3340   2.181  15.628   8.107  0.3659 -0.0746 -0.1028
  209loPI   C1B 3341   2.241  15.923   9.640  0.3226  0.0707 -0.0293
  209loPI   C2B 3342   2.280  15.887   9.233  0.1277  0.1154 -0.1033
  209loPI   C3B 3343   2.441  15.723   8.881  0.1242 -0.1972  0.0728
  209loPI   C4B 3344   2.748  15.538   8.505  0.2304  0.0005  0.0254
  210loPI    C1 3345  16.202   5.852  11.186  0.1139 -0.0905  0.0529
  210loPI    C2 3346  16.022   5.729  11.521  0.1742 -0.1422  0.0665
  210loPI    C3 3347  16.328   5.985  11.542  0.0473  0.0134  0.0380
  210loPI   PO4 3348  16.047   5.972  10.992  0.4977 -0.1272 -0.1970
  210loPI   GL1 3349  16.068   6.182  10.610  0.0548  0.3072 -0.1534
  210loPI   GL2 3350  16.299   6.353  10.695 -0.2699  0.5804 -0.0382
  210loPI   C1A 3351  15.955   6.031  10.208  0.0559  0.0504 -0.1414
  210loPI   C2A 3352  15.925   5.964   9.777  0.0026 -0.1854  0.1115
  210loPI   C3A 3353  15.777   6.020   9.398 -0.4703 -0.0846  0.1000
  210loPI   C4A 3354  15.788   6.013   9.023 -0.1015 -0.2241  0.1191
  210loPI   C5A 3355  15.901   6.118   8.638 -0.0799  0.1000  0.0899
  210loPI   C6A 3356  15.722   6.211   8.234 -0.1692  0.0730  0.2363
  210loPI   C1B 3357  16.342   6.462  10.292  0.2398 -0.0169 -0.3947
  210loPI   C2B 3358  16.271   6.384   9.873  0.1467 -0.1417  0.1306
  210loPI   C3B 3359  16.196   6.274   9.436 -0.2012  0.1047  0.0025
  210loPI   C4B 3360  16.282   6.322   8.985 -0.0624 -0.1303 -0.4106
  211loPI    C1 3361   2.353  13.763  10.877  0.0940 -0.1198 -0.0627
  211loPI    C2 3362   2.661  13.509  10.905  0.2574  0.0662 -0.1548
  211loPI    C3 3363   2.648  13.835  11.137  0.0671 -0.0049 -0.0637
  211loPI   PO4 3364   2.360  13.804  10.617 -0.0761 -0.3086 -0.1149
  211loPI   GL1 3365   2.301  13.782  10.217  0.3269 -0.1505  0.0898
  211loPI   GL2 3366   2.193  13.590  10.209  0.2853 -0.3764 -0.1024
  211loPI   C1A 3367   2.354  13.787   9.739 -0.1596 -0.3051 -0.0538
  211loPI   C2A 3368   2.280  13.835   9.324 -0.2056 -0.1234  0.1528
  211loPI   C3A 3369   2.279  13.922   8.917 -0.1991 -0.1461  0.0799
  211loPI   C4A 3370   2.264  13.882   8.505  0.1938  0.0482 -0.1658
  211loPI   C5A 3371   1.941  14.115   8.273  0.0940  0.3317 -0.2825
  211loPI   C6A 3372   1.534  14.118   8.240  0.2921 -0.0573 -0.0096
  211loPI   C1B 3373   2.006  13.442   9.847 -0.0751 -0.1124 -0.0522
  211loPI   C2B 3374   1.969  13.352   9.479  0.1074 -0.0800  0.0749
  211loPI   C3B 3375   1.969  13.529   9.113  0.1017  0.0370 -0.0570
  211loPI   C4B 3376   1.797  13.384   8.758  0.2940 -0.2299  0.0641
  212loPI    C1 3377  12.380   0.676  11.158  0.1868  0.0515  0.0699
  212loPI    C2 3378  12.597   1.011  11.128 -0.0477  0.1993 -0.0092
  212loPI    C3 3379  12.314   0.981  11.409 -0.1507  0.1391 -0.1184
  212loPI   PO4 3380  12.297   0.613  10.816  0.2989 -0.0379  0.1911
  212loPI   GL1 3381  12.349   0.944  10.402  0.1708  0.3082 -0.0676
  212loPI   GL2 3382  12.096   0.878  10.145 -0.1410 -0.0315  0.2122
  212loPI   C1A 3383  12.649   1.105  10.095  0.3507  0.1781 -0.2197
  212loPI   C2A 3384  12.894   1.172   9.648  0.2412 -0.1860 -0.0805
  212loPI   C3A 3385  12.804   1.338   9.219  0.2207  0.3566 -0.3280
  212loPI   C4A 3386  13.009   1.269   8.813  0.0394  0.0626 -0.1736
  212loPI   C5A 3387  12.767   1.222   8.393  0.1829  0.0711  0.2037
  212loPI   C6A 3388  12.482   1.185   8.025  0.1349 -0.0579 -0.0713
  212loPI   C1B 3389  12.382   0.805   9.806  0.1186  0.0927  0.2196
  212loPI   C2B 3390  12.467   0.921   9.398 -0.1226 -0.0967 -0.0248
  212loPI   C3B 3391  12.577   0.974   8.986 -0.0711  0.2582 -0.0793
  212loPI   C4B 3392  12.385   0.940   8.548 -0.1700 -0.0804 -0.1640
  213loPI    C1 3393   0.575  14.087  10.993 -0.1431  0.0680 -0.0693
  213loPI    C2 3394   0.467  14.467  11.056  0.1252  0.1265  0.0496
  213loPI    C3 3395   0.503  14.215  11.365 -0.1468 -0.0242 -0.0377
  213loPI   PO4 3396   0.619  14.142  10.731 -0.2623  0.0107 -0.0416
  213loPI   GL1 3397   0.731  14.301  10.304 -0.0898  0.1620  0.0406
  213loPI   GL2 3398   1.031  14.483  10.293  0.0639 -0.1657  0.1323
  213loPI   C1A 3399   0.741  14.323   9.893 -0.1030 -0.1058 -0.3286
  213loPI   C2A 3400   0.745  14.292   9.457 -0.1964 -0.3243 -0.2589
  213loPI   C3A 3401   0.735  14.202   9.086 -0.0275 -0.0786  0.1204
  213loPI   C4A 3402   0.751  14.227   8.696 -0.1213  0.2073 -0.1211
  213loPI   C5A 3403   0.959  14.269   8.279  0.2203 -0.1141 -0.1731
  213loPI   C6A 3404   1.201  14.299   7.904 -0.2356  0.2004  0.1010
  213loPI   C1B 3405   1.106  14.631   9.817  0.0851  0.0423 -0.3391
  213loPI   C2B 3406   1.163  14.601   9.417 -0.3131 -0.0004  0.2543
  213loPI   C3B 3407   1.126  14.519   9.095 -0.2640  0.0355  0.0557
  213loPI   C4B 3408   1.230  14.562   8.668  0.3107  0.1037 -0.0854
  214loPI    C1 3409  14.744   4.686  11.349 -0.0003  0.2448  0.1316
  214loPI    C2 3410  14.513   4.591  11.662 -0.1289  0.2188  0.0293
  214loPI    C3 3411  14.902   4.664  11.716 -0.1804  0.3610  0.2174
  214loPI   PO4 3412  14.672   4.573  11.177 -0.0002 -0.1623  0.1094
  214loPI   GL1 3413  14.663   4.568  10.764 -0.1689  0.1237  0.3856
  214loPI   GL2 3414  15.025   4.552  10.669 -0.3550 -0.0111 -0.1249
  214loPI   C1A 3415  14.287   4.478  10.472  0.1401 -0.2115 -0.2899
  214loPI   C2A 3416  14.387   4.459  10.003 -0.1836  0.0389 -0.0929
  214loPI   C3A 3417  14.378   4.518   9.623 -0.1171  0.2343 -0.1062
  214loPI   C4A 3418  14.480   4.434   9.216  0.2956  0.1393  0.2032
  214loPI   C5A 3419  14.633   4.303   8.845  0.1228 -0.0555 -0.0059
  214loPI   C6A 3420  15.037   4.179   8.633 -0.2243  0.0002  0.1488
  214loPI   C1B 3421  14.726   4.749  10.267  0.1183 -0.0332 -0.1828
  214loPI   C2B 3422  14.702   4.850   9.840  0.0136 -0.0577  0.2495
  214loPI   C3B 3423  14.741   4.879   9.359 -0.2539 -0.2896 -0.1678
  214loPI   C4B 3424  14.845   4.733   8.995 -0.2534  0.1751 -0.1203
  215loPI    C1 3425   7.847  15.793  10.330 -0.1035  0.3885  0.0812
  215loPI    C2 3426   7.560  15.954  10.557 -0.3422  0.0503  0.0278
  215loPI    C3 3427   7.518  15.583  10.416  0.1999 -0.0689  0.1573
  215loPI   PO4 3428   7.952  15.915  10.171 -0.2012 -0.1459 -0.2352
  215loPI   GL1 3429   7.682  16.071   9.851  0.1152 -0.0490  0.1032
  215loPI   GL2 3430   7.901  16.354   9.952  0.3159  0.0992 -0.0956
  215loPI   C1A 3431   7.534  16.178   9.396 -0.1547  0.1253  0.2625
  215loPI   C2A 3432   7.263  16.251   9.046  0.1276  0.2848 -0.1854
  215loPI   C3A 3433   7.272  16.391   8.656  0.2232 -0.0360 -0.2609
  215loPI   C4A 3434   7.398  16.425   8.188  0.0068  0.2709 -0.0330
  215loPI   C5A 3435   7.448  16.326   7.725 -0.0839  0.0005  0.1069
  215loPI   C6A 3436   7.537  16.257   7.334  0.2954  0.0002 -0.0720
  215loPI   C1B 3437   7.830  16.568   9.608 -0.0907  0.1463  0.1840
  215loPI   C2B 3438   7.710  16.609   9.173  0.1925 -0.1152  0.2737
  215loPI   C3B 3439   7.621  16.778   8.799  0.3113 -0.2223  0.0949
  215loPI   C4B 3440   7.545  16.883   8.364  0.2252 -0.2365  0.0032
  216loPI    C1 3441  16.720  16.814  10.599 -0.2148  0.0709  0.4354
  216loPI    C2 3442  16.645  17.189  10.481  0.0242  0.0219  0.1145
  216loPI    C3 3443  16.823  17.121  10.833  0.2405  0.2266  0.0477
  216loPI   PO4 3444  16.822  16.710  10.405  0.0894 -0.0990 -0.3422
  216loPI   GL1 3445  16.951  16.751   9.971 -0.3560  0.0430 -0.1754
  216loPI   GL2 3446  16.861  17.114   9.971 -0.1722 -0.2333 -0.0884
  216loPI   C1A 3447  17.038  16.787   9.585  0.0316  0.3467  0.1211
  216loPI   C2A 3448  17.073  16.698   9.109 -0.1310 -0.0653 -0.0536
  216loPI   C3A 3449  17.032  16.593   8.678 -0.0746 -0.1739  0.0985
  216loPI   C4A 3450  17.170  16.765   8.358  0.2437  0.0374 -0.1990
  216loPI   C5A 3451  17.193  17.053   8.116 -0.0228 -0.0682  0.0861
  216loPI   C6A 3452  17.173  17.305   7.827 -0.0803  0.1540 -0.1103
  216loPI   C1B 3453  16.956  17.329   9.607 -0.2364 -0.1111 -0.0023
  216loPI   C2B 3454  17.027  17.216   9.312  0.0505  0.0792  0.1311
  216loPI   C3B 3455  16.913  17.243   8.890  0.0218  0.1049  0.0115
  216loPI   C4B 3456  17.046  17.230   8.553  0.1614  0.1771  0.0492
  217loPI    C1 3457  12.273   2.962  11.178  0.0296 -0.0378 -0.0386
  217loPI    C2 3458  11.979   2.691  11.163 -0.0128  0.0073 -0.0263
  217loPI    C3 3459  12.111   2.824  11.517 -0.1684  0.1934 -0.0362
  217loPI   PO4 3460  12.191   3.178  11.028 -0.2282 -0.1339  0.5786
  217loPI   GL1 3461  12.240   3.070  10.668 -0.0486 -0.0524  0.0753
  217loPI   GL2 3462  11.837   3.253  10.599 -0.0267  0.1447 -0.1200
  217loPI   C1A 3463  12.303   3.293  10.303 -0.0685 -0.1647  0.0820
  217loPI   C2A 3464  12.273   3.217   9.903 -0.1778 -0.3086  0.0249
  217loPI   C3A 3465  12.415   3.198   9.459  0.0426  0.0269 -0.0669
  217loPI   C4A 3466  12.436   3.321   9.059  0.1376  0.3634  0.1535
  217loPI   C5A 3467  12.110   3.116   8.781 -0.0859 -0.0843  0.1341
  217loPI   C6A 3468  11.818   2.847   8.552 -0.1682  0.1345 -0.1891
  217loPI   C1B 3469  11.791   3.316  10.247  0.0991 -0.0084 -0.0471
  217loPI   C2B 3470  11.793   3.380   9.904 -0.0206 -0.1069 -0.1642
  217loPI   C3B 3471  11.909   3.385   9.501 -0.3184 -0.1631  0.0553
  217loPI   C4B 3472  11.940   3.503   9.016  0.0086  0.1064 -0.1081
  218loPI    C1 3473   8.121  15.221  10.633  0.0310  0.1082 -0.2366
  218loPI    C2 3474   8.081  15.197  11.030 -0.0879  0.1583 -0.2450
  218loPI    C3 3475   8.302  15.489  10.869 -0.0189  0.1230 -0.2150
  218loPI   PO4 3476   7.970  15.276  10.546  0.0778 -0.0023  0.1964
  218loPI   GL1 3477   7.940  15.369  10.072 -0.2573  0.0168  0.2965
  218loPI   GL2 3478   7.670  15.577   9.911 -0.0904  0.0743  0.0629
  218loPI   C1A 3479   8.104  15.455   9.694 -0.3683  0.1422  0.0737
  218loPI   C2A 3480   7.979  15.640   9.262 -0.0130 -0.0090 -0.2608
  218loPI   C3A 3481   8.039  15.663   8.788 -0.0659  0.1356 -0.0145
  218loPI   C4A 3482   8.042  15.537   8.417 -0.0428 -0.2573  0.0130
  218loPI   C5A 3483   7.839  15.536   7.964  0.0381 -0.1408 -0.1460
  218loPI   C6A 3484   7.804  15.798   7.583  0.1837 -0.0340  0.0730
  218loPI   C1B 3485   7.581  15.660   9.541  0.0213  0.3087  0.0776
  218loPI   C2B 3486   7.533  15.807   9.096  0.4083  0.0270 -0.1844
  218loPI   C3B 3487   7.325  15.831   8.734  0.1329 -0.1912 -0.1391
  218loPI   C4B 3488   7.133  15.967   8.274  0.1358  0.0542  0.0708
  219loPI    C1 3489  17.145  11.943  11.086  0.0294 -0.1871 -0.0277
  219loPI    C2 3490  16.972  11.586  11.140 -0.0427 -0.1070  0.2883
  219loPI    C3 3491  16.893  11.887  11.392  0.1125  0.0980  0.0958
  219loPI   PO4 3492  17.187  11.932  10.839 -0.1749 -0.1383 -0.0117
  219loPI   GL1 3493  17.515  12.088  10.575  0.0122 -0.1766  0.0269
  219loPI   GL2 3494  17.566  11.801  10.511  0.0529 -0.0328 -0.1091
  219loPI   C1A 3495  17.615  12.104  10.161  0.0579  0.1255 -0.0402
  219loPI   C2A 3496  17.706  12.266   9.834  0.1166  0.0880  0.1566
  219loPI   C3A 3497  17.630  12.248   9.407 -0.0809  0.3660 -0.1651
  219loPI   C4A 3498  17.683  12.068   8.934 -0.1944 -0.0033 -0.1639
  219loPI   C5A 3499  17.728  11.936   8.517 -0.0975  0.1532 -0.4320
  219loPI   C6A 3500  18.011  11.698   8.256 -0.3536  0.0619  0.2250
  219loPI   C1B 3501  17.326  11.721  10.066  0.0926 -0.1086 -0.0727
  219loPI   C2B 3502  17.326  11.894   9.698  0.0751 -0.3492  0.1102
  219loPI   C3B 3503  17.394  11.849   9.248  0.0527 -0.3559  0.1932
  219loPI   C4B 3504  17.266  11.723   8.766 -0.0365  0.1083  0.5876
  220loPI    C1 3505  16.358  10.284  10.986 -0.0604 -0.2918  0.2705
  220loPI    C2 3506  16.270  10.641  11.142 -0.0989 -0.1412 -0.0867
  220loPI    C3 3507  16.569  10.425  11.295 -0.1018  0.0239  0.1584
  220loPI   PO4 3508  16.489  10.382  10.681 -0.0404  0.1770  0.1625
  220loPI   GL1 3509  16.466  10.494  10.302 -0.1225  0.1752 -0.0466
  220loPI   GL2 3510  16.127  10.619  10.229 -0.0222 -0.1975 -0.1084
  220loPI   C1A 3511  16.630  10.506   9.929  0.1014 -0.4535 -0.0355
  220loPI   C2A 3512  16.640  10.485   9.492 -0.0416  0.0384  0.0241
  220loPI   C3A 3513  16.608  10.454   9.077 -0.2284  0.0525  0.0713
  220loPI   C4A 3514  16.643  10.376   8.716  0.1788 -0.2006  0.2821
  220loPI   C5A 3515  16.567  10.490   8.291  0.0665 -0.1193  0.2149
  220loPI   C6A 3516  16.561  10.830   7.936  0.3280  0.3603 -0.1135
  220loPI   C1B 3517  16.196  10.613   9.721 -0.0280 -0.0543  0.0872
  220loPI   C2B 3518  16.140  10.603   9.163 -0.2194 -0.2616  0.0280
  220loPI   C3B 3519  16.135  10.473   8.794 -0.2186 -0.2673 -0.1811
  220loPI   C4B 3520  16.009  10.455   8.286 -0.5602 -0.0210 -0.0334
  221loPI    C1 3521  10.397   3.867  11.569  0.2108  0.1271 -0.1148
  221loPI    C2 3522  10.056   4.005  11.726  0.1472  0.0983 -0.2265
  221loPI    C3 3523  10.184   3.638  11.818  0.2321  0.1697 -0.0573
  221loPI   PO4 3524  10.405   3.867  11.268 -0.0741  0.1404 -0.0805
  221loPI   GL1 3525  10.581   4.087  11.006 -0.0423 -0.0099 -0.0662
  221loPI   GL2 3526  10.876   4.260  10.961 -0.1484  0.2482  0.0345
  221loPI   C1A 3527  10.204   4.242  10.706  0.1347  0.0252  0.0800
  221loPI   C2A 3528  10.231   4.369  10.295 -0.0330  0.1603  0.0796
  221loPI   C3A 3529  10.208   4.356   9.820 -0.0680  0.3739 -0.0013
  221loPI   C4A 3530  10.271   4.344   9.470 -0.0710 -0.2470  0.0374
  221loPI   C5A 3531  10.449   4.417   9.108  0.1207 -0.0029  0.4367
  221loPI   C6A 3532  10.745   4.295   8.850 -0.1133 -0.1216 -0.1426
  221loPI   C1B 3533  10.678   4.164  10.502  0.0598  0.1530  0.0066
  221loPI   C2B 3534  10.701   4.240  10.123 -0.0724  0.2636 -0.0210
  221loPI   C3B 3535  10.687   4.214   9.702 -0.0233  0.0153  0.3037
  221loPI   C4B 3536  10.825   4.215   9.341 -0.4473 -0.0150  0.0453
  222loPI    C1 3537  15.600  17.027  10.688 -0.0138  0.0287 -0.0719
  222loPI    C2 3538  15.340  16.728  10.748 -0.0601  0.0834  0.0006
  222loPI    C3 3539  15.587  16.841  11.042  0.0721  0.0071 -0.0800
  222loPI   PO4 3540  15.748  16.998  10.513 -0.1916 -0.0759  0.2927
  222loPI   GL1 3541  15.773  17.166  10.175  0.2475  0.3400  0.1225
  222loPI   GL2 3542  15.860  17.489  10.054  0.2971 -0.1524 -0.2899
  222loPI   C1A 3543  15.498  17.176   9.890  0.0591 -0.2800  0.1717
  222loPI   C2A 3544  15.458  17.161   9.456 -0.0327  0.1015  0.3712
  222loPI   C3A 3545  15.575  17.050   8.978 -0.0240  0.1289  0.1441
  222loPI   C4A 3546  15.624  17.085   8.499 -0.0057  0.6293 -0.1782
  222loPI   C5A 3547  15.779  17.049   8.061  0.0903 -0.0552 -0.2728
  222loPI   C6A 3548  15.949  16.957   7.695 -0.3315 -0.1714  0.1413
  222loPI   C1B 3549  15.847  17.528   9.630 -0.1602  0.1297 -0.3017
  222loPI   C2B 3550  15.813  17.456   9.246 -0.0191  0.2398 -0.0673
  222loPI   C3B 3551  15.925  17.614   8.938  0.1780 -0.2483 -0.2792
  222loPI   C4B 3552  16.037  17.707   8.487  0.1597 -0.0144  0.1014
  223loPI    C1 3553   1.823  13.183  11.007  0.1355  0.0273  0.1456
  223loPI    C2 3554   1.700  12.806  11.063  0.1550  0.0074  0.0577
  223loPI    C3 3555   1.806  13.031  11.377 -0.2010  0.0580  0.1459
  223loPI   PO4 3556   1.618  13.370  10.727  0.0662  0.0381  0.0400
  223loPI   GL1 3557   1.665  13.368  10.311  0.2403 -0.1418 -0.0214
  223loPI   GL2 3558   1.374  13.202  10.286  0.1640 -0.0333  0.1077
  223loPI   C1A 3559   2.009  13.104  10.241  0.0080 -0.0534 -0.1840
  223loPI   C2A 3560   2.173  12.967   9.838  0.3198 -0.0202 -0.2912
  223loPI   C3A 3561   2.057  12.788   9.454  0.1956 -0.1473 -0.1002
  223loPI   C4A 3562   1.969  12.935   8.985 -0.1932 -0.0887 -0.2786
  223loPI   C5A 3563   1.890  12.968   8.575  0.0570  0.0148  0.3075
  223loPI   C6A 3564   1.813  13.115   8.135 -0.0329 -0.0345  0.0854
  223loPI   C1B 3565   1.503  13.019   9.948  0.0136  0.1243 -0.0265
  223loPI   C2B 3566   1.599  13.072   9.520 -0.2445  0.0330 -0.0574
  223loPI   C3B 3567   1.517  13.078   9.015  0.4396  0.4253 -0.1915
  223loPI   C4B 3568   1.420  13.014   8.659  0.1207 -0.2408  0.0739
  224loPI    C1 3569  13.430   9.252  10.836  0.1326  0.3096 -0.1253
  224loPI    C2 3570  13.237   9.492  11.091  0.0396  0.1689 -0.0624
  224loPI    C3 3571  13.197   9.095  11.120  0.3708  0.1357 -0.0220
  224loPI   PO4 3572  13.306   9.351  10.622  0.4182  0.3563  0.2423
  224loPI   GL1 3573  13.279   9.364  10.201 -0.2242  0.2907  0.0671
  224loPI   GL2 3574  13.544   9.619  10.250  0.1364  0.0587 -0.3226
  224loPI   C1A 3575  13.298   9.060   9.850  0.0360 -0.3707  0.0999
  224loPI   C2A 3576  13.413   9.026   9.440  0.0416  0.0869  0.0616
  224loPI   C3A 3577  13.256   8.968   8.960 -0.2993 -0.0850  0.2727
  224loPI   C4A 3578  13.304   8.900   8.544  0.1194 -0.1550 -0.2012
  224loPI   C5A 3579  13.449   9.136   8.183 -0.0316  0.0621 -0.3204
  224loPI   C6A 3580  13.362   9.495   7.951 -0.0238 -0.3315 -0.2118
  224loPI   C1B 3581  13.627   9.521   9.805  0.1529 -0.0331  0.1089
  224loPI   C2B 3582  13.759   9.386   9.457  0.2734 -0.2981 -0.0578
  224loPI   C3B 3583  13.683   9.372   8.963  0.0565 -0.1081 -0.1012
  224loPI   C4B 3584  13.687   9.538   8.482  0.0635 -0.0261  0.2182
  225loPI    C1 3585  14.500  10.015  11.098  0.1065  0.1736 -0.0462
  225loPI    C2 3586  14.877  10.079  11.215  0.0731  0.1117  0.0971
  225loPI    C3 3587  14.572  10.211  11.438  0.0095  0.1354 -0.0030
  225loPI   PO4 3588  14.503  10.089  10.892  0.0327  0.0255  0.2564
  225loPI   GL1 3589  14.746  10.007  10.502  0.0594  0.0915 -0.1130
  225loPI   GL2 3590  14.655  10.295  10.459  0.1908  0.1012 -0.1517
  225loPI   C1A 3591  14.491   9.776  10.148 -0.0785 -0.0388 -0.2556
  225loPI   C2A 3592  14.486   9.698   9.754 -0.0420  0.0095  0.0327
  225loPI   C3A 3593  14.629   9.689   9.394  0.2196  0.2276 -0.1452
  225loPI   C4A 3594  14.528   9.584   9.040  0.0538  0.0637  0.0187
  225loPI   C5A 3595  14.574   9.366   8.669  0.0829  0.1638 -0.0574
  225loPI   C6A 3596  14.589   9.246   8.289 -0.3739  0.2882  0.0650
  225loPI   C1B 3597  14.851  10.049   9.984 -0.0704  0.1692  0.1370
  225loPI   C2B 3598  14.887  10.080   9.532 -0.3146  0.1559  0.0277
  225loPI   C3B 3599  14.925  10.024   9.158  0.2499  0.2333  0.1955
  225loPI   C4B 3600  14.909  10.017   8.781 -0.0173  0.0803 -0.5574
  226loPI    C1 3601  16.418  15.235  10.705 -0.1423  0.0174  0.1094
  226loPI    C2 3602  16.277  15.599  10.790  0.0731  0.1016  0.1130
  226loPI    C3 3603  16.124  15.278  10.973 -0.2444  0.1696 -0.0246
  226loPI   PO4 3604  16.621  15.151  10.739 -0.2182  0.2846 -0.3306
  226loPI   GL1 3605  16.752  15.053  10.335 -0.3894 -0.2804  0.0031
  226loPI   GL2 3606  16.612  14.667  10.388 -0.0827  0.0299 -0.1726
  226loPI   C1A 3607  16.835  15.339  10.065  0.3006  0.0452 -0.2930
  226loPI   C2A 3608  16.910  15.402   9.625 -0.2357  0.0950 -0.0020
  226loPI   C3A 3609  16.916  15.347   9.183 -0.0814 -0.2618 -0.0229
  226loPI   C4A 3610  17.009  15.194   8.747  0.0228  0.0149  0.1368
  226loPI   C5A 3611  17.101  15.034   8.319 -0.1911 -0.1268  0.2504
  226loPI   C6A 3612  17.546  14.732   8.355 -0.1358  0.1291  0.2163
  226loPI   C1B 3613  16.597  14.623  10.039  0.3923  0.1051  0.4621
  226loPI   C2B 3614  16.698  14.537   9.619  0.0608 -0.1320 -0.0225
  226loPI   C3B 3615  16.684  14.473   9.176  0.0074  0.2482 -0.0321
  226loPI   C4B 3616  16.671  14.328   8.764 -0.0272 -0.0060  0.3954
  227loPI    C1 3617  11.555   7.626  11.195 -0.0588 -0.1137 -0.0621
  227loPI    C2 3618  11.425   7.379  11.482 -0.2036  0.1558  0.1094
  227loPI    C3 3619  11.408   7.775  11.536  0.0588  0.2062 -0.1470
  227loPI   PO4 3620  11.475   7.481  10.932  0.0518 -0.2682 -0.0491
  227loPI   GL1 3621  11.134   7.506  10.602 -0.0209 -0.1692  0.1170
  227loPI   GL2 3622  11.392   7.661  10.403  0.2694 -0.1364 -0.2580
  227loPI   C1A 3623  11.011   7.122  10.357 -0.1716  0.2461  0.2487
  227loPI   C2A 3624  10.947   6.967   9.975 -0.3622  0.1568  0.1219
  227loPI   C3A 3625  10.949   6.893   9.510 -0.2388 -0.1108  0.2261
  227loPI   C4A 3626  11.028   6.996   9.147 -0.0324 -0.2519  0.0971
  227loPI   C5A 3627  10.997   6.827   8.759 -0.0539  0.2425  0.0523
  227loPI   C6A 3628  11.074   6.881   8.386 -0.1713  0.2576  0.0659
  227loPI   C1B 3629  11.718   7.622  10.180 -0.2732  0.0865  0.1275
  227loPI   C2B 3630  11.849   7.659   9.771  0.1054 -0.1635  0.2757
  227loPI   C3B 3631  11.811   7.608   9.323  0.1556 -0.4455 -0.1407
  227loPI   C4B 3632  11.873   7.777   8.996  0.4889  0.0656 -0.1416
  228loPI    C1 3633   0.990   0.348  11.437 -0.1911 -0.0909 -0.0452
  228loPI    C2 3634   1.047  -0.045  11.390  0.0860 -0.0627  0.0416
  228loPI    C3 3635   0.735   0.087  11.603 -0.2629 -0.2237 -0.3560
  228loPI   PO4 3636   0.964   0.440  11.173 -0.1653 -0.3071  0.2288
  228loPI   GL1 3637   0.872   0.474  10.715  0.1278  0.1870  0.2274
  228loPI   GL2 3638   1.114   0.718  10.578 -0.0177 -0.0261 -0.0396
  228loPI   C1A 3639   0.880   0.453  10.270  0.0429 -0.0943  0.1013
  228loPI   C2A 3640   0.838   0.378   9.838 -0.1069 -0.3618  0.4062
  228loPI   C3A 3641   0.817   0.373   9.389  0.1968  0.4996  0.1925
  228loPI   C4A 3642   0.781   0.313   9.026  0.1581  0.0192 -0.0345
  228loPI   C5A 3643   0.709   0.254   8.498  0.0791 -0.0460 -0.2253
  228loPI   C6A 3644   0.463   0.227   8.143  0.0081  0.0795 -0.0504
  228loPI   C1B 3645   1.158   0.847  10.143  0.0234  0.1644  0.1646
  228loPI   C2B 3646   1.135   0.773   9.663 -0.2195  0.0724  0.1065
  228loPI   C3B 3647   1.151   0.706   9.208 -0.4451 -0.2165 -0.1306
  228loPI   C4B 3648   1.249   0.864   8.836 -0.0833 -0.0137 -0.4712
  229loPI    C1 3649   3.506   5.794  11.188  0.0542  0.3066 -0.0930
  229loPI    C2 3650   3.846   5.672  11.359 -0.0814  0.1892  0.0964
  229loPI    C3 3651   3.519   5.442  11.377 -0.2003  0.3493  0.0080
  229loPI   PO4 3652   3.539   5.832  10.980  0.1834  0.1175  0.0349
  229loPI   GL1 3653   3.803   5.713  10.571 -0.1399  0.2760 -0.0160
  229loPI   GL2 3654   3.476   5.513  10.469  0.1706  0.3077 -0.0555
  229loPI   C1A 3655   3.844   5.845  10.162  0.2749 -0.0706  0.0910
  229loPI   C2A 3656   3.872   5.818   9.676  0.3514  0.1388  0.1707
  229loPI   C3A 3657   3.859   5.735   9.215  0.0938  0.1607 -0.0895
  229loPI   C4A 3658   3.908   5.691   8.767 -0.0947 -0.0928  0.0908
  229loPI   C5A 3659   3.868   5.440   8.479 -0.0854 -0.0119 -0.1110
  229loPI   C6A 3660   3.442   5.366   8.255 -0.0928 -0.0082 -0.0376
  229loPI   C1B 3661   3.389   5.457  10.051  0.0565 -0.1761 -0.0142
  229loPI   C2B 3662   3.435   5.509   9.619  0.0829  0.2150  0.2334
  229loPI   C3B 3663   3.526   5.349   9.289 -0.1870 -0.4324  0.0912
  229loPI   C4B 3664   3.490   5.414   8.828  0.2727  0.1316 -0.0882
  230loPI    C1 3665  12.155  10.129  10.788  0.1414 -0.0995  0.1201
  230loPI    C2 3666  11.983  10.441  10.970 -0.1197 -0.0943 -0.1285
  230loPI    C3 3667  11.912  10.070  11.100 -0.0225 -0.0691 -0.0007
  230loPI   PO4 3668  12.078  10.139  10.521 -0.3908 -0.2517  0.3216
  230loPI   GL1 3669  12.253  10.192  10.148  0.0406 -0.1419  0.1567
  230loPI   GL2 3670  12.147   9.856  10.078 -0.0573  0.1147 -0.1211
  230loPI   C1A 3671  12.222  10.247   9.721 -0.0469  0.3938 -0.1395
  230loPI   C2A 3672  12.166  10.196   9.348  0.0736 -0.2605 -0.1094
  230loPI   C3A 3673  12.059  10.193   8.947  0.1241  0.1048  0.3164
  230loPI   C4A 3674  11.947  10.288   8.550 -0.1321 -0.2465 -0.0940
  230loPI   C5A 3675  11.906   9.913   8.184 -0.1165  0.3419 -0.0502
  230loPI   C6A 3676  11.991   9.760   7.816  0.0639  0.3498  0.3434
  230loPI   C1B 3677  12.134   9.695   9.628 -0.0709 -0.0556  0.0516
  230loPI   C2B 3678  12.153   9.702   9.139 -0.1747 -0.1874  0.1812
  230loPI   C3B 3679  12.058   9.739   8.660  0.1965 -0.0426 -0.1506
  230loPI   C4B 3680  12.361   9.765   8.243 -0.0706  0.1061  0.0003
  231loPI    C1 3681  15.719   8.933  11.035  0.1670  0.0227 -0.0018
  231loPI    C2 3682  15.917   8.709  11.301  0.0152 -0.0278  0.0702
  231loPI    C3 3683  15.904   9.107  11.344  0.3118  0.0003 -0.0754
  231loPI   PO4 3684  15.842   8.840  10.787 -0.1938  0.3552 -0.2361
  231loPI   GL1 3685  15.600   8.813  10.410 -0.1810  0.0431  0.1046
  231loPI   GL2 3686  15.833   9.070  10.273  0.2354  0.1772  0.2740
  231loPI   C1A 3687  15.246   9.015  10.153  0.1984 -0.3135  0.0103
  231loPI   C2A 3688  15.179   8.955   9.683  0.0287 -0.0045  0.0674
  231loPI   C3A 3689  15.264   8.890   9.277  0.1258 -0.0394  0.0183
  231loPI   C4A 3690  15.101   8.989   8.815 -0.0796  0.0158  0.1831
  231loPI   C5A 3691  15.062   9.205   8.429  0.1277 -0.0349  0.0425
  231loPI   C6A 3692  14.862   9.648   8.435 -0.2521  0.0360 -0.0203
  231loPI   C1B 3693  15.644   8.913   9.878  0.1610 -0.0693  0.0247
  231loPI   C2B 3694  15.709   8.841   9.413 -0.0002 -0.1420  0.0264
  231loPI   C3B 3695  15.731   8.816   9.025  0.2596  0.2515 -0.0861
  231loPI   C4B 3696  15.594   8.921   8.691  0.3405  0.2722  0.2376
  232loPI    C1 3697   6.567  12.806  10.564 -0.0283  0.2969  0.1424
  232loPI    C2 3698   6.557  13.068  10.866 -0.1714  0.2131  0.2114
  232loPI    C3 3699   6.376  12.713  10.903  0.0974  0.0673  0.1522
  232loPI   PO4 3700   6.513  12.886  10.406 -0.1410 -0.0499  0.1235
  232loPI   GL1 3701   6.318  12.698  10.084  0.1349  0.0803  0.0393
  232loPI   GL2 3702   5.986  12.739   9.904  0.2770 -0.0448 -0.2052
  232loPI   C1A 3703   6.456  12.509   9.681 -0.1247 -0.2234 -0.0898
  232loPI   C2A 3704   6.489  12.571   9.167 -0.1166 -0.0700 -0.3171
  232loPI   C3A 3705   6.316  12.715   8.881 -0.0808  0.0520 -0.0925
  232loPI   C4A 3706   6.188  12.751   8.445  0.0564 -0.4122  0.2047
  232loPI   C5A 3707   5.812  12.849   8.211  0.1452  0.1758  0.0026
  232loPI   C6A 3708   5.705  13.254   8.113 -0.1587  0.1933 -0.2634
  232loPI   C1B 3709   5.848  12.773   9.519 -0.1088 -0.1400  0.0397
  232loPI   C2B 3710   5.790  12.730   9.135 -0.0478  0.2554 -0.0924
  232loPI   C3B 3711   5.680  12.684   8.698  0.1990  0.1844  0.0211
  232loPI   C4B 3712   5.264  12.720   8.280 -0.2796  0.1523 -0.1825
  233loPI    C1 3713  14.854   5.713  11.650  0.1320  0.0281 -0.1549
  233loPI    C2 3714  14.754   5.496  11.970 -0.2097  0.2561 -0.1010
  233loPI    C3 3715  15.105   5.688  11.960 -0.0263 -0.0664 -0.0331
  233loPI   PO4 3716  14.780   5.621  11.476  0.0998  0.1451 -0.3568
  233loPI   GL1 3717  14.622   5.510  11.100  0.1998 -0.2812 -0.0287
  233loPI   GL2 3718  14.899   5.504  10.858 -0.3237  0.0687 -0.2942
  233loPI   C1A 3719  14.335   5.578  10.753 -0.3631 -0.2325 -0.3650
  233loPI   C2A 3720  14.079   5.490  10.498 -0.0760  0.2631  0.0628
  233loPI   C3A 3721  14.151   5.509  10.058  0.2300  0.2754 -0.3115
  233loPI   C4A 3722  14.100   5.620   9.695  0.0168 -0.3031 -0.0404
  233loPI   C5A 3723  14.190   5.625   9.258 -0.0467  0.1390  0.0911
  233loPI   C6A 3724  14.154   5.578   8.813 -0.0018  0.0210  0.0104
  233loPI   C1B 3725  15.050   5.749  10.437  0.1113  0.2053  0.1110
  233loPI   C2B 3726  15.048   5.821  10.048  0.0720 -0.0086 -0.1671
  233loPI   C3B 3727  14.997   5.803   9.577  0.1154  0.1907 -0.1035
  233loPI   C4B 3728  14.981   5.693   9.229 -0.0256  0.1629  0.1264
  234loPI    C1 3729  10.118  10.781  10.874 -0.1282  0.1371 -0.0115
  234loPI    C2 3730  10.374  10.740  11.178 -0.2282  0.0195  0.0578
  234loPI    C3 3731   9.995  10.848  11.249 -0.2762 -0.0991 -0.0154
  234loPI   PO4 3732  10.258  10.812  10.616  0.3684 -0.0263 -0.2255
  234loPI   GL1 3733  10.151  10.939  10.206 -0.0731  0.1016  0.2230
  234loPI   GL2 3734  10.503  11.013  10.150 -0.0042 -0.2317 -0.2784
  234loPI   C1A 3735  10.072  10.668   9.915 -0.0861  0.1919  0.1031
  234loPI   C2A 3736  10.170  10.550   9.482  0.1320 -0.1786 -0.3175
  234loPI   C3A 3737  10.121  10.459   9.079 -0.2556  0.1062 -0.1001
  234loPI   C4A 3738  10.132  10.462   8.612  0.2129 -0.2122  0.0759
  234loPI   C5A 3739  10.076  10.543   8.194 -0.0296  0.0430 -0.0159
  234loPI   C6A 3740   9.856  10.407   7.843 -0.0249 -0.0850  0.0190
  234loPI   C1B 3741  10.473  10.927   9.716 -0.2322 -0.2754 -0.1156
  234loPI   C2B 3742  10.429  10.918   9.249  0.0330 -0.1705  0.1505
  234loPI   C3B 3743  10.422  10.988   8.763  0.0345  0.0175  0.1741
  234loPI   C4B 3744  10.528  10.829   8.366  0.1516 -0.0986  0.2268
  235loPI    C1 3745  16.032   6.829  11.526  0.0308 -0.0389  0.2014
  235loPI    C2 3746  15.697   7.047  11.541 -0.0034 -0.0646 -0.1272
  235loPI    C3 3747  15.807   6.828  11.857 -0.1456  0.1644  0.0843
  235loPI   PO4 3748  16.063   6.767  11.272 -0.1452  0.2120  0.1975
  235loPI   GL1 3749  16.092   6.778  10.880  0.1011  0.0319 -0.3442
  235loPI   GL2 3750  16.281   7.091  10.854 -0.3900  0.0473  0.0449
  235loPI   C1A 3751  15.831   6.578  10.571 -0.0745  0.1265 -0.1395
  235loPI   C2A 3752  15.849   6.528  10.230  0.0327  0.0976  0.0987
  235loPI   C3A 3753  15.792   6.446   9.743 -0.1104 -0.0277 -0.2373
  235loPI   C4A 3754  15.765   6.490   9.197 -0.1278  0.2182 -0.1475
  235loPI   C5A 3755  15.780   6.603   8.733  0.3341 -0.0997  0.2330
  235loPI   C6A 3756  15.948   6.967   8.511 -0.1257  0.0320 -0.0582
  235loPI   C1B 3757  16.214   6.943  10.428 -0.1970  0.1784  0.2178
  235loPI   C2B 3758  16.233   6.879   9.975 -0.0180  0.0331  0.4227
  235loPI   C3B 3759  16.163   6.841   9.617 -0.2433  0.1060  0.2416
  235loPI   C4B 3760  16.175   6.804   9.150 -0.1335 -0.0534  0.0602
  236loPI    C1 3761  11.430  13.482  10.488  0.0683  0.0434  0.2479
  236loPI    C2 3762  11.251  13.127  10.445 -0.0081  0.0955  0.1293
  236loPI    C3 3763  11.237  13.317  10.797  0.0609 -0.0334  0.2026
  236loPI   PO4 3764  11.471  13.519  10.225 -0.0669  0.1759 -0.0864
  236loPI   GL1 3765  11.682  13.868   9.960  0.0451  0.2126 -0.2434
  236loPI   GL2 3766  11.940  13.891   9.743  0.0122 -0.3383  0.1460
  236loPI   C1A 3767  11.537  13.858   9.467  0.0556 -0.0376 -0.1933
  236loPI   C2A 3768  11.596  13.764   9.024 -0.2763 -0.4386 -0.1763
  236loPI   C3A 3769  11.605  13.675   8.589  0.1052 -0.1504  0.0282
  236loPI   C4A 3770  11.561  13.453   8.212  0.2243  0.2690  0.0943
  236loPI   C5A 3771  11.398  13.289   7.820  0.3246  0.1384  0.1200
  236loPI   C6A 3772  11.184  13.254   7.339  0.1464 -0.0200  0.0696
  236loPI   C1B 3773  12.004  13.790   9.280  0.0380  0.0391 -0.1406
  236loPI   C2B 3774  12.095  13.755   8.878  0.1588  0.1085  0.4381
  236loPI   C3B 3775  12.107  13.695   8.487 -0.2219  0.1886 -0.1954
  236loPI   C4B 3776  11.960  13.701   8.091 -0.0667 -0.0842  0.2961
  237loPI    C1 3777   4.121  12.915  10.812  0.0355 -0.0643 -0.1304
  237loPI    C2 3778   3.800  12.811  11.027 -0.0274  0.0571 -0.1644
  237loPI    C3 3779   3.984  13.158  11.099  0.1603 -0.0596 -0.0748
  237loPI   PO4 3780   4.156  12.949  10.578  0.1057  0.1342 -0.1128
  237loPI   GL1 3781   4.520  13.022  10.320 -0.0327  0.1268 -0.1743
  237loPI   GL2 3782   4.446  13.270  10.164 -0.3422 -0.2896 -0.0902
  237loPI   C1A 3783   4.545  12.799   9.963 -0.0084  0.1499 -0.1237
  237loPI   C2A 3784   4.548  12.683   9.657  0.2916 -0.0190 -0.0449
  237loPI   C3A 3785   4.623  12.571   9.225  0.1280 -0.2673 -0.2964
  237loPI   C4A 3786   4.518  12.702   8.836  0.2627  0.0609  0.2791
  237loPI   C5A 3787   4.717  12.917   8.471  0.0470  0.2265  0.0428
  237loPI   C6A 3788   4.759  12.706   8.039  0.1037  0.2925 -0.4070
  237loPI   C1B 3789   4.307  13.254   9.832 -0.2307  0.0034 -0.1585
  237loPI   C2B 3790   4.354  13.170   9.425 -0.3638 -0.1700  0.1023
  237loPI   C3B 3791   4.324  13.290   9.001  0.1301 -0.1021  0.0336
  237loPI   C4B 3792   4.244  13.335   8.637 -0.0846  0.0371  0.0903
  238loPI    C1 3793  13.681   8.969  11.177  0.0345 -0.1548 -0.0199
  238loPI    C2 3794  13.499   8.747  11.455 -0.0415 -0.1499 -0.0653
  238loPI    C3 3795  13.525   9.143  11.502  0.0772 -0.1658  0.0065
  238loPI   PO4 3796  13.663   8.767  10.956 -0.0213 -0.1537  0.0630
  238loPI   GL1 3797  13.678   8.691  10.478 -0.0784 -0.3141 -0.1275
  238loPI   GL2 3798  13.821   9.032  10.538  0.2461 -0.2396 -0.0789
  238loPI   C1A 3799  13.416   8.609  10.030  0.0850  0.1594 -0.3144
  238loPI   C2A 3800  13.423   8.594   9.638 -0.1333 -0.1666  0.2125
  238loPI   C3A 3801  13.441   8.507   9.235  0.1512  0.0034 -0.0143
  238loPI   C4A 3802  13.345   8.482   8.812 -0.1218 -0.1365  0.1025
  238loPI   C5A 3803  13.036   8.386   8.465  0.0343 -0.1314  0.2979
  238loPI   C6A 3804  12.638   8.460   8.455  0.3476 -0.0078  0.2811
  238loPI   C1B 3805  13.732   9.066  10.178 -0.0590 -0.0285 -0.1089
  238loPI   C2B 3806  13.802   8.918   9.769 -0.1310 -0.1634 -0.1563
  238loPI   C3B 3807  13.917   8.959   9.355  0.0228 -0.0044  0.1289
  238loPI   C4B 3808  13.760   8.898   8.983  0.0065  0.1135 -0.3658
  239loPI    C1 3809   0.399  16.143  10.795 -0.4194 -0.0857 -0.0427
  239loPI    C2 3810   0.281  15.805  10.975 -0.1652 -0.0431  0.2114
  239loPI    C3 3811   0.348  16.134  11.192  0.2188 -0.0099  0.0511
  239loPI   PO4 3812   0.515  15.979  10.524  0.1931 -0.1053  0.0375
  239loPI   GL1 3813   0.719  16.139  10.129  0.1312 -0.1239 -0.3125
  239loPI   GL2 3814   0.716  15.823  10.073  0.2188  0.2584 -0.1344
  239loPI   C1A 3815   0.737  16.302   9.710  0.0589  0.0613  0.3527
  239loPI   C2A 3816   0.814  16.295   9.232  0.1653  0.0282  0.2553
  239loPI   C3A 3817   0.841  16.130   8.807  0.1461 -0.0999 -0.1364
  239loPI   C4A 3818   0.941  16.139   8.384 -0.0619 -0.0302  0.1613
  239loPI   C5A 3819   0.982  16.262   8.010  0.0618 -0.0652 -0.2091
  239loPI   C6A 3820   1.105  16.274   7.533  0.0551  0.0391 -0.2908
  239loPI   C1B 3821   0.436  15.927   9.637 -0.1153  0.0249  0.0337
  239loPI   C2B 3822   0.533  15.890   9.150  0.0247  0.1396  0.0282
  239loPI   C3B 3823   0.789  15.668   8.876  0.1036  0.1138 -0.1100
  239loPI   C4B 3824   0.693  15.631   8.461  0.2852  0.0986 -0.0211
  240loPI    C1 3825   7.553   7.383  11.464 -0.2116 -0.1316 -0.2510
  240loPI    C2 3826   7.222   7.588  11.554 -0.0629  0.0011  0.0085
  240loPI    C3 3827   7.411   7.381  11.838  0.2853  0.2325 -0.0490
  240loPI   PO4 3828   7.559   7.446  11.125  0.0102 -0.5182 -0.2099
  240loPI   GL1 3829   7.652   7.310  10.713 -0.2259  0.1754  0.0450
  240loPI   GL2 3830   7.356   7.097  10.684 -0.1108 -0.0580 -0.5107
  240loPI   C1A 3831   7.614   7.246  10.278  0.0711 -0.0959  0.1462
  240loPI   C2A 3832   7.706   6.984   9.912  0.1166 -0.0089  0.1525
  240loPI   C3A 3833   7.682   6.969   9.386  0.1337 -0.1091 -0.1311
  240loPI   C4A 3834   7.586   6.947   8.934  0.0475  0.1261 -0.1199
  240loPI   C5A 3835   7.768   7.142   8.570 -0.1652 -0.2902  0.0079
  240loPI   C6A 3836   7.822   7.349   8.209 -0.4043  0.0336  0.2062
  240loPI   C1B 3837   7.356   6.752  10.323 -0.1816 -0.1221 -0.0854
  240loPI   C2B 3838   7.291   6.663   9.862 -0.0736 -0.2361  0.0181
  240loPI   C3B 3839   7.308   6.577   9.467  0.1825 -0.0846  0.0402
  240loPI   C4B 3840   7.271   6.651   9.112  0.1892 -0.0752  0.1297
  241loPI    C1 3841   7.539   0.656  11.115  0.0262  0.0491  0.0219
  241loPI    C2 3842   7.745   0.880  11.374  0.1944 -0.0667 -0.0099
  241loPI    C3 3843   7.448   0.646  11.504 -0.0662  0.2650  0.0077
  241loPI   PO4 3844   7.666   0.538  10.976  0.0399  0.0709  0.1428
  241loPI   GL1 3845   7.945   0.435  10.612 -0.3014 -0.1803 -0.0668
  241loPI   GL2 3846   8.082   0.644  10.493 -0.1945  0.0600  0.0025
  241loPI   C1A 3847   7.675   0.545  10.250  0.0906 -0.2026 -0.1714
  241loPI   C2A 3848   7.649   0.738   9.857  0.2204  0.0459  0.1262
  241loPI   C3A 3849   7.638   0.798   9.445 -0.0534  0.0911 -0.2568
  241loPI   C4A 3850   7.630   0.778   9.027  0.0527 -0.3133  0.2234
  241loPI   C5A 3851   7.749   0.929   8.595  0.1036 -0.1063  0.0391
  241loPI   C6A 3852   8.126   0.618   8.398  0.2131  0.0841  0.2244
  241loPI   C1B 3853   8.244   0.605  10.130 -0.3245  0.3600 -0.0370
  241loPI   C2B 3854   8.170   0.669   9.743 -0.0814 -0.2025 -0.1172
  241loPI   C3B 3855   8.121   0.626   9.305  0.1846  0.0360 -0.2959
  241loPI   C4B 3856   8.141   0.664   8.874 -0.1295 -0.0898 -0.0712
  242loPI    C1 3857  12.759  17.717  10.676  0.0424  0.0362  0.1218
  242loPI    C2 3858  12.757  17.330  10.776 -0.0323  0.0421  0.1438
  242loPI    C3 3859  12.788  17.609  11.060  0.4664  0.0432  0.0962
  242loPI   PO4 3860  12.573  17.763  10.540  0.2646 -0.0610  0.1567
  242loPI   GL1 3861  12.683  17.670  10.081 -0.1795  0.2659 -0.1482
  242loPI   GL2 3862  12.881  17.876  10.116 -0.1821  0.1897 -0.0298
  242loPI   C1A 3863  12.663  17.633   9.606  0.1183  0.0509 -0.3766
  242loPI   C2A 3864  12.658  17.728   9.125  0.0590  0.0041 -0.0190
  242loPI   C3A 3865  12.667  17.690   8.738  0.1067  0.3507  0.2082
  242loPI   C4A 3866  12.492  17.746   8.481 -0.0598 -0.1684  0.1255
  242loPI   C5A 3867  12.343  18.087   8.183 -0.1538  0.1666  0.0793
  242loPI   C6A 3868  12.201  18.532   8.129  0.0048 -0.0555 -0.2171
  242loPI   C1B 3869  13.000  17.985   9.765 -0.0780 -0.1812 -0.3153
  242loPI   C2B 3870  13.052  17.984   9.260 -0.1024 -0.1186 -0.1270
  242loPI   C3B 3871  13.025  18.045   8.782  0.2628  0.1195  0.0270
  242loPI   C4B 3872  12.914  17.968   8.206  0.1833 -0.0059 -0.1037
  243loPI    C1 3873  12.063   6.434  11.574  0.0861  0.1353 -0.0015
  243loPI    C2 3874  11.806   6.605  11.828 -0.0488 -0.0256 -0.0279
  243loPI    C3 3875  12.123   6.406  11.969  0.0206  0.1085  0.0068
  243loPI   PO4 3876  11.879   6.372  11.307  0.0165  0.0093  0.2729
  243loPI   GL1 3877  11.634   6.507  10.981  0.0416 -0.0766  0.0564
  243loPI   GL2 3878  11.347   6.609  10.955 -0.1689  0.1743 -0.1124
  243loPI   C1A 3879  11.541   6.382  10.590 -0.1242 -0.0629  0.2017
  243loPI   C2A 3880  11.532   6.305  10.077 -0.2761  0.0118  0.0981
  243loPI   C3A 3881  11.640   6.282   9.713 -0.2822  0.0755 -0.2560
  243loPI   C4A 3882  11.589   6.221   9.376  0.0673  0.2961 -0.0273
  243loPI   C5A 3883  11.436   6.125   8.894  0.0280  0.1104 -0.1286
  243loPI   C6A 3884  11.094   5.873   8.679  0.2269  0.0855  0.1471
  243loPI   C1B 3885  11.044   6.506  10.546  0.2163  0.2040 -0.0915
  243loPI   C2B 3886  11.060   6.423  10.073  0.1734  0.3505  0.0318
  243loPI   C3B 3887  11.148   6.272   9.662 -0.0612 -0.1170 -0.3529
  243loPI   C4B 3888  11.069   6.422   9.255 -0.3250  0.0081  0.0489
  244loPI    C1 3889  16.691   8.465  10.973  0.1039 -0.1533 -0.1495
  244loPI    C2 3890  16.427   8.491  11.273  0.1000  0.0479 -0.1685
  244loPI    C3 3891  16.743   8.248  11.305 -0.0046 -0.0787 -0.0825
  244loPI   PO4 3892  16.774   8.660  10.889  0.1397  0.2050 -0.3054
  244loPI   GL1 3893  16.877   9.019  10.598 -0.0018 -0.1547 -0.2250
  244loPI   GL2 3894  17.082   8.864  10.439  0.1056 -0.0560 -0.1859
  244loPI   C1A 3895  16.948   9.096  10.037  0.0367  0.0290 -0.1823
  244loPI   C2A 3896  16.985   8.893   9.674  0.0553  0.0172 -0.0176
  244loPI   C3A 3897  17.084   8.961   9.224  0.0741 -0.0503 -0.0956
  244loPI   C4A 3898  17.045   8.943   8.827  0.0242  0.1707 -0.0251
  244loPI   C5A 3899  17.022   8.806   8.383 -0.0642  0.1150 -0.2556
  244loPI   C6A 3900  17.030   8.645   7.970  0.0004 -0.0768  0.1910
  244loPI   C1B 3901  17.161   8.602  10.129 -0.0409  0.0934  0.0367
  244loPI   C2B 3902  17.069   8.404   9.762 -0.0954 -0.4468 -0.0302
  244loPI   C3B 3903  17.247   8.422   9.318 -0.3085  0.1131  0.0509
  244loPI   C4B 3904  17.104   8.468   8.936  0.0355 -0.1555 -0.1696
  245loPI    C1 3905  17.177   5.810  11.164  0.0511  0.4151 -0.2176
  245loPI    C2 3906  17.315   5.956  11.510  0.0905  0.2404 -0.1586
  245loPI    C3 3907  17.491   5.638  11.343 -0.0347  0.2197 -0.2524
  245loPI   PO4 3908  17.194   6.147  11.004 -0.2210  0.1355 -0.1606
  245loPI   GL1 3909  17.446   6.204  10.707  0.2155 -0.3947 -0.1759
  245loPI   GL2 3910  17.586   6.475  10.787  0.1984 -0.0381  0.1333
  245loPI   C1A 3911  17.367   6.080  10.262  0.1159 -0.0830  0.0244
  245loPI   C2A 3912  17.307   6.048   9.799 -0.1440  0.4625 -0.2639
  245loPI   C3A 3913  17.268   5.957   9.460  0.2451 -0.0655  0.0824
  245loPI   C4A 3914  17.212   5.896   9.044 -0.2200  0.0762 -0.2253
  245loPI   C5A 3915  17.314   6.132   8.607 -0.0175  0.0979 -0.1415
  245loPI   C6A 3916  17.218   5.988   8.164 -0.2640 -0.0718 -0.0761
  245loPI   C1B 3917  17.763   6.427  10.385  0.0747 -0.0675 -0.0388
  245loPI   C2B 3918  17.663   6.304   9.931 -0.1790 -0.1829 -0.2028
  245loPI   C3B 3919  17.617   6.353   9.538  0.0015  0.1307  0.1843
  245loPI   C4B 3920  17.533   6.380   9.127  0.2370  0.2102 -0.2673
  246loPI    C1 3921  17.044   9.524  11.000  0.0612 -0.1399  0.0709
  246loPI    C2 3922  17.279   9.820  10.868 -0.1458 -0.0640 -0.1341
  246loPI    C3 3923  17.437   9.463  10.955  0.0865  0.0686 -0.0028
  246loPI   PO4 3924  16.931   9.463  10.856  0.1210 -0.1190  0.1466
  246loPI   GL1 3925  17.021   9.499  10.460 -0.0225  0.0173  0.0059
  246loPI   GL2 3926  17.059   9.731  10.413  0.4654 -0.2032 -0.4803
  246loPI   C1A 3927  16.813   9.568  10.046  0.1333 -0.1805 -0.1212
  246loPI   C2A 3928  16.901   9.407   9.613  0.2397 -0.1387 -0.1190
  246loPI   C3A 3929  16.960   9.440   9.286 -0.0380 -0.0228  0.3155
  246loPI   C4A 3930  16.948   9.420   8.852 -0.0097 -0.0810 -0.0160
  246loPI   C5A 3931  16.919   9.284   8.476 -0.4173 -0.3387 -0.4362
  246loPI   C6A 3932  17.192   9.284   8.114  0.4769 -0.0149  0.0666
  246loPI   C1B 3933  17.212   9.841  10.028  0.1244 -0.0826 -0.0720
  246loPI   C2B 3934  17.227   9.831   9.649 -0.3099 -0.2599  0.0372
  246loPI   C3B 3935  17.223   9.838   9.208 -0.0465  0.0670  0.0094
  246loPI   C4B 3936  17.333   9.703   8.745 -0.0876 -0.2330  0.0841
  247loPI    C1 3937   6.188  14.657  10.646  0.3115  0.1804 -0.0547
  247loPI    C2 3938   6.502  14.518  10.852  0.1357  0.1286  0.1825
  247loPI    C3 3939   6.151  14.574  11.036 -0.0710 -0.0767 -0.1402
  247loPI   PO4 3940   6.319  14.821  10.505 -0.0282 -0.0136  0.0004
  247loPI   GL1 3941   6.405  14.761  10.122 -0.2643 -0.0214 -0.1917
  247loPI   GL2 3942   6.386  15.009  10.039  0.2699  0.0793 -0.2457
  247loPI   C1A 3943   6.353  14.560   9.754  0.1550 -0.0416  0.0414
  247loPI   C2A 3944   6.396  14.542   9.327  0.3731  0.0615 -0.0961
  247loPI   C3A 3945   6.355  14.495   8.991  0.3872 -0.1393 -0.2000
  247loPI   C4A 3946   6.165  14.758   8.595  0.2126 -0.0294  0.1417
  247loPI   C5A 3947   5.724  14.838   8.425  0.1227  0.0932 -0.3209
  247loPI   C6A 3948   5.342  14.867   8.282  0.2368  0.0706  0.1577
  247loPI   C1B 3949   6.367  15.027   9.593  0.0834 -0.1034  0.0289
  247loPI   C2B 3950   6.230  15.033   9.186  0.1848  0.0032  0.0546
  247loPI   C3B 3951   6.211  15.251   8.830 -0.1133  0.0976 -0.1216
  247loPI   C4B 3952   6.120  15.335   8.373  0.2064 -0.0198  0.0682
  248loPI    C1 3953  12.517  16.367  10.219 -0.3576  0.2204 -0.0313
  248loPI    C2 3954  12.703  16.452  10.563 -0.0460 -0.0086 -0.1386
  248loPI    C3 3955  12.370  16.649  10.461 -0.0146  0.2188  0.1854
  248loPI   PO4 3956  12.800  16.162  10.114 -0.0022  0.1659  0.1085
  248loPI   GL1 3957  12.839  15.892   9.749 -0.0919  0.0881 -0.0803
  248loPI   GL2 3958  12.874  16.211   9.581  0.0195  0.1532 -0.0700
  248loPI   C1A 3959  12.829  15.713   9.397  0.0749 -0.1190  0.2071
  248loPI   C2A 3960  12.791  15.675   8.981 -0.2264 -0.1558  0.2225
  248loPI   C3A 3961  12.571  15.784   8.562  0.2634 -0.0876  0.1555
  248loPI   C4A 3962  12.616  16.018   8.197  0.1038 -0.2298 -0.0667
  248loPI   C5A 3963  12.457  15.825   7.891 -0.0024  0.3701  0.2186
  248loPI   C6A 3964  12.302  15.578   7.551  0.1131  0.1894  0.3051
  248loPI   C1B 3965  12.884  16.159   9.161  0.0389 -0.1578 -0.1912
  248loPI   C2B 3966  12.907  16.276   8.794 -0.0100 -0.0082  0.0582
  248loPI   C3B 3967  13.031  16.142   8.442 -0.3553 -0.0773  0.4390
  248loPI   C4B 3968  13.406  16.039   8.202  0.2131  0.0084  0.0302
  249loPI    C1 3969  14.885   6.189  11.414 -0.0736  0.0964  0.1206
  249loPI    C2 3970  15.138   5.908  11.283 -0.0409  0.0286  0.3257
  249loPI    C3 3971  15.207   6.093  11.631 -0.2114  0.0927  0.3264
  249loPI   PO4 3972  14.802   6.322  11.186  0.0330 -0.3078  0.0502
  249loPI   GL1 3973  14.946   6.148  10.854 -0.3308 -0.0066 -0.2019
  249loPI   GL2 3974  14.695   5.928  10.773  0.1998 -0.0843 -0.0095
  249loPI   C1A 3975  14.936   6.225  10.334  0.0470 -0.1796  0.1447
  249loPI   C2A 3976  14.902   6.243   9.843 -0.1636  0.3794 -0.0268
  249loPI   C3A 3977  14.915   6.277   9.385 -0.0327  0.1664  0.2543
  249loPI   C4A 3978  14.897   6.366   9.025  0.1360 -0.0310 -0.0678
  249loPI   C5A 3979  14.817   6.298   8.569  0.0381 -0.1468 -0.0818
  249loPI   C6A 3980  14.614   6.116   8.298 -0.1470 -0.3081 -0.1137
  249loPI   C1B 3981  14.501   5.868  10.234 -0.1533  0.2003 -0.1843
  249loPI   C2B 3982  14.517   5.917   9.734 -0.0841  0.1240 -0.1694
  249loPI   C3B 3983  14.524   5.975   9.244  0.0380  0.2519 -0.1237
  249loPI   C4B 3984  14.663   5.884   8.754  0.1803  0.2036  0.0131
  250loPI    C1 3985   0.069   5.311  11.108 -0.2676  0.0470 -0.0892
  250loPI    C2 3986   0.004   5.149  11.467 -0.0502 -0.1088 -0.1189
  250loPI    C3 3987  -0.096   4.948  11.136 -0.1221 -0.0243 -0.1487
  250loPI   PO4 3988   0.336   5.305  11.069  0.3272 -0.3225 -0.1151
  250loPI   GL1 3989   0.469   5.639  10.771 -0.0948  0.0416 -0.0045
  250loPI   GL2 3990   0.310   5.483  10.618  0.0875  0.1650 -0.1766
  250loPI   C1A 3991   0.630   5.804  10.383 -0.0910  0.3153  0.0245
  250loPI   C2A 3992   0.624   5.807   9.884 -0.2286 -0.0428  0.3234
  250loPI   C3A 3993   0.456   5.845   9.453 -0.1922 -0.0853  0.0693
  250loPI   C4A 3994   0.463   5.739   9.033 -0.0739 -0.1084  0.2045
  250loPI   C5A 3995   0.294   5.689   8.603 -0.1962 -0.0468 -0.1031
  250loPI   C6A 3996   0.005   5.930   8.328  0.5410 -0.1024 -0.1362
  250loPI   C1B 3997   0.159   5.377  10.309 -0.2203 -0.2284  0.3064
  250loPI   C2B 3998   0.218   5.396   9.890  0.0968 -0.0076 -0.3261
  250loPI   C3B 3999   0.058   5.389   9.402 -0.1980  0.1121 -0.2903
  250loPI   C4B 4000   0.176   5.284   8.937 -0.1255 -0.0311 -0.2480
  251loPI    C1 4001   9.320   0.558  10.579 -0.1287  0.0130  0.1729
  251loPI    C2 4002   9.602   0.364  10.372 -0.2461  0.1089 -0.0812
  251loPI    C3 4003   9.596   0.342  10.771  0.0967  0.0750 -0.0750
  251loPI   PO4 4004   9.139   0.456  10.455 -0.1145  0.0435  0.1400
  251loPI   GL1 4005   9.020   0.611  10.202  0.0021  0.0722 -0.1975
  251loPI   GL2 4006   8.802   0.338  10.022  0.1817  0.1780 -0.0069
  251loPI   C1A 4007   9.131   0.779   9.787  0.0188  0.1630  0.1201
  251loPI   C2A 4008   9.068   0.847   9.379  0.3682 -0.1165  0.2320
  251loPI   C3A 4009   9.077   0.818   8.920  0.0199 -0.0801  0.2804
  251loPI   C4A 4010   9.172   1.034   8.526 -0.0694  0.1453 -0.0432
  251loPI   C5A 4011   9.428   1.227   8.233  0.1489 -0.1805  0.1302
  251loPI   C6A 4012   9.420   1.064   7.797 -0.1690 -0.2567  0.0203
  251loPI   C1B 4013   8.698   0.539   9.695 -0.1427  0.0554  0.1223
  251loPI   C2B 4014   8.590   0.572   9.325 -0.3385 -0.1755  0.0166
  251loPI   C3B 4015   8.677   0.543   8.950  0.0569 -0.1583  0.1714
  251loPI   C4B 4016   8.845   0.583   8.563 -0.1029 -0.0315  0.1503
  252loPI    C1 4017   0.951  16.774  10.739 -0.2129  0.0224  0.0209
  252loPI    C2 4018   0.690  16.542  10.935  0.0243 -0.1471  0.1418
  252loPI    C3 4019   1.074  16.547  11.045  0.1094 -0.0407 -0.1518
  252loPI   PO4 4020   1.006  16.701  10.466  0.3376 -0.1497 -0.0196
  252loPI   GL1 4021   0.891  16.612  10.063 -0.0236  0.2892  0.2007
  252loPI   GL2 4022   0.657  16.894  10.121  0.1976  0.0275  0.1481
  252loPI   C1A 4023   1.129  16.722   9.697 -0.0104  0.0719  0.1909
  252loPI   C2A 4024   1.241  16.770   9.236 -0.0977 -0.1450 -0.1250
  252loPI   C3A 4025   1.373  16.696   8.797 -0.0787  0.2015 -0.0693
  252loPI   C4A 4026   1.251  16.607   8.373  0.2264 -0.0694  0.3211
  252loPI   C5A 4027   1.427  16.863   8.020  0.2604  0.1807  0.0193
  252loPI   C6A 4028   1.884  16.824   7.919 -0.1300  0.0180 -0.1809
  252loPI   C1B 4029   0.606  16.821   9.711 -0.2624  0.1007  0.3953
  252loPI   C2B 4030   0.742  16.786   9.295  0.4027 -0.0808  0.1927
  252loPI   C3B 4031   0.757  16.754   8.883 -0.1956 -0.0191  0.5529
  252loPI   C4B 4032   0.733  16.583   8.549 -0.0820 -0.0385 -0.2252
  253loPI    C1 4033   0.151   8.895  11.080  0.0868  0.1723  0.0376
  253loPI    C2 4034  -0.093   9.139  11.281 -0.0047 -0.0412  0.1898
  253loPI    C3 4035   0.271   9.058  11.425  0.1326  0.2200 -0.0006
  253loPI   PO4 4036  -0.046   8.724  10.952 -0.0460  0.0391 -0.1159
  253loPI   GL1 4037  -0.246   8.657  10.584 -0.2313  0.0525 -0.0387
  253loPI   GL2 4038  -0.165   8.273  10.591  0.1136 -0.0127 -0.2344
  253loPI   C1A 4039  -0.077   8.760  10.171 -0.0411 -0.2008 -0.1831
  253loPI   C2A 4040  -0.220   8.693   9.748 -0.1147  0.0047  0.0530
  253loPI   C3A 4041  -0.191   8.790   9.325  0.1042 -0.3210 -0.1525
  253loPI   C4A 4042  -0.244   8.790   8.877 -0.0241 -0.1539 -0.1062
  253loPI   C5A 4043  -0.260   9.098   8.571  0.2061 -0.3078 -0.0992
  253loPI   C6A 4044  -0.176   9.510   8.341 -0.3524  0.2927  0.0853
  253loPI   C1B 4045  -0.092   8.296  10.184 -0.1401  0.0951  0.0681
  253loPI   C2B 4046  -0.015   8.234   9.734 -0.1056  0.0921  0.0679
  253loPI   C3B 4047  -0.045   8.183   9.322  0.1051 -0.1548 -0.0625
  253loPI   C4B 4048  -0.072   8.364   9.005  0.0211  0.0823  0.3761
  254loPI    C1 4049  15.778   8.221  11.226  0.0534  0.3790  0.3197
  254loPI    C2 4050  15.519   8.495  11.090 -0.1344  0.0631  0.0248
  254loPI    C3 4051  15.523   8.397  11.478 -0.3525  0.1810  0.0577
  254loPI   PO4 4052  15.714   8.007  11.030  0.5463 -0.0182 -0.0705
  254loPI   GL1 4053  15.600   8.063  10.692  0.2078  0.4036  0.1227
  254loPI   GL2 4054  15.630   8.354  10.588 -0.1287  0.1062  0.0441
  254loPI   C1A 4055  15.405   8.010  10.351 -0.0003  0.0303  0.0046
  254loPI   C2A 4056  15.314   7.989   9.922 -0.0896  0.0837  0.2025
  254loPI   C3A 4057  15.370   8.002   9.442  0.2839  0.0639  0.2392
  254loPI   C4A 4058  15.386   7.989   8.979 -0.1553  0.1219 -0.2297
  254loPI   C5A 4059  15.555   7.825   8.603  0.0813 -0.1157 -0.4112
  254loPI   C6A 4060  15.974   7.965   8.466 -0.1468  0.1240  0.1576
  254loPI   C1B 4061  15.845   8.436  10.238  0.3415  0.0138  0.0543
  254loPI   C2B 4062  15.876   8.439   9.756  0.0405 -0.0539 -0.0389
  254loPI   C3B 4063  15.794   8.335   9.298 -0.1264 -0.1619  0.1906
  254loPI   C4B 4064  15.775   8.402   8.838  0.1583 -0.0204 -0.3157
  255loPI    C1 4065   2.708  15.870  10.824 -0.2151  0.1532  0.0513
  255loPI    C2 4066   2.803  15.899  11.211  0.0340 -0.1618  0.0176
  255loPI    C3 4067   2.505  15.658  11.096 -0.0502 -0.0563  0.0137
  255loPI   PO4 4068   2.785  16.168  10.675 -0.1632 -0.2347 -0.0608
  255loPI   GL1 4069   2.585  16.368  10.306 -0.3892 -0.1525 -0.0046
  255loPI   GL2 4070   2.637  16.647  10.219 -0.0273 -0.4604  0.0321
  255loPI   C1A 4071   2.687  16.145   9.974  0.1412 -0.3523  0.2002
  255loPI   C2A 4072   2.633  16.178   9.541 -0.1128  0.0961 -0.2795
  255loPI   C3A 4073   2.748  16.178   9.075 -0.1561 -0.0448  0.4020
  255loPI   C4A 4074   2.644  16.187   8.654  0.0639 -0.2222  0.3263
  255loPI   C5A 4075   2.770  16.044   8.302  0.1285  0.2355  0.1130
  255loPI   C6A 4076   2.434  16.041   7.939  0.1985 -0.1240  0.1255
  255loPI   C1B 4077   2.508  16.623   9.795  0.0755 -0.2577  0.0746
  255loPI   C2B 4078   2.589  16.734   9.296  0.0692 -0.1283 -0.2433
  255loPI   C3B 4079   2.491  16.762   8.855 -0.2880 -0.1377  0.0184
  255loPI   C4B 4080   2.353  16.557   8.541 -0.0354 -0.1198 -0.0789
  256loPI    C1 4081  13.585   3.688  11.592 -0.3597 -0.0139  0.1413
  256loPI    C2 4082  13.533   4.075  11.506 -0.0369  0.0018  0.0013
  256loPI    C3 4083  13.817   3.964  11.765 -0.2875 -0.1266  0.2256
  256loPI   PO4 4084  13.497   3.577  11.360  0.3786  0.1184  0.1558
  256loPI   GL1 4085  13.588   3.732  10.942 -0.2190 -0.0950  0.2186
  256loPI   GL2 4086  13.317   3.988  11.034 -0.0669  0.0058  0.1084
  256loPI   C1A 4087  13.543   3.821  10.510  0.0910 -0.0632 -0.1120
  256loPI   C2A 4088  13.513   3.839  10.107 -0.1376 -0.1657 -0.0105
  256loPI   C3A 4089  13.648   3.763   9.725 -0.1798  0.1759 -0.2182
  256loPI   C4A 4090  13.749   3.881   9.278  0.1374 -0.0137  0.0349
  256loPI   C5A 4091  14.020   4.220   9.098  0.1195 -0.0032 -0.2198
  256loPI   C6A 4092  14.156   4.348   8.696 -0.2113  0.0974  0.0262
  256loPI   C1B 4093  13.364   4.245  10.672  0.0223  0.0279  0.0437
  256loPI   C2B 4094  13.507   4.303  10.265  0.0191 -0.2346 -0.1859
  256loPI   C3B 4095  13.470   4.275   9.850 -0.0145  0.2398 -0.3060
  256loPI   C4B 4096  13.516   4.337   9.447 -0.1525  0.1566  0.1747
  257loPI    C1 4097   5.537   9.555  11.113  0.0926 -0.1488 -0.2360
  257loPI    C2 4098   5.584   9.206  11.302 -0.1966 -0.0929 -0.0538
  257loPI    C3 4099   5.736   9.541  11.459 -0.4528 -0.0436  0.0939
  257loPI   PO4 4100   5.546   9.495  10.901 -0.0494 -0.0684  0.0044
  257loPI   GL1 4101   5.281   9.629  10.588 -0.1913 -0.0497  0.1759
  257loPI   GL2 4102   5.608   9.755  10.445  0.0690  0.0095  0.2032
  257loPI   C1A 4103   5.191   9.640  10.120 -0.0479 -0.0007  0.0026
  257loPI   C2A 4104   5.153   9.570   9.640 -0.0527  0.3227 -0.1364
  257loPI   C3A 4105   5.245   9.488   9.236  0.1072  0.1504 -0.2048
  257loPI   C4A 4106   5.294   9.562   8.817  0.1121 -0.0144  0.2224
  257loPI   C5A 4107   5.471   9.424   8.402  0.0745 -0.2589  0.2736
  257loPI   C6A 4108   5.547   9.130   8.116 -0.1090 -0.3512 -0.1610
  257loPI   C1B 4109   5.732   9.602  10.126 -0.2920 -0.1806 -0.0542
  257loPI   C2B 4110   5.668   9.571   9.721 -0.0403  0.0254  0.0340
  257loPI   C3B 4111   5.792   9.455   9.327  0.2720 -0.4633 -0.0476
  257loPI   C4B 4112   5.733   9.333   8.910  0.1454  0.0607 -0.2867
  258loPI    C1 4113  11.715   5.621  11.703 -0.3301  0.0855 -0.1708
  258loPI    C2 4114  11.765   6.017  11.732 -0.1466  0.0497  0.0301
  258loPI    C3 4115  11.572   5.818  12.020 -0.0232 -0.0409  0.0513
  258loPI   PO4 4116  11.573   5.585  11.438 -0.0670  0.2389 -0.0931
  258loPI   GL1 4117  11.550   5.631  11.058 -0.2886  0.1452 -0.2319
  258loPI   GL2 4118  11.710   5.933  10.796  0.0979 -0.3163 -0.0497
  258loPI   C1A 4119  11.514   5.176  10.879 -0.1405 -0.2913 -0.3549
  258loPI   C2A 4120  11.488   4.919  10.485 -0.2757 -0.0417 -0.2115
  258loPI   C3A 4121  11.479   4.978  10.060 -0.3820 -0.1133  0.0415
  258loPI   C4A 4122  11.532   4.927   9.574 -0.1032 -0.0565  0.1993
  258loPI   C5A 4123  11.488   4.912   9.167 -0.0061 -0.0361 -0.0942
  258loPI   C6A 4124  11.361   4.854   8.808  0.2170 -0.0154  0.0766
  258loPI   C1B 4125  11.736   5.795  10.413  0.1581 -0.1184 -0.0089
  258loPI   C2B 4126  11.782   5.805   9.968 -0.0110 -0.1007 -0.1663
  258loPI   C3B 4127  11.813   5.744   9.546  0.0543  0.1038  0.3646
  258loPI   C4B 4128  11.694   5.764   9.119 -0.2608 -0.0524  0.0904
  259loPI    C1 4129  15.443   2.935  11.330  0.0968 -0.4554 -0.0618
  259loPI    C2 4130  15.654   2.781  11.632  0.1128  0.1142  0.2312
  259loPI    C3 4131  15.256   2.801  11.657  0.1032  0.0320  0.1500
  259loPI   PO4 4132  15.559   2.909  11.106  0.1689 -0.1976  0.3122
  259loPI   GL1 4133  15.714   2.817  10.636  0.1530  0.0549  0.0016
  259loPI   GL2 4134  15.599   3.080  10.528  0.0241 -0.4277  0.2791
  259loPI   C1A 4135  15.754   2.627  10.268 -0.0983 -0.0312  0.0102
  259loPI   C2A 4136  15.748   2.691   9.802  0.3381  0.3595 -0.0150
  259loPI   C3A 4137  15.587   2.568   9.422  0.2423 -0.0174  0.1140
  259loPI   C4A 4138  15.655   2.672   9.079 -0.1060 -0.2545  0.1389
  259loPI   C5A 4139  15.812   2.625   8.559 -0.0531 -0.0360 -0.1920
  259loPI   C6A 4140  16.117   2.736   8.193 -0.1388  0.1474  0.0547
  259loPI   C1B 4141  15.610   3.149  10.118 -0.3087 -0.2155 -0.0234
  259loPI   C2B 4142  15.640   3.159   9.647 -0.0014  0.4266  0.0868
  259loPI   C3B 4143  15.522   3.093   9.332 -0.1014 -0.1313  0.2259
  259loPI   C4B 4144  15.506   3.227   8.992  0.2233  0.2385 -0.0174
  260loPI    C1 4145  10.392  15.693  10.751  0.0865  0.1776  0.0361
  260loPI    C2 4146  10.122  15.409  10.836  0.0588  0.2038  0.0359
  260loPI    C3 4147  10.499  15.374  10.967  0.0553  0.1667  0.0355
  260loPI   PO4 4148  10.380  15.806  10.477  0.1078 -0.1840  0.2678
  260loPI   GL1 4149  10.417  15.744  10.044  0.0267  0.2297 -0.1864
  260loPI   GL2 4150  10.713  15.796   9.825  0.0212 -0.2357 -0.1390
  260loPI   C1A 4151  10.209  15.504   9.765  0.0179 -0.0402 -0.1975
  260loPI   C2A 4152   9.932  15.453   9.371  0.1961  0.2776 -0.0702
  260loPI   C3A 4153   9.722  15.228   9.098  0.0782 -0.0143  0.2390
  260loPI   C4A 4154   9.526  15.145   8.696  0.2021  0.1588  0.2522
  260loPI   C5A 4155   9.556  15.290   8.234 -0.5447  0.2079 -0.0499
  260loPI   C6A 4156   9.551  15.669   8.004  0.3643  0.2038 -0.0505
  260loPI   C1B 4157  10.926  15.754   9.491 -0.3606  0.0027 -0.3264
  260loPI   C2B 4158  10.774  15.690   9.067  0.0514 -0.4777 -0.2089
  260loPI   C3B 4159  10.708  15.779   8.740 -0.1353 -0.0606  0.1361
  260loPI   C4B 4160  10.739  15.900   8.232 -0.1715 -0.1011  0.0546
  261loPI    C1 4161   1.233   5.204  11.266  0.1896  0.2866 -0.1350
  261loPI    C2 4162   1.505   5.236  11.557  0.0613  0.0746  0.0114
  261loPI    C3 4163   1.176   5.464  11.564  0.2291  0.3285 -0.1638
  261loPI   PO4 4164   1.327   5.119  11.107 -0.2431  0.0053 -0.1118
  261loPI   GL1 4165   1.539   5.379  10.645  0.0404  0.0858 -0.3569
  261loPI   GL2 4166   1.678   5.178  10.750  0.0438  0.0319  0.0074
  261loPI   C1A 4167   1.605   5.509  10.200 -0.0012 -0.1835 -0.2344
  261loPI   C2A 4168   1.570   5.549   9.897 -0.1611  0.0209 -0.0068
  261loPI   C3A 4169   1.511   5.382   9.549  0.0294  0.1834 -0.2061
  261loPI   C4A 4170   1.483   5.370   9.211 -0.1271 -0.0381 -0.0475
  261loPI   C5A 4171   1.353   5.335   8.831  0.1706  0.0938  0.0993
  261loPI   C6A 4172   1.296   5.653   8.394 -0.0166 -0.1142 -0.0898
  261loPI   C1B 4173   1.604   4.987  10.311 -0.0528  0.0511 -0.2439
  261loPI   C2B 4174   1.609   4.993   9.878 -0.0133 -0.2722  0.1344
  261loPI   C3B 4175   1.612   4.846   9.434  0.0161 -0.0191 -0.1990
  261loPI   C4B 4176   1.583   4.916   8.937 -0.1121  0.1209  0.0977
  262loPI    C1 4177   6.134   7.029  11.001  0.1846 -0.1101 -0.0153
  262loPI    C2 4178   6.329   7.138  10.670  0.0336 -0.0935 -0.1000
  262loPI    C3 4179   6.504   7.177  11.028  0.2662 -0.2779 -0.1905
  262loPI   PO4 4180   5.747   7.218  11.000  0.0859  0.1337 -0.2045
  262loPI   GL1 4181   5.392   7.261  10.748 -0.0272  0.0681 -0.0689
  262loPI   GL2 4182   5.121   7.057  10.650 -0.0416  0.3574 -0.0506
  262loPI   C1A 4183   5.398   7.374  10.325 -0.0268  0.1395  0.1555
  262loPI   C2A 4184   5.313   7.188   9.939  0.1808  0.1222 -0.0260
  262loPI   C3A 4185   5.310   7.205   9.506  0.2758 -0.0166 -0.3458
  262loPI   C4A 4186   5.228   7.205   9.106 -0.0372 -0.0807  0.2330
  262loPI   C5A 4187   5.281   7.065   8.676  0.1907 -0.0530  0.2901
  262loPI   C6A 4188   5.474   7.044   8.321  0.0015  0.0171  0.0386
  262loPI   C1B 4189   5.007   6.908  10.232 -0.2364  0.1075 -0.2014
  262loPI   C2B 4190   4.979   6.856   9.796 -0.2231 -0.0955 -0.2367
  262loPI   C3B 4191   4.896   6.897   9.329  0.0126 -0.1131 -0.0260
  262loPI   C4B 4192   4.888   6.805   8.867  0.0624  0.2103 -0.0355
  263loPI    C1 4193   0.359  14.800  10.693 -0.0995 -0.0675  0.1980
  263loPI    C2 4194   0.739  14.690  10.639 -0.0891  0.0357  0.0574
  263loPI    C3 4195   0.642  14.927  10.946 -0.0167  0.1261  0.0111
  263loPI   PO4 4196   0.254  14.622  10.516 -0.0101  0.0638  0.0332
  263loPI   GL1 4197   0.188  14.561  10.156  0.0189 -0.0203  0.1148
  263loPI   GL2 4198  -0.103  14.620  10.141  0.1822  0.0329  0.0391
  263loPI   C1A 4199   0.241  14.443   9.799 -0.3581  0.1360 -0.0187
  263loPI   C2A 4200   0.250  14.493   9.433 -0.0220  0.2856 -0.1317
  263loPI   C3A 4201   0.283  14.474   8.962  0.2596  0.2505  0.2244
  263loPI   C4A 4202   0.334  14.469   8.478 -0.1461  0.0845  0.0489
  263loPI   C5A 4203   0.616  14.647   8.225 -0.0002 -0.4970  0.2249
  263loPI   C6A 4204   1.139  14.700   8.162 -0.1449 -0.1045 -0.2391
  263loPI   C1B 4205  -0.309  14.751   9.721  0.2393  0.0280  0.0539
  263loPI   C2B 4206  -0.198  14.656   9.318  0.2161 -0.1661 -0.3240
  263loPI   C3B 4207  -0.205  14.645   8.947  0.0100  0.1783  0.0182
  263loPI   C4B 4208  -0.137  14.305   8.607 -0.1311  0.1632 -0.4339
  264loPI    C1 4209  13.028   1.183  11.539 -0.1012  0.2069  0.0886
  264loPI    C2 4210  12.647   1.229  11.650 -0.2040 -0.1339 -0.1105
  264loPI    C3 4211  12.815   0.866  11.657  0.1769  0.0410  0.1559
  264loPI   PO4 4212  12.910   1.388  11.238 -0.3312  0.0850  0.0371
  264loPI   GL1 4213  13.020   1.330  10.881 -0.2882  0.2749  0.0230
  264loPI   GL2 4214  13.400   1.293  10.680  0.0773 -0.2757  0.0460
  264loPI   C1A 4215  13.051   1.594  10.602 -0.0885  0.1447 -0.3181
  264loPI   C2A 4216  13.165   1.499  10.175 -0.3287  0.0900 -0.1982
  264loPI   C3A 4217  13.292   1.509   9.749  0.1525 -0.0283 -0.2204
  264loPI   C4A 4218  13.219   1.587   9.327 -0.0957 -0.1173  0.4575
  264loPI   C5A 4219  13.166   1.718   8.868 -0.2116 -0.0904 -0.0783
  264loPI   C6A 4220  13.218   1.567   8.412  0.0300  0.0877 -0.0612
  264loPI   C1B 4221  13.678   1.393  10.341 -0.0887 -0.4221 -0.2389
  264loPI   C2B 4222  13.735   1.378   9.852 -0.1180 -0.4323 -0.1696
  264loPI   C3B 4223  13.713   1.410   9.406 -0.0288 -0.1825  0.0722
  264loPI   C4B 4224  13.617   1.475   8.994 -0.1228  0.0243 -0.1503
  265loPI    C1 4225   0.540   6.914  11.156  0.0527  0.0916 -0.0394
  265loPI    C2 4226   0.344   7.262  11.127 -0.1380 -0.0081  0.0360
  265loPI    C3 4227   0.362   7.071  11.478  0.1073  0.0063  0.0325
  265loPI   PO4 4228   0.725   6.944  10.985  0.0512  0.1355 -0.0871
  265loPI   GL1 4229   0.695   7.084  10.607  0.2856 -0.0440  0.0808
  265loPI   GL2 4230   1.022   6.935  10.597 -0.3115 -0.0647 -0.2018
  265loPI   C1A 4231   0.761   7.109  10.121 -0.2717  0.0455  0.1946
  265loPI   C2A 4232   0.653   7.160   9.623  0.1039 -0.0768  0.1739
  265loPI   C3A 4233   0.664   7.122   9.156 -0.3292  0.1128 -0.0066
  265loPI   C4A 4234   0.611   7.100   8.741 -0.1063  0.1188  0.1274
  265loPI   C5A 4235   0.546   7.162   8.306 -0.0908  0.3424 -0.1974
  265loPI   C6A 4236   0.692   7.379   7.923 -0.0574 -0.0874 -0.0068
  265loPI   C1B 4237   1.256   7.008  10.198 -0.0081  0.0724  0.3113
  265loPI   C2B 4238   1.182   7.008   9.807  0.0931 -0.3160  0.1504
  265loPI   C3B 4239   1.127   6.987   9.414  0.0422 -0.2053 -0.0831
  265loPI   C4B 4240   1.022   6.847   8.964  0.2224  0.0736  0.1395
  266loPI    C1 4241   8.707   1.500  11.044 -0.2567  0.3299 -0.2855
  266loPI    C2 4242   9.023   1.740  10.992 -0.1126  0.1545 -0.2288
  266loPI    C3 4243   8.679   1.890  11.131  0.0336  0.2928 -0.0112
  266loPI   PO4 4244   8.723   1.367  10.798  0.1314  0.2192  0.4366
  266loPI   GL1 4245   8.892   1.551  10.490  0.2977  0.0130 -0.0494
  266loPI   GL2 4246   8.588   1.408  10.315  0.0324 -0.0523 -0.0442
  266loPI   C1A 4247   8.860   1.821  10.148  0.1868  0.2354 -0.1513
  266loPI   C2A 4248   8.956   1.942   9.712 -0.0878 -0.3849 -0.1455
  266loPI   C3A 4249   8.896   1.957   9.267 -0.1127  0.0826  0.1060
  266loPI   C4A 4250   8.925   1.840   8.818 -0.2520  0.0635 -0.0581
  266loPI   C5A 4251   8.705   2.050   8.443 -0.1507 -0.1173  0.2644
  266loPI   C6A 4252   8.375   2.278   8.358  0.0025 -0.0050  0.0508
  266loPI   C1B 4253   8.564   1.463   9.830 -0.0101  0.2485  0.0325
  266loPI   C2B 4254   8.484   1.386   9.436  0.0603 -0.1313  0.2569
  266loPI   C3B 4255   8.520   1.562   8.998 -0.1319 -0.0482  0.0062
  266loPI   C4B 4256   8.459   1.612   8.604 -0.1649  0.2813  0.3914
  267loPI    C1 4257  11.241   5.896  11.663 -0.0895 -0.1078 -0.1450
  267loPI    C2 4258  10.964   6.184  11.687  0.0021 -0.0359  0.0703
  267loPI    C3 4259  11.231   6.138  11.981  0.1080 -0.2192 -0.0527
  267loPI   PO4 4260  11.115   5.794  11.407 -0.1742  0.2252  0.3069
  267loPI   GL1 4261  10.948   5.837  10.977 -0.0458 -0.0194  0.0316
  267loPI   GL2 4262  11.215   5.985  10.847 -0.1018  0.2365 -0.1175
  267loPI   C1A 4263  11.273   5.552  10.633  0.2370 -0.3017 -0.1240
  267loPI   C2A 4264  11.418   5.464  10.261 -0.1068 -0.1125 -0.0898
  267loPI   C3A 4265  11.345   5.357   9.825  0.2549  0.0110  0.2719
  267loPI   C4A 4266  11.408   5.386   9.353 -0.0975 -0.2852  0.0758
  267loPI   C5A 4267  11.608   5.324   8.886  0.3463 -0.2659  0.0437
  267loPI   C6A 4268  11.930   5.090   8.714 -0.3057  0.1285 -0.2301
  267loPI   C1B 4269  11.279   6.055  10.404 -0.2201  0.0913 -0.1924
  267loPI   C2B 4270  11.296   5.892  10.050 -0.0188 -0.2063  0.1602
  267loPI   C3B 4271  11.291   5.842   9.627  0.0791  0.1101  0.1563
  267loPI   C4B 4272  11.227   5.877   9.241  0.0921 -0.0463 -0.0483
  268loPI    C1 4273   0.720   5.617  11.188 -0.2557  0.0518 -0.3058
  268loPI    C2 4274   0.625   6.002  11.140 -0.3838  0.0377 -0.1730
  268loPI    C3 4275   0.689   5.856  11.507 -0.3245 -0.0652 -0.2237
  268loPI   PO4 4276   0.936   5.543  11.094  0.0470 -0.0235  0.1462
  268loPI   GL1 4277   1.069   5.460  10.761  0.0650  0.1034 -0.0590
  268loPI   GL2 4278   0.777   5.308  10.572 -0.2499 -0.3358 -0.4161
  268loPI   C1A 4279   1.153   5.662  10.406 -0.0303 -0.0830  0.1556
  268loPI   C2A 4280   1.091   5.692   9.952  0.1899  0.2266  0.1306
  268loPI   C3A 4281   1.030   5.631   9.464  0.0923 -0.2545  0.0242
  268loPI   C4A 4282   1.005   5.711   9.044 -0.3091  0.0364 -0.1232
  268loPI   C5A 4283   0.915   5.822   8.671 -0.2699  0.1574  0.0805
  268loPI   C6A 4284   0.665   6.158   8.594 -0.4167  0.2834  0.2257
  268loPI   C1B 4285   0.694   5.337  10.136 -0.2482 -0.0273 -0.0420
  268loPI   C2B 4286   0.624   5.275   9.698 -0.1462 -0.0737  0.0296
  268loPI   C3B 4287   0.565   5.275   9.300  0.0306  0.1124 -0.0233
  268loPI   C4B 4288   0.694   5.365   8.805 -0.0902  0.0338  0.4009
  269loPI    C1 4289  13.708  15.482  10.515 -0.1054 -0.0184 -0.2345
  269loPI    C2 4290  13.594  15.776  10.762  0.2731  0.0413 -0.1240
  269loPI    C3 4291  13.727  15.429  10.910  0.1651 -0.0557 -0.2507
  269loPI   PO4 4292  13.599  15.610  10.286 -0.0810  0.3127 -0.3399
  269loPI   GL1 4293  13.600  15.445   9.822  0.0366  0.0722  0.1794
  269loPI   GL2 4294  13.362  15.689   9.561  0.2247  0.1969 -0.1889
  269loPI   C1A 4295  13.916  15.682   9.526  0.0533 -0.0888 -0.0750
  269loPI   C2A 4296  14.011  15.610   9.087 -0.0306  0.0195 -0.1457
  269loPI   C3A 4297  14.006  15.460   8.702  0.0869 -0.3684 -0.0154
  269loPI   C4A 4298  14.115  15.475   8.224  0.0409 -0.1225  0.0903
  269loPI   C5A 4299  13.955  15.355   7.918 -0.2082 -0.3486 -0.2865
  269loPI   C6A 4300  13.753  15.422   7.586  0.0233 -0.4175  0.0373
  269loPI   C1B 4301  13.282  15.852   9.164 -0.0774 -0.1626  0.1490
  269loPI   C2B 4302  13.269  15.845   8.745 -0.0287 -0.3140  0.0574
  269loPI   C3B 4303  13.066  15.679   8.215  0.1718 -0.1703 -0.0017
  269loPI   C4B 4304  13.126  15.849   7.807  0.0871  0.3031 -0.1500
  270loPI    C1 4305  15.612   7.537  11.293 -0.0732  0.0621 -0.0118
  270loPI    C2 4306  15.588   7.850  11.541 -0.1149  0.0102  0.0498
  270loPI    C3 4307  15.712   7.495  11.678 -0.1476 -0.0211 -0.0013
  270loPI   PO4 4308  15.407   7.548  11.095 -0.1525  0.0806 -0.1445
  270loPI   GL1 4309  15.515   7.524  10.681 -0.1795  0.1328 -0.2764
  270loPI   GL2 4310  15.777   7.479  10.526 -0.1071  0.1353  0.0007
  270loPI   C1A 4311  15.217   7.571  10.359 -0.0781 -0.0479 -0.0976
  270loPI   C2A 4312  14.935   7.585  10.041 -0.3486  0.0534  0.0301
  270loPI   C3A 4313  14.974   7.610   9.568 -0.1824  0.0995 -0.0891
  270loPI   C4A 4314  15.015   7.596   9.098 -0.1646 -0.3274 -0.0007
  270loPI   C5A 4315  15.135   7.658   8.679  0.0259 -0.0468  0.0330
  270loPI   C6A 4316  15.042   8.005   8.423 -0.0557 -0.1780 -0.0735
  270loPI   C1B 4317  15.629   7.428  10.094  0.1581 -0.1057 -0.1846
  270loPI   C2B 4318  15.439   7.532   9.778  0.1068 -0.0270  0.0617
  270loPI   C3B 4319  15.466   7.517   9.313  0.1214  0.0724 -0.0586
  270loPI   C4B 4320  15.669   7.535   8.964  0.1369  0.1226 -0.1899
  271loPI    C1 4321  15.868  10.728  10.701 -0.0623 -0.0630  0.0545
  271loPI    C2 4322  15.757  10.715  11.085  0.2495 -0.2048  0.1424
  271loPI    C3 4323  15.941  11.039  10.941 -0.0235 -0.0808  0.0657
  271loPI   PO4 4324  16.043  10.546  10.714 -0.0689 -0.1301  0.2305
  271loPI   GL1 4325  15.994  10.208  10.562  0.0616 -0.0905  0.0595
  271loPI   GL2 4326  16.190  10.078  10.432  0.1878  0.0186 -0.0755
  271loPI   C1A 4327  15.717  10.272  10.217  0.0753  0.1079  0.1061
  271loPI   C2A 4328  15.652  10.332   9.875  0.0985 -0.2273  0.5880
  271loPI   C3A 4329  15.832  10.279   9.531 -0.0413 -0.0022 -0.0907
  271loPI   C4A 4330  15.812  10.231   9.122 -0.2782  0.1414  0.2711
  271loPI   C5A 4331  15.684  10.309   8.689 -0.0201  0.0338 -0.1055
  271loPI   C6A 4332  15.600  10.141   8.213  0.0037  0.1183  0.1141
  271loPI   C1B 4333  16.176  10.184  10.038 -0.0997 -0.0702  0.0143
  271loPI   C2B 4334  16.328  10.092   9.593 -0.0558  0.3107 -0.0082
  271loPI   C3B 4335  16.342  10.064   9.132  0.2463 -0.0922  0.0613
  271loPI   C4B 4336  16.310  10.011   8.660  0.1136 -0.0110 -0.2888
  272loPI    C1 4337   3.937  15.322  11.131 -0.0509  0.0266 -0.0412
  272loPI    C2 4338   4.284  15.172  11.262 -0.0801  0.0752  0.0939
  272loPI    C3 4339   3.964  15.176  11.503 -0.1052  0.2656  0.0591
  272loPI   PO4 4340   3.989  15.401  10.894  0.1317  0.1010 -0.0947
  272loPI   GL1 4341   4.071  15.613  10.538 -0.1076  0.0512  0.1199
  272loPI   GL2 4342   3.919  15.370  10.375 -0.0246 -0.2786 -0.0280
  272loPI   C1A 4343   4.085  15.973  10.266 -0.1960  0.3331 -0.2267
  272loPI   C2A 4344   4.009  16.235   9.884  0.1343 -0.0891 -0.2462
  272loPI   C3A 4345   3.996  16.225   9.424 -0.3684 -0.2526 -0.0782
  272loPI   C4A 4346   4.115  16.330   9.060 -0.0413  0.1697  0.1573
  272loPI   C5A 4347   4.396  16.122   8.665  0.0516 -0.0237 -0.1525
  272loPI   C6A 4348   4.655  15.793   8.664  0.0238  0.0841  0.1096
  272loPI   C1B 4349   3.823  15.254   9.992  0.0857  0.3019 -0.0662
  272loPI   C2B 4350   3.796  15.430   9.573  0.0928  0.1398 -0.0907
  272loPI   C3B 4351   3.828  15.292   9.120 -0.1297  0.1410  0.0940
  272loPI   C4B 4352   3.780  15.392   8.618 -0.3297  0.1674 -0.0330
  273loPI    C1 4353   3.061   6.067  11.655  0.0446 -0.0719 -0.2418
  273loPI    C2 4354   3.163   5.681  11.686  0.1504 -0.0205  0.0984
  273loPI    C3 4355   2.778   5.785  11.670  0.1257 -0.1608 -0.3619
  273loPI   PO4 4356   3.120   6.107  11.345  0.4115  0.1762  0.2409
  273loPI   GL1 4357   3.199   6.229  10.892 -0.0096 -0.0660 -0.0503
  273loPI   GL2 4358   3.096   5.936  10.711  0.0059 -0.1011 -0.0368
  273loPI   C1A 4359   3.294   6.443  10.527 -0.2212  0.0344 -0.1143
  273loPI   C2A 4360   3.221   6.394  10.098  0.3486 -0.1056  0.0761
  273loPI   C3A 4361   3.197   6.375   9.677  0.2258 -0.1511 -0.1125
  273loPI   C4A 4362   3.135   6.328   9.244  0.3860 -0.0894  0.0318
  273loPI   C5A 4363   3.226   6.246   8.893  0.2142  0.1417 -0.1379
  273loPI   C6A 4364   2.935   6.181   8.617  0.1727 -0.1486  0.0127
  273loPI   C1B 4365   3.283   5.970  10.320 -0.5174 -0.0473 -0.0426
  273loPI   C2B 4366   3.390   5.950   9.942  0.0909 -0.1233  0.0632
  273loPI   C3B 4367   3.268   5.930   9.544 -0.2358  0.0218 -0.0216
  273loPI   C4B 4368   3.395   5.830   9.132  0.1322  0.2077  0.0564
  274loPI    C1 4369   8.866  13.089  10.214  0.2506 -0.1492  0.0150
  274loPI    C2 4370   9.025  13.118  10.579  0.0423 -0.0699  0.1009
  274loPI    C3 4371   8.873  12.770  10.454  0.2202 -0.1281  0.0441
  274loPI   PO4 4372   8.965  13.254   9.935  0.0028 -0.0339 -0.0871
  274loPI   GL1 4373   8.823  13.484   9.595  0.0929  0.1804 -0.1590
  274loPI   GL2 4374   9.139  13.351   9.424  0.0877 -0.2213 -0.0407
  274loPI   C1A 4375   8.665  13.352   9.206 -0.1321 -0.1561 -0.2027
  274loPI   C2A 4376   8.608  13.354   8.733  0.0306  0.0330 -0.0106
  274loPI   C3A 4377   8.745  13.377   8.257 -0.1061  0.3608 -0.1428
  274loPI   C4A 4378   8.863  13.719   7.918  0.0988  0.0975  0.0438
  274loPI   C5A 4379   8.809  14.099   7.593  0.3183  0.2862  0.2216
  274loPI   C6A 4380   8.835  14.537   7.408 -0.1441  0.1867 -0.0102
  274loPI   C1B 4381   9.085  13.268   8.990 -0.1807 -0.1827  0.0335
  274loPI   C2B 4382   9.122  13.277   8.566  0.0703  0.2428  0.2601
  274loPI   C3B 4383   9.293  13.482   8.131 -0.2130 -0.1622 -0.2380
  274loPI   C4B 4384   9.338  13.806   7.716 -0.0122  0.1421  0.0472
  275loPI    C1 4385  11.557  17.693  10.760  0.0713  0.2896  0.0889
  275loPI    C2 4386  11.861  17.576  10.991  0.0758  0.2518  0.0642
  275loPI    C3 4387  11.555  17.328  10.924 -0.0084  0.3259  0.1701
  275loPI   PO4 4388  11.636  17.836  10.537  0.0215  0.2518  0.1172
  275loPI   GL1 4389  11.649  17.930  10.141 -0.5722  0.0588 -0.0349
  275loPI   GL2 4390  11.480  17.810   9.976  0.1302  0.1449  0.1697
  275loPI   C1A 4391  11.970  18.152   9.924  0.0595  0.0361 -0.0811
  275loPI   C2A 4392  12.058  18.340   9.483 -0.1857  0.1471  0.0044
  275loPI   C3A 4393  12.135  18.249   9.034 -0.3565  0.0676 -0.0563
  275loPI   C4A 4394  12.193  18.235   8.643 -0.0387 -0.2250 -0.0254
  275loPI   C5A 4395  11.849  18.325   8.385 -0.0679  0.2141 -0.1672
  275loPI   C6A 4396  11.688  18.590   8.060 -0.1871 -0.1466  0.0784
  275loPI   C1B 4397  11.563  17.912   9.591 -0.1881  0.0969 -0.0748
  275loPI   C2B 4398  11.709  17.843   9.279  0.1771  0.0916 -0.1030
  275loPI   C3B 4399  11.685  17.973   8.897  0.2181 -0.2468  0.1924
  275loPI   C4B 4400  11.472  18.015   8.565 -0.0042 -0.0862  0.1709
  276loPI    C1 4401   0.277   6.195  11.563 -0.1817  0.0576  0.0328
  276loPI    C2 4402   0.395   5.994  11.889 -0.3210 -0.0543  0.0153
  276loPI    C3 4403   0.310   6.384  11.914 -0.0693 -0.0003  0.0539
  276loPI   PO4 4404   0.104   6.003  11.353  0.1270 -0.0368 -0.1526
  276loPI   GL1 4405   0.006   5.830  10.914 -0.4128 -0.4049  0.0077
  276loPI   GL2 4406  -0.215   5.679  10.835  0.2357  0.0644  0.2804
  276loPI   C1A 4407   0.125   5.976  10.579  0.0978  0.0755  0.3708
  276loPI   C2A 4408   0.203   5.876  10.150 -0.3262  0.0451 -0.1149
  276loPI   C3A 4409   0.023   5.833   9.710 -0.2921  0.0665  0.3820
  276loPI   C4A 4410   0.038   5.902   9.253  0.0612 -0.3989  0.1599
  276loPI   C5A 4411  -0.088   5.766   8.910  0.1621  0.1350  0.2157
  276loPI   C6A 4412  -0.462   5.675   8.641  0.0220 -0.1400 -0.1166
  276loPI   C1B 4413  -0.322   5.553  10.419 -0.1606 -0.2419 -0.1047
  276loPI   C2B 4414  -0.300   5.584   9.984 -0.0466  0.0955 -0.1599
  276loPI   C3B 4415  -0.380   5.478   9.694 -0.1257 -0.2801 -0.1209
  276loPI   C4B 4416  -0.399   5.484   9.211  0.0444  0.1136  0.3045
  277loPI    C1 4417  14.264  14.018  10.627  0.0679  0.2052 -0.0201
  277loPI    C2 4418  14.311  14.390  10.767 -0.2046  0.1627  0.1917
  277loPI    C3 4419  14.335  14.078  11.016  0.2048  0.0210 -0.0154
  277loPI   PO4 4420  14.262  14.064  10.348  0.0388  0.0330  0.0210
  277loPI   GL1 4421  14.137  14.058   9.959 -0.0381 -0.1212 -0.0899
  277loPI   GL2 4422  14.461  14.163   9.874 -0.0740 -0.4153  0.2040
  277loPI   C1A 4423  13.971  13.770   9.673  0.4607  0.2514  0.2361
  277loPI   C2A 4424  13.914  13.808   9.236 -0.1480  0.0134 -0.2617
  277loPI   C3A 4425  13.751  13.548   8.889 -0.0078  0.0841  0.2522
  277loPI   C4A 4426  13.894  13.517   8.494  0.1050 -0.0506  0.4923
  277loPI   C5A 4427  14.028  13.566   8.142 -0.0049  0.0803  0.0019
  277loPI   C6A 4428  13.788  13.557   7.742 -0.1405  0.1705  0.0671
  277loPI   C1B 4429  14.280  14.105   9.493  0.2834 -0.1440 -0.0860
  277loPI   C2B 4430  14.306  14.143   9.102  0.1686 -0.1065 -0.0493
  277loPI   C3B 4431  14.144  13.944   8.727 -0.1810 -0.1635  0.1339
  277loPI   C4B 4432  14.133  14.065   8.333 -0.1397  0.0181 -0.0740
  278loPI    C1 4433   2.433  16.444  11.019 -0.0609  0.1387  0.1547
  278loPI    C2 4434   2.141  16.426  11.291  0.0738  0.0270  0.2933
  278loPI    C3 4435   2.311  16.090  11.158 -0.0662  0.0736 -0.0128
  278loPI   PO4 4436   2.320  16.567  10.724  0.0794 -0.2985  0.2734
  278loPI   GL1 4437   2.237  16.946  10.582 -0.2401 -0.2238  0.6046
  278loPI   GL2 4438   2.582  17.081  10.502 -0.0945 -0.0989 -0.1886
  278loPI   C1A 4439   2.126  16.789  10.153 -0.0905 -0.1312  0.0426
  278loPI   C2A 4440   2.023  16.846   9.738  0.0919  0.2831  0.2098
  278loPI   C3A 4441   2.106  16.856   9.338 -0.1644 -0.1357  0.0889
  278loPI   C4A 4442   2.018  16.923   8.864 -0.0702 -0.0757  0.0075
  278loPI   C5A 4443   2.153  17.057   8.529  0.0343  0.1298 -0.1217
  278loPI   C6A 4444   2.316  16.900   8.103  0.1795  0.0784 -0.1993
  278loPI   C1B 4445   2.504  17.086   9.986  0.1367  0.3932  0.1975
  278loPI   C2B 4446   2.481  17.161   9.550 -0.1897  0.2309  0.0164
  278loPI   C3B 4447   2.527  17.235   9.101 -0.0541  0.1390 -0.0237
  278loPI   C4B 4448   2.504  17.376   8.691  0.0290 -0.1384 -0.0377
  279loPI    C1 4449  13.768  10.461  10.979  0.4290  0.1894 -0.0952
  279loPI    C2 4450  14.097  10.383  11.193  0.2161  0.1911  0.2396
  279loPI    C3 4451  13.998  10.762  11.110  0.3235  0.1885  0.0960
  279loPI   PO4 4452  13.772  10.340  10.739  0.3413 -0.2326 -0.3389
  279loPI   GL1 4453  14.173  10.083  10.477  0.0427 -0.0990  0.0731
  279loPI   GL2 4454  13.938   9.914  10.419 -0.1147 -0.0120 -0.1551
  279loPI   C1A 4455  14.296  10.192  10.109  0.0027 -0.0897 -0.2485
  279loPI   C2A 4456  14.392  10.161   9.752  0.0064 -0.0252  0.1856
  279loPI   C3A 4457  14.465  10.182   9.288 -0.0809  0.2059  0.2493
  279loPI   C4A 4458  14.474  10.156   8.933  0.0389 -0.0904  0.0271
  279loPI   C5A 4459  14.499   9.914   8.562 -0.2599  0.0385 -0.0951
  279loPI   C6A 4460  14.514   9.768   8.130 -0.1124 -0.0139 -0.1663
  279loPI   C1B 4461  13.962   9.823  10.053  0.0815  0.2020 -0.2728
  279loPI   C2B 4462  14.025   9.783   9.677  0.0143  0.0241 -0.0897
  279loPI   C3B 4463  13.984   9.753   9.201  0.1170 -0.1178  0.0836
  279loPI   C4B 4464  14.041   9.699   8.792 -0.1362 -0.1481  0.3314
  280loPI    C1 4465   8.841  15.293  10.267 -0.0135  0.1955 -0.0194
  280loPI    C2 4466   8.499  15.087  10.287  0.1033 -0.0149 -0.1463
  280loPI    C3 4467   8.642  15.269  10.613  0.0922 -0.2899  0.0146
  280loPI   PO4 4468   8.833  15.525  10.062 -0.2965 -0.1170  0.2268
  280loPI   GL1 4469   8.935  15.697   9.657  0.1800  0.0434 -0.0640
  280loPI   GL2 4470   9.160  15.942   9.728 -0.0116 -0.0583 -0.2096
  280loPI   C1A 4471   8.947  15.804   9.207  0.2392 -0.2305 -0.0384
  280loPI   C2A 4472   8.912  15.744   8.851 -0.0866  0.0837 -0.2843
  280loPI   C3A 4473   8.823  15.823   8.324 -0.0777 -0.0961 -0.0090
  280loPI   C4A 4474   8.750  15.969   7.921 -0.1937 -0.1382 -0.1617
  280loPI   C5A 4475   8.915  16.229   7.620 -0.0563  0.1917 -0.1863
  280loPI   C6A 4476   8.890  16.669   7.650 -0.2835  0.3030  0.0549
  280loPI   C1B 4477   9.209  16.174   9.357 -0.1791  0.2604 -0.1022
  280loPI   C2B 4478   9.149  16.170   8.948  0.1048  0.2808 -0.3050
  280loPI   C3B 4479   9.070  16.242   8.512 -0.1455 -0.2063  0.2922
  280loPI   C4B 4480   8.906  16.404   8.064 -0.0815 -0.2592  0.1420
  281loPI    C1 4481   6.298  16.138  11.136 -0.0125  0.0922 -0.0085
  281loPI    C2 4482   6.009  16.305  11.356  0.1175  0.1145  0.1466
  281loPI    C3 4483   6.179  15.963  11.475  0.0319  0.0065 -0.0367
  281loPI   PO4 4484   6.221  16.171  10.929 -0.0048 -0.1173 -0.0774
  281loPI   GL1 4485   6.202  16.362  10.449 -0.1100  0.0568 -0.0520
  281loPI   GL2 4486   5.914  16.218  10.427  0.1691  0.2284 -0.1875
  281loPI   C1A 4487   6.344  16.208  10.160  0.2792 -0.3654  0.2169
  281loPI   C2A 4488   6.339  16.312   9.768  0.3633 -0.2889  0.0949
  281loPI   C3A 4489   6.253  16.448   9.299  0.1323  0.1253 -0.4217
  281loPI   C4A 4490   6.274  16.516   8.822 -0.2144 -0.2709  0.0612
  281loPI   C5A 4491   6.530  16.551   8.462  0.2160  0.0942  0.1892
  281loPI   C6A 4492   6.938  16.543   8.336 -0.1369 -0.4801 -0.0489
  281loPI   C1B 4493   5.912  16.078   9.955  0.2668 -0.1408 -0.0504
  281loPI   C2B 4494   5.939  16.051   9.445 -0.1084 -0.0439 -0.1081
  281loPI   C3B 4495   5.945  16.194   8.908  0.3064  0.0567  0.0843
  281loPI   C4B 4496   5.713  16.254   8.497 -0.0897 -0.1242  0.0163
  282loPI    C1 4497   4.062  13.938  10.832  0.1068 -0.0651 -0.2044
  282loPI    C2 4498   3.839  13.620  10.929 -0.1001  0.0243 -0.3795
  282loPI    C3 4499   3.835  13.945  11.161  0.1747 -0.1277 -0.1558
  282loPI   PO4 4500   4.058  13.995  10.510 -0.0868  0.1323  0.0053
  282loPI   GL1 4501   3.991  14.139  10.153 -0.0259 -0.2770  0.1359
  282loPI   GL2 4502   3.680  13.838  10.206 -0.1701  0.1254  0.1644
  282loPI   C1A 4503   4.146  14.310   9.740  0.1231  0.1798 -0.0910
  282loPI   C2A 4504   4.114  14.370   9.265  0.1959 -0.0228 -0.0775
  282loPI   C3A 4505   3.983  14.313   8.835 -0.0602 -0.1538  0.0807
  282loPI   C4A 4506   4.064  14.279   8.425  0.0967 -0.2028 -0.0210
  282loPI   C5A 4507   4.463  14.251   8.228 -0.1043 -0.3259  0.0521
  282loPI   C6A 4508   4.833  14.130   8.013  0.0423  0.0239  0.1968
  282loPI   C1B 4509   3.745  13.985   9.712 -0.3326 -0.1278 -0.2938
  282loPI   C2B 4510   3.753  13.999   9.319 -0.1323 -0.2285 -0.0323
  282loPI   C3B 4511   3.641  14.005   8.879  0.3494 -0.0369 -0.1440
  282loPI   C4B 4512   3.667  13.995   8.384 -0.0569 -0.0123 -0.2377
  283loPI    C1 4513   3.513   3.056  11.200  0.0862 -0.0291 -0.0033
  283loPI    C2 4514   3.116   3.069  11.150  0.1079  0.0450 -0.1650
  283loPI    C3 4515   3.283   2.764  11.348 -0.0432  0.0959  0.0442
  283loPI   PO4 4516   3.596   3.171  10.928  0.0603  0.0545  0.1122
  283loPI   GL1 4517   3.634   3.120  10.507  0.3461  0.0479  0.0603
  283loPI   GL2 4518   3.909   3.336  10.300  0.0634  0.0365  0.1533
  283loPI   C1A 4519   3.472   2.919  10.096 -0.2165  0.1573 -0.0657
  283loPI   C2A 4520   3.533   2.873   9.584 -0.2968  0.1946  0.1615
  283loPI   C3A 4521   3.672   2.949   9.191  0.0020 -0.0009 -0.0188
  283loPI   C4A 4522   3.652   3.054   8.753  0.2816  0.6954 -0.3890
  283loPI   C5A 4523   4.023   3.000   8.449 -0.0293  0.0227 -0.0007
  283loPI   C6A 4524   4.351   3.061   8.166 -0.0097  0.1884  0.0889
  283loPI   C1B 4525   3.954   3.333   9.798  0.1379 -0.1242  0.1055
  283loPI   C2B 4526   3.978   3.300   9.382 -0.0671 -0.0146  0.3350
  283loPI   C3B 4527   4.064   3.321   8.932  0.1143  0.1813  0.0079
  283loPI   C4B 4528   3.906   3.442   8.602  0.0669  0.0887  0.1397
  284loPI    C1 4529   8.417  14.100  10.487 -0.1822 -0.0331  0.0359
  284loPI    C2 4530   8.671  13.991  10.777  0.1239  0.0112 -0.2103
  284loPI    C3 4531   8.314  14.146  10.871  0.1978 -0.0239  0.1406
  284loPI   PO4 4532   8.594  14.022  10.232  0.2167  0.2910  0.0282
  284loPI   GL1 4533   8.558  13.943   9.682  0.0545  0.1693  0.0766
  284loPI   GL2 4534   8.477  14.262   9.728  0.2454  0.1133  0.2421
  284loPI   C1A 4535   8.454  13.822   9.281 -0.1861 -0.0057 -0.1727
  284loPI   C2A 4536   8.489  13.850   8.856  0.0795  0.0366  0.0653
  284loPI   C3A 4537   8.612  14.046   8.530  0.1332  0.0379  0.0447
  284loPI   C4A 4538   8.588  14.076   8.095  0.0622 -0.0520  0.3603
  284loPI   C5A 4539   8.379  14.360   7.646  0.1883 -0.0635 -0.0388
  284loPI   C6A 4540   8.343  14.455   7.272 -0.1556  0.0774  0.0038
  284loPI   C1B 4541   8.419  14.329   9.308 -0.0485  0.2265  0.1626
  284loPI   C2B 4542   8.440  14.392   8.935  0.1648 -0.0666  0.3136
  284loPI   C3B 4543   8.436  14.539   8.551 -0.1157  0.2753  0.0815
  284loPI   C4B 4544   8.312  14.548   8.101  0.0342 -0.1286 -0.2306
  285loPI    C1 4545  15.978   4.131  11.468  0.1212 -0.2374  0.1539
  285loPI    C2 4546  15.999   3.980  11.838 -0.2378 -0.1518  0.2139
  285loPI    C3 4547  15.643   4.066  11.678 -0.0640  0.1949  0.0031
  285loPI   PO4 4548  16.097   4.045  11.326 -0.4558 -0.2170 -0.0286
  285loPI   GL1 4549  16.078   4.082  10.875 -0.0839 -0.1682 -0.1095
  285loPI   GL2 4550  16.473   4.099  11.016 -0.2673  0.0129  0.0479
  285loPI   C1A 4551  15.936   4.001  10.524  0.1137  0.0855  0.0610
  285loPI   C2A 4552  15.851   4.012  10.062 -0.0919  0.0421 -0.3269
  285loPI   C3A 4553  15.853   3.931   9.659  0.1139 -0.0903 -0.0262
  285loPI   C4A 4554  15.851   4.020   9.219  0.1176  0.0983 -0.0152
  285loPI   C5A 4555  15.899   4.119   8.836 -0.1059  0.1502  0.1527
  285loPI   C6A 4556  15.873   4.215   8.412  0.1593  0.1826 -0.0863
  285loPI   C1B 4557  16.462   3.830  10.625 -0.1601 -0.1379 -0.1322
  285loPI   C2B 4558  16.395   3.763  10.303 -0.1971 -0.3572 -0.1546
  285loPI   C3B 4559  16.343   3.841   9.890  0.4439 -0.0566  0.0818
  285loPI   C4B 4560  16.295   3.862   9.430  0.1344  0.1520 -0.3396
  286loPI    C1 4561   9.018   8.197  10.998  0.1442  0.0700 -0.0544
  286loPI    C2 4562   8.985   7.899  11.263 -0.0015  0.0457 -0.0991
  286loPI    C3 4563   9.335   8.086  11.214  0.0308  0.0381  0.0972
  286loPI   PO4 4564   8.954   8.081  10.780  0.0161  0.0878 -0.2514
  286loPI   GL1 4565   8.727   8.200  10.430  0.0417 -0.1606  0.4475
  286loPI   GL2 4566   8.433   8.354  10.345 -0.1605  0.0320  0.2592
  286loPI   C1A 4567   8.778   8.082  10.031 -0.1469 -0.0771 -0.1064
  286loPI   C2A 4568   8.764   8.068   9.605  0.1498 -0.1370 -0.5336
  286loPI   C3A 4569   8.858   8.070   9.140  0.0323  0.0405 -0.0983
  286loPI   C4A 4570   8.755   8.161   8.739  0.0989 -0.2975  0.1475
  286loPI   C5A 4571   8.731   8.315   8.346  0.0034 -0.4585 -0.1328
  286loPI   C6A 4572   8.755   8.675   8.283  0.1795  0.0415 -0.0874
  286loPI   C1B 4573   8.374   8.269   9.942  0.1265  0.0814 -0.3484
  286loPI   C2B 4574   8.330   8.285   9.530 -0.1548 -0.3208  0.4156
  286loPI   C3B 4575   8.325   8.144   9.073  0.2336 -0.2106 -0.1715
  286loPI   C4B 4576   8.291   8.143   8.563 -0.0055 -0.0628 -0.0041
  287loPI    C1 4577   0.523   9.218  11.020 -0.0916 -0.0423 -0.1200
  287loPI    C2 4578   0.476   9.420  10.678 -0.0253 -0.0101 -0.1103
  287loPI    C3 4579   0.196   9.441  10.964 -0.1820 -0.2040 -0.2459
  287loPI   PO4 4580   0.785   9.069  10.941  0.2157 -0.0995 -0.1371
  287loPI   GL1 4581   0.884   9.105  10.516 -0.2546 -0.1955  0.0732
  287loPI   GL2 4582   1.228   9.193  10.423 -0.3852 -0.0687  0.1167
  287loPI   C1A 4583   0.703   8.953  10.243  0.1330 -0.0372 -0.1593
  287loPI   C2A 4584   0.730   8.968   9.819 -0.1642 -0.0422 -0.1316
  287loPI   C3A 4585   0.733   9.040   9.405  0.2876  0.0572 -0.1448
  287loPI   C4A 4586   0.709   8.975   8.989 -0.1803 -0.0140  0.2796
  287loPI   C5A 4587   0.649   9.068   8.526  0.0723 -0.0217 -0.2114
  287loPI   C6A 4588   0.710   8.950   8.182 -0.1285  0.2756  0.1358
  287loPI   C1B 4589   1.171   9.357  10.010  0.1134 -0.1496  0.2576
  287loPI   C2B 4590   1.121   9.339   9.644 -0.0974  0.0894  0.0511
  287loPI   C3B 4591   0.991   9.415   9.174  0.1596  0.2427  0.2225
  287loPI   C4B 4592   1.036   9.339   8.699 -0.2035  0.2691  0.3692
  288loPI    C1 4593   8.514   0.975  11.067  0.0455 -0.1337  0.0929
  288loPI    C2 4594   8.202   1.061  11.302  0.0887  0.1606  0.0472
  288loPI    C3 4595   8.574   1.123  11.434  0.1213  0.0572  0.0051
  288loPI   PO4 4596   8.381   0.874  10.870 -0.1300 -0.2934  0.0460
  288loPI   GL1 4597   8.483   0.964  10.436  0.0463  0.3065 -0.0428
  288loPI   GL2 4598   8.171   1.149  10.470  0.0903 -0.2108  0.2018
  288loPI   C1A 4599   8.631   0.922  10.012 -0.1521  0.0529 -0.0738
  288loPI   C2A 4600   8.646   0.976   9.567  0.3071 -0.0254  0.0260
  288loPI   C3A 4601   8.551   1.068   9.087  0.3201 -0.0064 -0.1116
  288loPI   C4A 4602   8.626   1.099   8.648  0.0746 -0.3573  0.0021
  288loPI   C5A 4603   8.612   0.888   8.263 -0.2702 -0.1559 -0.0088
  288loPI   C6A 4604   8.592   0.461   8.156  0.2767  0.1641 -0.3179
  288loPI   C1B 4605   8.179   1.141   9.990 -0.2718  0.0938 -0.1430
  288loPI   C2B 4606   8.083   1.105   9.519  0.0202 -0.0809  0.0022
  288loPI   C3B 4607   8.007   1.117   9.070 -0.1119  0.0873 -0.0614
  288loPI   C4B 4608   8.175   1.223   8.667 -0.0989  0.3146  0.1813
  289loPI    C1 4609   9.297   0.900  10.978 -0.0487  0.1598  0.2562
  289loPI    C2 4610   9.235   0.511  11.050 -0.1386  0.1040 -0.1023
  289loPI    C3 4611   8.992   0.786  11.209  0.0217  0.0280  0.2848
  289loPI   PO4 4612   9.544   0.860  10.894  0.0404  0.2560  0.0388
  289loPI   GL1 4613   9.723   0.871  10.358  0.0328 -0.0403 -0.2111
  289loPI   GL2 4614  10.091   1.046  10.284 -0.0162  0.0307 -0.1593
  289loPI   C1A 4615   9.614   0.608   9.960 -0.2314  0.0026  0.0729
  289loPI   C2A 4616   9.601   0.600   9.572 -0.1790 -0.1154  0.0953
  289loPI   C3A 4617   9.501   0.774   9.192  0.0972 -0.1304  0.3230
  289loPI   C4A 4618   9.664   0.729   8.800 -0.2998  0.1923 -0.0977
  289loPI   C5A 4619   9.677   0.828   8.425  0.0339  0.2460 -0.1197
  289loPI   C6A 4620   9.852   0.723   8.082 -0.0811 -0.1178  0.3841
  289loPI   C1B 4621  10.014   1.119   9.796 -0.1717  0.1598 -0.3241
  289loPI   C2B 4622   9.999   1.023   9.420 -0.0086 -0.1349 -0.0586
  289loPI   C3B 4623  10.045   1.266   9.066 -0.2826  0.0374 -0.1912
  289loPI   C4B 4624  10.099   1.354   8.621  0.1126 -0.1389 -0.3495
  290loPI    C1 4625   6.751   8.366  10.920 -0.0343  0.0842 -0.0374
  290loPI    C2 4626   6.745   8.283  11.312  0.0531  0.0192 -0.0493
  290loPI    C3 4627   6.455   8.507  11.150  0.0144  0.0425  0.0514
  290loPI   PO4 4628   6.929   8.151  10.828 -0.1303 -0.2173 -0.0370
  290loPI   GL1 4629   6.946   7.951  10.464  0.3388  0.0882 -0.1949
  290loPI   GL2 4630   6.647   8.054  10.405  0.0535 -0.0887  0.2326
  290loPI   C1A 4631   7.037   7.739  10.028 -0.1014  0.2325  0.1711
  290loPI   C2A 4632   7.005   7.600   9.584 -0.0204 -0.2736 -0.0040
  290loPI   C3A 4633   7.048   7.688   9.217  0.0121 -0.0381  0.2262
  290loPI   C4A 4634   7.071   7.594   8.737  0.0924 -0.1274 -0.1436
  290loPI   C5A 4635   7.295   7.248   8.608 -0.0365  0.1187 -0.0762
  290loPI   C6A 4636   7.240   6.706   8.649  0.0368  0.1985 -0.1486
  290loPI   C1B 4637   6.522   7.890  10.075 -0.1962 -0.0988  0.0531
  290loPI   C2B 4638   6.502   7.764   9.704 -0.2279 -0.0764 -0.2128
  290loPI   C3B 4639   6.547   7.750   9.273 -0.0421  0.0036  0.4738
  290loPI   C4B 4640   6.459   7.709   8.865  0.2657 -0.0813 -0.1316
  291loPI    C1 4641  11.801   7.198  11.178 -0.0137  0.0393 -0.0685
  291loPI    C2 4642  11.871   6.915  11.452  0.0323  0.0769 -0.0413
  291loPI    C3 4643  11.934   7.300  11.541 -0.0752  0.1000 -0.0629
  291loPI   PO4 4644  11.666   7.048  10.956 -0.1324 -0.0569  0.0529
  291loPI   GL1 4645  11.395   6.973  10.628  0.0792 -0.1283  0.4875
  291loPI   GL2 4646  11.584   7.203  10.384  0.1425 -0.3471  0.1351
  291loPI   C1A 4647  11.361   6.774  10.205 -0.0709  0.2373  0.0274
  291loPI   C2A 4648  11.347   6.692   9.784  0.0906  0.3163  0.0842
  291loPI   C3A 4649  11.466   6.765   9.342 -0.0361  0.2304 -0.4266
  291loPI   C4A 4650  11.527   6.788   8.842  0.0848 -0.0487 -0.0788
  291loPI   C5A 4651  11.883   7.026   8.664  0.3521  0.1779 -0.2394
  291loPI   C6A 4652  12.193   7.069   8.340  0.1297  0.0692 -0.0576
  291loPI   C1B 4653  11.399   7.226   9.959  0.3730 -0.0653 -0.2000
  291loPI   C2B 4654  11.391   7.274   9.561  0.0926 -0.1264 -0.0037
  291loPI   C3B 4655  11.413   7.364   9.077  0.1300 -0.4595 -0.2220
  291loPI   C4B 4656  11.565   7.474   8.701 -0.1978 -0.2441  0.0306
  292loPI    C1 4657  10.146   9.701  10.875  0.0330 -0.0857  0.0495
  292loPI    C2 4658  10.245   9.881  11.218 -0.0276  0.0298  0.0070
  292loPI    C3 4659  10.082   9.516  11.224  0.1276 -0.0393  0.0919
  292loPI   PO4 4660  10.362   9.827  10.697  0.1089 -0.0991 -0.0048
  292loPI   GL1 4661  10.311  10.080  10.337  0.1175 -0.1004  0.0013
  292loPI   GL2 4662  10.150  10.344  10.329 -0.1203  0.0660 -0.2335
  292loPI   C1A 4663  10.318  10.034   9.935 -0.1497 -0.0208 -0.0539
  292loPI   C2A 4664  10.361  10.046   9.582  0.0036 -0.1814  0.0475
  292loPI   C3A 4665  10.297  10.005   9.086  0.1506 -0.1912  0.1549
  292loPI   C4A 4666  10.264   9.960   8.624 -0.1982  0.3536 -0.0117
  292loPI   C5A 4667   9.951  10.049   8.341 -0.1628 -0.2165  0.1061
  292loPI   C6A 4668   9.608  10.322   8.316 -0.4206  0.1721 -0.2734
  292loPI   C1B 4669   9.871  10.233  10.045  0.0372 -0.3657  0.2376
  292loPI   C2B 4670   9.841  10.096   9.656 -0.0453 -0.2196  0.0091
  292loPI   C3B 4671   9.822  10.077   9.294 -0.0612  0.2030 -0.2599
  292loPI   C4B 4672   9.811  10.121   8.912  0.0210 -0.3230  0.0018
  293loPI    C1 4673   6.926   1.761  11.096 -0.0180  0.0115 -0.0103
  293loPI    C2 4674   7.153   2.039  11.273 -0.0318 -0.0159  0.0506
  293loPI    C3 4675   6.906   1.813  11.492  0.0164 -0.1106  0.0078
  293loPI   PO4 4676   6.929   1.883  10.853 -0.1156  0.1807 -0.5375
  293loPI   GL1 4677   6.665   1.631  10.497  0.0779  0.1559  0.0297
  293loPI   GL2 4678   6.562   1.236  10.570 -0.1679 -0.1587 -0.1104
  293loPI   C1A 4679   6.683   1.562  10.021 -0.2488  0.3251  0.3900
  293loPI   C2A 4680   6.621   1.505   9.624 -0.2414  0.0126 -0.0520
  293loPI   C3A 4681   6.650   1.595   9.161 -0.4203 -0.2781  0.2566
  293loPI   C4A 4682   6.775   1.692   8.766 -0.0137  0.0677  0.2868
  293loPI   C5A 4683   7.130   1.517   8.577  0.0389  0.3439  0.2061
  293loPI   C6A 4684   7.441   1.229   8.412  0.1882  0.0686  0.0516
  293loPI   C1B 4685   6.661   1.072  10.161 -0.0849 -0.1503 -0.1201
  293loPI   C2B 4686   6.744   0.978   9.788  0.0633 -0.3691 -0.0262
  293loPI   C3B 4687   6.732   1.113   9.327 -0.4534 -0.0768 -0.0262
  293loPI   C4B 4688   6.698   1.124   8.881 -0.1885  0.1468  0.1175
  294loPI    C1 4689  11.820   0.860  10.585  0.0473  0.1456  0.0322
  294loPI    C2 4690  11.907   0.516  10.400  0.0420  0.0764  0.1577
  294loPI    C3 4691  11.771   0.513  10.776 -0.2691  0.1970  0.0499
  294loPI   PO4 4692  11.696   0.999  10.411  0.3187 -0.0669 -0.0821
  294loPI   GL1 4693  11.714   1.297  10.110  0.3310  0.2935  0.0146
  294loPI   GL2 4694  11.771   1.448   9.886  0.0948 -0.0284  0.1628
  294loPI   C1A 4695  11.931   1.068   9.671  0.1716  0.0861  0.3509
  294loPI   C2A 4696  11.957   1.045   9.232 -0.2165  0.0570 -0.0050
  294loPI   C3A 4697  12.057   1.067   8.887 -0.0654  0.2484  0.1535
  294loPI   C4A 4698  11.908   1.073   8.508 -0.0320  0.1528 -0.0801
  294loPI   C5A 4699  11.959   1.282   8.131 -0.1185  0.1255 -0.1207
  294loPI   C6A 4700  12.188   1.454   7.745 -0.2118  0.4111  0.2283
  294loPI   C1B 4701  11.808   1.520   9.421  0.1060 -0.0740  0.2807
  294loPI   C2B 4702  11.901   1.574   8.988  0.1423 -0.0322 -0.1313
  294loPI   C3B 4703  12.034   1.507   8.546 -0.0889 -0.3395  0.2308
  294loPI   C4B 4704  12.396   1.564   8.333 -0.1025 -0.0336  0.2390
  295loPI    C1 4705   8.395   2.242  10.855 -0.0975  0.0668 -0.0172
  295loPI    C2 4706   8.241   2.041  11.165  0.2297 -0.0949  0.0451
  295loPI    C3 4707   8.406   2.401  11.222  0.0259  0.0058  0.0064
  295loPI   PO4 4708   8.215   2.275  10.738 -0.2263  0.2737  0.0495
  295loPI   GL1 4709   8.088   2.637  10.614 -0.0141 -0.1342 -0.0007
  295loPI   GL2 4710   7.856   2.599  10.467  0.0236  0.0552  0.0007
  295loPI   C1A 4711   8.272   2.649  10.186 -0.0401 -0.2873  0.0694
  295loPI   C2A 4712   8.229   2.602   9.760  0.1034  0.1262 -0.0955
  295loPI   C3A 4713   8.256   2.553   9.413  0.0152  0.1362  0.2693
  295loPI   C4A 4714   8.251   2.578   8.946 -0.2302  0.0726 -0.1136
  295loPI   C5A 4715   7.996   2.620   8.567 -0.0635  0.0663 -0.0676
  295loPI   C6A 4716   7.659   2.353   8.434  0.4913  0.0676 -0.2660
  295loPI   C1B 4717   7.795   2.747   9.975 -0.0236 -0.0871  0.3396
  295loPI   C2B 4718   7.767   2.706   9.511 -0.0278  0.1696  0.0350
  295loPI   C3B 4719   7.741   2.789   9.033 -0.1617  0.1064 -0.0288
  295loPI   C4B 4720   7.621   2.930   8.588  0.0218 -0.1285 -0.1517
  296loPI    C1 4721   2.187   2.961  11.508  0.1384  0.1388 -0.0778
  296loPI    C2 4722   2.005   3.298  11.622  0.0732  0.0395  0.1162
  296loPI    C3 4723   2.068   3.005  11.887  0.1210 -0.1051 -0.0532
  296loPI   PO4 4724   2.066   3.035  11.242  0.1771  0.1207  0.0458
  296loPI   GL1 4725   1.920   3.299  10.823  0.3987  0.0508 -0.1958
  296loPI   GL2 4726   1.744   2.976  10.764  0.4237 -0.2104  0.1425
  296loPI   C1A 4727   2.080   3.400  10.418  0.0761  0.3473 -0.0588
  296loPI   C2A 4728   2.078   3.367  10.084  0.0007  0.1614 -0.0533
  296loPI   C3A 4729   1.961   3.398   9.674  0.1297  0.0593  0.0380
  296loPI   C4A 4730   2.044   3.289   9.244 -0.1665  0.3450  0.0079
  296loPI   C5A 4731   1.977   3.082   8.811 -0.1809 -0.0309  0.1627
  296loPI   C6A 4732   1.747   3.222   8.438  0.1740 -0.1793  0.1177
  296loPI   C1B 4733   1.690   3.087  10.334 -0.0499  0.2312 -0.0294
  296loPI   C2B 4734   1.557   2.980   9.943  0.0116 -0.2115 -0.2383
  296loPI   C3B 4735   1.589   3.011   9.464  0.1958  0.2854 -0.0972
  296loPI   C4B 4736   1.535   3.043   8.986 -0.1276  0.1654  0.0832
  297loPI    C1 4737   1.999   5.431  11.316 -0.0811  0.1654 -0.1900
  297loPI    C2 4738   1.944   5.477  11.710  0.0231  0.0225 -0.1578
  297loPI    C3 4739   2.189   5.192  11.574  0.1188  0.1798 -0.3213
  297loPI   PO4 4740   1.813   5.469  11.202 -0.3501 -0.0922  0.0296
  297loPI   GL1 4741   1.970   5.695  10.735  0.0060  0.0450  0.0644
  297loPI   GL2 4742   2.167   5.382  10.786 -0.0828 -0.0989 -0.0469
  297loPI   C1A 4743   2.027   5.787  10.350 -0.1327 -0.0076 -0.0698
  297loPI   C2A 4744   1.986   5.879   9.897 -0.0481  0.0621  0.0817
  297loPI   C3A 4745   1.909   5.770   9.477 -0.2151 -0.0830  0.0883
  297loPI   C4A 4746   1.805   5.706   9.113 -0.0600  0.1305 -0.4253
  297loPI   C5A 4747   1.878   5.470   8.790  0.0149  0.2721 -0.0929
  297loPI   C6A 4748   2.002   5.019   8.675 -0.0324 -0.1557  0.0526
  297loPI   C1B 4749   2.034   5.301  10.366  0.3714  0.2717 -0.4564
  297loPI   C2B 4750   2.055   5.364   9.992 -0.1173 -0.2379  0.0753
  297loPI   C3B 4751   1.995   5.246   9.610  0.2166  0.0153 -0.2879
  297loPI   C4B 4752   1.970   5.190   9.158  0.1292  0.1462  0.1894
  298loPI    C1 4753   8.729  12.162  10.215  0.0136  0.0107  0.0407
  298loPI    C2 4754   8.721  12.283  10.596 -0.0149 -0.0016  0.0440
  298loPI    C3 4755   8.657  11.898  10.507 -0.2038  0.0362  0.0117
  298loPI   PO4 4756   8.809  12.414  10.124  0.1501  0.0530  0.0466
  298loPI   GL1 4757   8.805  12.491   9.766  0.2291 -0.3167 -0.0267
  298loPI   GL2 4758   8.888  12.809   9.767  0.1584 -0.1318  0.0894
  298loPI   C1A 4759   8.606  12.506   9.403  0.1665  0.2012 -0.2510
  298loPI   C2A 4760   8.458  12.437   9.086 -0.3627  0.0357  0.4254
  298loPI   C3A 4761   8.533  12.409   8.691 -0.0445  0.1263  0.2077
  298loPI   C4A 4762   8.378  12.323   8.263  0.3301  0.3181 -0.1448
  298loPI   C5A 4763   8.487  12.366   7.817  0.0414  0.0134  0.1379
  298loPI   C6A 4764   8.862  12.302   7.710 -0.1586  0.1243  0.4946
  298loPI   C1B 4765   8.934  12.881   9.358 -0.0020  0.0680  0.3194
  298loPI   C2B 4766   8.787  12.909   8.890  0.2056  0.2294 -0.0110
  298loPI   C3B 4767   8.847  12.814   8.497  0.2083 -0.0862 -0.1604
  298loPI   C4B 4768   8.683  12.794   8.113  0.0329  0.1365  0.1813
  299loPI    C1 4769   3.527   4.967  11.124 -0.0031  0.0999 -0.0411
  299loPI    C2 4770   3.668   4.602  11.210 -0.3671 -0.0217  0.0572
  299loPI    C3 4771   3.506   4.827  11.498 -0.1227  0.2307  0.0016
  299loPI   PO4 4772   3.358   4.867  10.820 -0.0264 -0.2460 -0.2048
  299loPI   GL1 4773   3.286   5.057  10.430  0.3671  0.0510  0.2676
  299loPI   GL2 4774   2.922   5.058  10.477  0.0655  0.2072  0.0393
  299loPI   C1A 4775   3.442   4.936   9.977  0.1083 -0.4322  0.1048
  299loPI   C2A 4776   3.563   4.773   9.546  0.2531 -0.1172  0.1745
  299loPI   C3A 4777   3.725   4.391   9.337 -0.1425  0.1193  0.1681
  299loPI   C4A 4778   3.702   4.219   9.027  0.1157 -0.1550 -0.1375
  299loPI   C5A 4779   3.735   4.384   8.623  0.0736 -0.1681 -0.0377
  299loPI   C6A 4780   3.771   4.800   8.516 -0.0330 -0.1372  0.0965
  299loPI   C1B 4781   2.954   5.085  10.022  0.2592 -0.0512 -0.0883
  299loPI   C2B 4782   3.083   5.086   9.617  0.0481 -0.1123 -0.3044
  299loPI   C3B 4783   3.274   4.965   9.118  0.2984  0.0879 -0.1152
  299loPI   C4B 4784   3.650   4.792   9.005  0.0168 -0.2708 -0.0871
  300loPI    C1 4785  16.952  13.885  10.823  0.0437 -0.1432 -0.1654
  300loPI    C2 4786  16.602  14.025  10.957  0.0693 -0.0862 -0.1583
  300loPI    C3 4787  16.827  13.792  11.191 -0.0765 -0.3227 -0.2504
  300loPI   PO4 4788  16.909  13.853  10.620 -0.0490  0.1066 -0.2084
  300loPI   GL1 4789  16.808  13.535  10.282  0.3415 -0.3021 -0.1740
  300loPI   GL2 4790  16.957  13.338  10.455  0.1331 -0.1080  0.0180
  300loPI   C1A 4791  16.775  13.434   9.952  0.1390  0.0401 -0.1192
  300loPI   C2A 4792  16.837  13.358   9.543 -0.0506 -0.2602  0.0002
  300loPI   C3A 4793  16.839  13.340   9.076 -0.0330 -0.1401  0.2622
  300loPI   C4A 4794  16.744  13.156   8.698 -0.2575  0.1712 -0.2565
  300loPI   C5A 4795  17.109  13.188   8.417  0.1904 -0.1251  0.1966
  300loPI   C6A 4796  17.493  13.374   8.378  0.0268  0.0586  0.3165
  300loPI   C1B 4797  17.207  13.212  10.146 -0.2560  0.0603 -0.2021
  300loPI   C2B 4798  17.357  13.174   9.737 -0.1535 -0.0006  0.2084
  300loPI   C3B 4799  17.249  13.108   9.339  0.3508 -0.2799  0.1416
  300loPI   C4B 4800  17.302  13.123   8.913  0.0729  0.1088 -0.1921
  301loPI    C1 4801   5.148   1.802  11.408 -0.0535 -0.0253 -0.0114
  301loPI    C2 4802   4.838   1.575  11.522  0.1150 -0.2649 -0.0240
  301loPI    C3 4803   4.955   1.882  11.750 -0.0942 -0.2090  0.0098
  301loPI   PO4 4804   5.072   1.806  11.045  0.2607  0.3066 -0.3256
  301loPI   GL1 4805   4.966   1.619  10.719  0.3663  0.2182  0.1012
  301loPI   GL2 4806   4.750   1.762  10.592 -0.3405  0.4072  0.1855
  301loPI   C1A 4807   5.196   1.552  10.276 -0.2152 -0.3079  0.1193
  301loPI   C2A 4808   5.224   1.468   9.829 -0.1172 -0.4534  0.0720
  301loPI   C3A 4809   5.216   1.521   9.414  0.0752  0.0836 -0.1218
  301loPI   C4A 4810   5.281   1.524   9.014  0.1636 -0.0912  0.0489
  301loPI   C5A 4811   5.204   1.677   8.638 -0.1218 -0.0326  0.2040
  301loPI   C6A 4812   5.001   1.843   8.197 -0.1198 -0.0282  0.1415
  301loPI   C1B 4813   4.736   1.658  10.165  0.1913 -0.0276  0.3211
  301loPI   C2B 4814   4.673   1.609   9.787  0.0715 -0.2227  0.0249
  301loPI   C3B 4815   4.727   1.744   9.494 -0.3294 -0.0913  0.1847
  301loPI   C4B 4816   4.813   1.643   8.987 -0.1672 -0.1787 -0.2191
  302loPI    C1 4817   7.472  15.236  10.737  0.1163 -0.0214  0.1148
  302loPI    C2 4818   7.292  15.535  10.932  0.2437  0.3175 -0.2730
  302loPI    C3 4819   7.558  15.304  11.121 -0.3485  0.0098  0.2193
  302loPI   PO4 4820   7.206  15.200  10.545  0.0919 -0.0330 -0.2439
  302loPI   GL1 4821   7.093  15.334  10.190 -0.0130 -0.0507 -0.0092
  302loPI   GL2 4822   6.787  15.302  10.157 -0.0617  0.0969  0.3393
  302loPI   C1A 4823   7.181  15.299   9.830  0.0023 -0.1127 -0.3739
  302loPI   C2A 4824   7.221  15.313   9.443 -0.2146 -0.0177 -0.1063
  302loPI   C3A 4825   7.115  15.478   8.962  0.4392  0.0651 -0.1131
  302loPI   C4A 4826   6.948  15.566   8.550  0.0499 -0.1040 -0.3998
  302loPI   C5A 4827   6.970  15.485   8.078 -0.1144  0.0613 -0.3132
  302loPI   C6A 4828   7.334  15.555   7.764  0.0005 -0.1785  0.1814
  302loPI   C1B 4829   6.649  15.417   9.701  0.0353 -0.0447 -0.0242
  302loPI   C2B 4830   6.537  15.465   9.226  0.2875  0.0832 -0.3359
  302loPI   C3B 4831   6.577  15.632   8.834  0.1084 -0.0558  0.0559
  302loPI   C4B 4832   6.505  15.718   8.397  0.2613  0.3403  0.1255
  303loPI    C1 4833   9.912   8.200  10.915  0.2196 -0.0396  0.0005
  303loPI    C2 4834  10.137   8.046  11.208 -0.1237 -0.2129  0.1790
  303loPI    C3 4835   9.794   8.232  11.296 -0.2006 -0.2136 -0.1094
  303loPI   PO4 4836   9.978   8.052  10.636 -0.2040  0.0148  0.1505
  303loPI   GL1 4837  10.108   8.263  10.271  0.0991 -0.0785  0.2893
  303loPI   GL2 4838  10.124   8.524  10.248 -0.0597  0.0344 -0.0304
  303loPI   C1A 4839  10.215   8.208   9.867  0.0719  0.1694 -0.2309
  303loPI   C2A 4840  10.299   8.226   9.556 -0.1720 -0.1666 -0.1622
  303loPI   C3A 4841  10.236   8.146   9.153 -0.0828 -0.0922  0.0909
  303loPI   C4A 4842  10.182   8.104   8.726  0.0097  0.0970  0.2519
  303loPI   C5A 4843  10.150   8.241   8.307 -0.2379 -0.0430 -0.0259
  303loPI   C6A 4844  10.278   8.615   8.141 -0.0767  0.2792  0.0629
  303loPI   C1B 4845  10.106   8.668   9.849 -0.0927 -0.3715 -0.2629
  303loPI   C2B 4846  10.162   8.698   9.420 -0.2294 -0.1584  0.3451
  303loPI   C3B 4847  10.108   8.603   9.014  0.3555 -0.1614  0.0942
  303loPI   C4B 4848  10.092   8.615   8.623  0.1002 -0.1442 -0.2664
  304loPI    C1 4849  14.849   8.465  11.395 -0.0311 -0.1783  0.1228
  304loPI    C2 4850  15.088   8.601  11.685 -0.0119  0.0941 -0.0169
  304loPI    C3 4851  14.778   8.821  11.562 -0.1570 -0.1229 -0.0456
  304loPI   PO4 4852  15.014   8.405  11.221 -0.2087 -0.3362  0.0439
  304loPI   GL1 4853  15.115   8.284  10.732 -0.2387  0.1778 -0.0021
  304loPI   GL2 4854  15.077   7.910  10.695 -0.1104 -0.2361 -0.1430
  304loPI   C1A 4855  15.187   8.509  10.380 -0.0422  0.0197  0.0902
  304loPI   C2A 4856  15.373   8.460   9.979  0.1358 -0.2312 -0.1047
  304loPI   C3A 4857  15.317   8.478   9.559 -0.0940  0.0985 -0.1031
  304loPI   C4A 4858  15.305   8.433   9.088  0.2588  0.0005 -0.1525
  304loPI   C5A 4859  15.329   8.379   8.636 -0.0556  0.1165  0.1690
  304loPI   C6A 4860  15.419   8.664   8.287  0.0885  0.0409 -0.0371
  304loPI   C1B 4861  14.925   8.011  10.303 -0.1843 -0.0693 -0.2317
  304loPI   C2B 4862  14.863   8.054   9.801 -0.0743 -0.0311  0.1145
  304loPI   C3B 4863  14.929   8.124   9.276  0.1701  0.1534 -0.2408
  304loPI   C4B 4864  14.914   8.177   8.870  0.1490  0.2492  0.2972
  305loPI    C1 4865   5.681  14.701  10.619 -0.1162 -0.0294  0.1398
  305loPI    C2 4866   5.786  14.315  10.633  0.2555  0.0736  0.2938
  305loPI    C3 4867   5.628  14.491  10.956 -0.0473  0.0169  0.1797
  305loPI   PO4 4868   5.618  14.745  10.409 -0.0908  0.2038  0.0414
  305loPI   GL1 4869   5.452  14.658  10.113 -0.2064  0.2208  0.1312
  305loPI   GL2 4870   5.462  14.353  10.028 -0.0774  0.0075  0.0096
  305loPI   C1A 4871   5.445  14.767   9.615 -0.2105  0.0036 -0.0094
  305loPI   C2A 4872   5.263  14.892   9.189  0.1919 -0.0818  0.1365
  305loPI   C3A 4873   5.166  14.979   8.827  0.0829  0.1359  0.2019
  305loPI   C4A 4874   5.190  15.316   8.337  0.2132 -0.0642 -0.1683
  305loPI   C5A 4875   5.398  15.645   8.244  0.2767 -0.2733 -0.0443
  305loPI   C6A 4876   5.809  15.802   8.271  0.1148  0.0208 -0.1447
  305loPI   C1B 4877   5.541  14.296   9.587 -0.1457  0.0610  0.0320
  305loPI   C2B 4878   5.500  14.321   9.212  0.1303 -0.2264  0.2888
  305loPI   C3B 4879   5.536  14.073   8.812 -0.0623 -0.1157  0.2306
  305loPI   C4B 4880   5.552  14.152   8.383  0.1990  0.1921 -0.1500
  306loPI    C1 4881   4.637   3.536  10.943 -0.2206 -0.1797 -0.0417
  306loPI    C2 4882   4.334   3.640  11.182  0.0030  0.1464  0.1063
  306loPI    C3 4883   4.663   3.472  11.337  0.0149  0.0556 -0.0161
  306loPI   PO4 4884   4.510   3.685  10.710  0.0195 -0.1524  0.3006
  306loPI   GL1 4885   4.521   4.081  10.479 -0.1440 -0.0291 -0.0928
  306loPI   GL2 4886   4.747   4.004  10.283 -0.0427 -0.1372 -0.0600
  306loPI   C1A 4887   4.309   4.320  10.239 -0.1447  0.3306 -0.1706
  306loPI   C2A 4888   4.133   4.220   9.917 -0.3254  0.2456 -0.1755
  306loPI   C3A 4889   4.130   4.141   9.518  0.0229 -0.1122 -0.0216
  306loPI   C4A 4890   4.253   4.204   9.155 -0.2057  0.2368 -0.0043
  306loPI   C5A 4891   4.359   4.220   8.683 -0.0942 -0.0403  0.1618
  306loPI   C6A 4892   4.516   4.553   8.462  0.2196  0.1858 -0.1356
  306loPI   C1B 4893   4.629   4.068   9.904  0.0228  0.0176  0.0394
  306loPI   C2B 4894   4.664   4.032   9.465 -0.0804  0.4700 -0.0653
  306loPI   C3B 4895   4.766   4.036   9.099  0.0290 -0.0716  0.0783
  306loPI   C4B 4896   4.806   3.986   8.643 -0.0679  0.3518  0.4423
  307loPI    C1 4897   5.794  11.253  10.955 -0.2139  0.1473  0.2972
  307loPI    C2 4898   5.814  10.917  11.171 -0.1917  0.0754  0.1835
  307loPI    C3 4899   5.954  11.260  11.322  0.0870 -0.0305  0.1725
  307loPI   PO4 4900   5.888  11.167  10.673  0.2245  0.2091 -0.3599
  307loPI   GL1 4901   6.038  10.982  10.287 -0.1715  0.1250 -0.0140
  307loPI   GL2 4902   5.702  10.914  10.219 -0.1286  0.2780 -0.0371
  307loPI   C1A 4903   6.289  10.868   9.944 -0.3314 -0.0834 -0.0866
  307loPI   C2A 4904   6.305  10.810   9.560  0.1393 -0.0017 -0.0559
  307loPI   C3A 4905   6.353  10.710   9.141 -0.2361  0.1359  0.4447
  307loPI   C4A 4906   6.396  10.681   8.643 -0.2050 -0.0980 -0.1480
  307loPI   C5A 4907   6.243  10.497   8.276  0.0658 -0.0087  0.0195
  307loPI   C6A 4908   6.009  10.596   7.944  0.0702 -0.1410 -0.0279
  307loPI   C1B 4909   5.810  10.821   9.701 -0.2722  0.0448  0.0925
  307loPI   C2B 4910   5.811  10.700   9.268  0.1744  0.1285 -0.1058
  307loPI   C3B 4911   5.936  10.742   8.843  0.3791  0.0754  0.4040
  307loPI   C4B 4912   5.998  10.940   8.444  0.1738  0.2976 -0.0181
  308loPI    C1 4913  11.049  16.414  10.350  0.1027  0.2064  0.0347
  308loPI    C2 4914  11.320  16.554  10.609  0.1164  0.0029  0.1325
  308loPI    C3 4915  11.336  16.173  10.489 -0.0730  0.0137  0.0692
  308loPI   PO4 4916  11.029  16.585  10.172 -0.3552  0.1098 -0.0442
  308loPI   GL1 4917  11.152  16.497   9.755 -0.2244  0.0218 -0.0157
  308loPI   GL2 4918  11.183  16.211   9.763 -0.2288  0.2517  0.2557
  308loPI   C1A 4919  11.056  16.678   9.326 -0.0054  0.1504 -0.0280
  308loPI   C2A 4920  11.003  16.819   8.870 -0.0657 -0.1609 -0.1695
  308loPI   C3A 4921  10.948  16.767   8.529 -0.0879 -0.2137 -0.0565
  308loPI   C4A 4922  10.824  16.750   8.070  0.0867 -0.0348 -0.0217
  308loPI   C5A 4923  10.562  16.900   7.708 -0.1587  0.1923  0.0193
  308loPI   C6A 4924  10.356  16.558   7.481 -0.0556  0.1383 -0.1919
  308loPI   C1B 4925  11.292  16.083   9.409  0.1120 -0.0532 -0.0628
  308loPI   C2B 4926  11.208  15.881   9.054 -0.2325 -0.0001  0.0620
  308loPI   C3B 4927  11.155  15.950   8.589  0.1827  0.0590  0.1703
  308loPI   C4B 4928  11.270  15.810   8.140  0.0707  0.0904 -0.0072
  309loPI    C1 4929  15.791  12.091  11.375 -0.1346  0.1520 -0.1729
  309loPI    C2 4930  15.698  11.769  11.593  0.0706  0.1198 -0.1310
  309loPI    C3 4931  15.515  12.117  11.664  0.0589  0.0834  0.0212
  309loPI   PO4 4932  15.853  11.893  11.101 -0.0026 -0.0240 -0.0346
  309loPI   GL1 4933  16.123  11.894  10.736  0.2099  0.0545  0.2571
  309loPI   GL2 4934  15.973  11.781  10.442  0.1787 -0.3605  0.0170
  309loPI   C1A 4935  16.051  12.385  10.492  0.2602 -0.2405 -0.3992
  309loPI   C2A 4936  15.903  12.599   9.998 -0.0439  0.4144 -0.1853
  309loPI   C3A 4937  16.014  12.613   9.555 -0.1779  0.1973 -0.3339
  309loPI   C4A 4938  16.083  12.559   9.147 -0.2825 -0.1349  0.2271
  309loPI   C5A 4939  16.223  12.527   8.693  0.0457 -0.4569 -0.1972
  309loPI   C6A 4940  16.507  12.774   8.480  0.2664 -0.1773  0.0052
  309loPI   C1B 4941  15.809  11.758  10.054 -0.1306  0.2756  0.0430
  309loPI   C2B 4942  15.826  11.686   9.540  0.0343  0.1304  0.0035
  309loPI   C3B 4943  15.962  11.689   9.143 -0.1825 -0.0158  0.1285
  309loPI   C4B 4944  15.992  11.713   8.687  0.2110 -0.2062 -0.2716
  310loPI    C1 4945   5.607   4.400  11.318 -0.0241  0.0788  0.0122
  310loPI    C2 4946   5.899   4.636  11.456  0.2512 -0.2495  0.0051
  310loPI    C3 4947   5.615   4.502  11.704 -0.0046  0.2162 -0.0240
  310loPI   PO4 4948   5.695   4.474  11.013 -0.1706 -0.1602  0.5626
  310loPI   GL1 4949   5.727   4.245  10.647 -0.4025  0.2501 -0.2171
  310loPI   GL2 4950   6.085   4.278  10.726  0.2246 -0.3272 -0.0032
  310loPI   C1A 4951   5.654   4.137  10.246 -0.0538 -0.1830  0.3314
  310loPI   C2A 4952   5.572   4.206   9.820  0.0584  0.1165 -0.0069
  310loPI   C3A 4953   5.497   4.311   9.410 -0.0910 -0.1120  0.4655
  310loPI   C4A 4954   5.558   4.325   9.094 -0.1060  0.0100 -0.0052
  310loPI   C5A 4955   5.598   4.235   8.732 -0.3173  0.2353  0.1751
  310loPI   C6A 4956   5.512   4.272   8.339  0.1406  0.0946  0.1285
  310loPI   C1B 4957   6.142   4.120  10.351 -0.1664  0.1997  0.0615
  310loPI   C2B 4958   6.075   4.133   9.949  0.2546  0.1697  0.2951
  310loPI   C3B 4959   6.020   4.163   9.457 -0.2739 -0.3794 -0.1290
  310loPI   C4B 4960   6.195   4.179   8.987 -0.2124 -0.1529 -0.1320
  311loPI    C1 4961   0.355   3.446  11.386 -0.0410  0.2061  0.0261
  311loPI    C2 4962   0.492   3.810  11.480  0.0123  0.1467  0.1822
  311loPI    C3 4963   0.460   3.529  11.763  0.2256 -0.0530  0.0130
  311loPI   PO4 4964   0.248   3.516  11.149  0.0014  0.2485  0.2236
  311loPI   GL1 4965   0.114   3.294  10.895  0.3960 -0.3766 -0.1915
  311loPI   GL2 4966  -0.143   3.119  10.684  0.1513  0.1457 -0.0116
  311loPI   C1A 4967   0.144   3.390  10.407 -0.1909 -0.0597 -0.0601
  311loPI   C2A 4968   0.188   3.514  10.033  0.2408  0.0334  0.1897
  311loPI   C3A 4969   0.088   3.445   9.615 -0.1193 -0.0477  0.0968
  311loPI   C4A 4970  -0.003   3.480   9.128 -0.0445  0.2378 -0.0163
  311loPI   C5A 4971   0.151   3.472   8.667 -0.0286 -0.4263 -0.2016
  311loPI   C6A 4972   0.562   3.144   8.522 -0.1083 -0.1241  0.0178
  311loPI   C1B 4973  -0.269   3.084  10.258 -0.0518  0.0016 -0.1579
  311loPI   C2B 4974  -0.233   3.094   9.800  0.0038  0.0805 -0.1908
  311loPI   C3B 4975  -0.293   3.116   9.358  0.2485  0.1889  0.1828
  311loPI   C4B 4976  -0.386   3.101   8.912  0.3449  0.1081 -0.0876
  312loPI    C1 4977   8.473   7.263  11.209  0.1850 -0.0501 -0.0613
  312loPI    C2 4978   8.817   7.385  11.373  0.0828  0.0093  0.1118
  312loPI    C3 4979   8.523   7.648  11.306  0.1310 -0.0096 -0.1909
  312loPI   PO4 4980   8.488   7.194  11.015 -0.0306 -0.0567  0.0926
  312loPI   GL1 4981   8.675   7.176  10.685 -0.1373 -0.1747 -0.4468
  312loPI   GL2 4982   8.750   6.835  10.612  0.1446  0.1489  0.0178
  312loPI   C1A 4983   8.576   7.193  10.216 -0.2078 -0.0222  0.2089
  312loPI   C2A 4984   8.614   7.172   9.773 -0.2728  0.1656 -0.1578
  312loPI   C3A 4985   8.571   7.090   9.396 -0.1885  0.4273  0.0898
  312loPI   C4A 4986   8.500   7.225   9.041  0.0011  0.1352  0.2296
  312loPI   C5A 4987   8.405   6.995   8.616  0.0160  0.0759 -0.0569
  312loPI   C6A 4988   8.047   6.695   8.693  0.2238  0.0901 -0.0965
  312loPI   C1B 4989   8.798   6.731  10.212 -0.0305 -0.3147  0.2825
  312loPI   C2B 4990   8.727   6.679   9.779  0.4446  0.4285 -0.4048
  312loPI   C3B 4991   8.668   6.663   9.287 -0.1696 -0.1864 -0.0741
  312loPI   C4B 4992   8.663   6.627   8.891  0.6492 -0.0328  0.2660
  313loPI    C1 4993   7.666  16.340  10.882  0.0462 -0.1754 -0.0909
  313loPI    C2 4994   7.983  16.577  10.938 -0.0930  0.0229 -0.1317
  313loPI    C3 4995   7.747  16.483  11.247 -0.2067  0.1816 -0.1689
  313loPI   PO4 4996   7.538  16.511  10.677  0.4349  0.1138 -0.0923
  313loPI   GL1 4997   7.209  16.556  10.357 -0.2595  0.2349 -0.0740
  313loPI   GL2 4998   7.397  16.383  10.210  0.0446  0.2115 -0.3312
  313loPI   C1A 4999   7.026  16.740   9.998 -0.0913  0.0272 -0.2651
  313loPI   C2A 5000   6.932  16.893   9.614  0.1678  0.0269 -0.0049
  313loPI   C3A 5001   6.645  16.931   9.235  0.3871 -0.0355  0.0671
  313loPI   C4A 5002   6.490  16.966   8.862 -0.0091  0.0507  0.0675
  313loPI   C5A 5003   6.597  17.084   8.518 -0.1269  0.0550  0.0045
  313loPI   C6A 5004   6.665  16.876   8.112 -0.0409  0.1799  0.0019
  313loPI   C1B 5005   7.341  16.431   9.814  0.2836  0.4318  0.2125
  313loPI   C2B 5006   7.265  16.572   9.505 -0.0320  0.0277  0.2654
  313loPI   C3B 5007   7.135  16.786   9.098 -0.2314 -0.0506  0.2182
  313loPI   C4B 5008   7.080  16.893   8.609  0.3254  0.0266  0.0211
  314loPI    C1 5009  15.476  15.057  10.500 -0.1289  0.0970 -0.2464
  314loPI    C2 5010  15.645  15.077  10.861  0.0355  0.0025 -0.3171
  314loPI    C3 5011  15.258  14.986  10.827  0.0301 -0.0330 -0.1674
  314loPI   PO4 5012  15.616  14.867  10.364  0.1576  0.1004 -0.1020
  314loPI   GL1 5013  15.484  14.679  10.016 -0.1616  0.1425  0.2930
  314loPI   GL2 5014  15.312  15.008   9.989  0.1895 -0.1519  0.0456
  314loPI   C1A 5015  15.719  14.588   9.578  0.1430  0.1262 -0.2389
  314loPI   C2A 5016  15.717  14.616   9.163  0.0973  0.1652 -0.0310
  314loPI   C3A 5017  15.781  14.724   8.694 -0.0319 -0.0144 -0.5454
  314loPI   C4A 5018  15.911  14.692   8.250  0.0408  0.2210 -0.0476
  314loPI   C5A 5019  16.197  14.547   8.028  0.0874  0.0538  0.0339
  314loPI   C6A 5020  16.497  14.396   8.062  0.0238  0.1881 -0.1175
  314loPI   C1B 5021  15.506  14.983   9.508 -0.0956  0.0669  0.1694
  314loPI   C2B 5022  15.516  15.144   9.097  0.2145 -0.0617 -0.3289
  314loPI   C3B 5023  15.616  15.217   8.632  0.1328 -0.0037 -0.3348
  314loPI   C4B 5024  15.578  15.150   8.232 -0.2432 -0.0219  0.0830
  315loPI    C1 5025  10.480  11.727  10.843 -0.0245 -0.1007 -0.2006
  315loPI    C2 5026  10.090  11.670  10.908  0.0349 -0.2736  0.0175
  315loPI    C3 5027  10.328  11.786  11.208  0.1481 -0.1460 -0.1200
  315loPI   PO4 5028  10.500  11.803  10.638 -0.3045 -0.0502  0.0875
  315loPI   GL1 5029  10.294  11.689  10.287 -0.0653  0.2039  0.3540
  315loPI   GL2 5030  10.506  11.771  10.147  0.3852  0.0443  0.0631
  315loPI   C1A 5031  10.199  11.354   9.899  0.0919 -0.2024 -0.1812
  315loPI   C2A 5032  10.295  11.393   9.465  0.1235  0.2530 -0.1094
  315loPI   C3A 5033  10.003  11.450   9.207  0.0137  0.2293  0.0099
  315loPI   C4A 5034   9.873  11.419   8.887 -0.0404 -0.2457 -0.0831
  315loPI   C5A 5035  10.138  11.335   8.544  0.1670 -0.1422  0.2384
  315loPI   C6A 5036  10.130  11.120   8.159  0.1424 -0.3413 -0.0720
  315loPI   C1B 5037  10.416  11.849   9.731  0.0558 -0.0308 -0.0881
  315loPI   C2B 5038  10.487  11.838   9.398  0.3603 -0.2415  0.1461
  315loPI   C3B 5039  10.279  11.831   8.984 -0.3620 -0.0385  0.2676
  315loPI   C4B 5040  10.165  11.813   8.576 -0.0746 -0.4506 -0.0489
  316loPI    C1 5041  10.285   2.771  10.978  0.1071 -0.0766  0.1331
  316loPI    C2 5042  10.512   3.094  10.910 -0.0925  0.0627  0.1187
  316loPI    C3 5043  10.527   2.909  11.265  0.0830  0.0376  0.0990
  316loPI   PO4 5044  10.376   2.632  10.831  0.1836  0.0150 -0.0666
  316loPI   GL1 5045  10.204   2.506  10.413 -0.0533 -0.1823  0.0012
  316loPI   GL2 5046  10.492   2.796  10.361  0.0190 -0.1364 -0.2871
  316loPI   C1A 5047  10.263   2.486   9.996  0.1945  0.0048  0.1114
  316loPI   C2A 5048  10.156   2.602   9.588  0.0664  0.0787  0.0797
  316loPI   C3A 5049  10.080   2.569   9.253  0.0793  0.0371  0.2225
  316loPI   C4A 5050  10.148   2.544   8.764  0.1098  0.3429 -0.2615
  316loPI   C5A 5051   9.968   2.276   8.471  0.0030  0.1989 -0.1792
  316loPI   C6A 5052   9.642   2.064   8.516 -0.1072 -0.0725 -0.0386
  316loPI   C1B 5053  10.615   2.867   9.995 -0.0671  0.3545 -0.0108
  316loPI   C2B 5054  10.579   2.963   9.555 -0.2278 -0.1697  0.1919
  316loPI   C3B 5055  10.595   2.974   9.133  0.0202 -0.0013  0.0775
  316loPI   C4B 5056  10.467   3.062   8.730  0.2385  0.1326  0.0564
  317loPI    C1 5057   6.023   8.571  10.933 -0.0097  0.1664  0.0542
  317loPI    C2 5058   5.821   8.899  10.826 -0.0433  0.1379  0.0299
  317loPI    C3 5059   5.940   8.852  11.205 -0.1299  0.1295  0.0563
  317loPI   PO4 5060   6.164   8.491  10.719 -0.0054  0.0041 -0.1051
  317loPI   GL1 5061   6.127   8.770  10.465 -0.1046 -0.1629 -0.0642
  317loPI   GL2 5062   5.896   8.633  10.329  0.0962 -0.0215 -0.3029
  317loPI   C1A 5063   6.432   8.967  10.245 -0.0294  0.1085  0.1009
  317loPI   C2A 5064   6.256   9.008   9.834 -0.2315  0.0442  0.1350
  317loPI   C3A 5065   6.385   8.799   9.423 -0.0192  0.1922 -0.0048
  317loPI   C4A 5066   6.329   8.753   8.941 -0.1430 -0.3759 -0.2317
  317loPI   C5A 5067   6.035   8.879   8.559  0.4074 -0.1902  0.1375
  317loPI   C6A 5068   5.990   9.230   8.329 -0.0301  0.2668  0.0590
  317loPI   C1B 5069   5.972   8.543   9.792  0.2804 -0.0381  0.1075
  317loPI   C2B 5070   6.017   8.320   9.328  0.2424 -0.0099 -0.1136
  317loPI   C3B 5071   5.956   8.371   8.947 -0.0867 -0.0087  0.0397
  317loPI   C4B 5072   5.757   8.418   8.566  0.0905 -0.0691 -0.1538
  318loPI    C1 5073  15.141  11.469  11.101  0.0124  0.0974 -0.0107
  318loPI    C2 5074  15.500  11.474  11.278  0.0059 -0.0698  0.0083
  318loPI    C3 5075  15.195  11.680  11.437  0.1134  0.1395 -0.0531
  318loPI   PO4 5076  15.186  11.549  10.803 -0.0390  0.0715  0.2050
  318loPI   GL1 5077  14.970  11.401  10.331 -0.0108 -0.1343 -0.2088
  318loPI   GL2 5078  14.854  11.707  10.237 -0.0847  0.1865 -0.3480
  318loPI   C1A 5079  14.939  11.478   9.797 -0.1233 -0.0113 -0.1697
  318loPI   C2A 5080  14.987  11.389   9.383 -0.0058 -0.0834  0.1702
  318loPI   C3A 5081  15.102  11.404   8.987  0.0629  0.2103 -0.1327
  318loPI   C4A 5082  15.109  11.311   8.593  0.1289  0.0602  0.1605
  318loPI   C5A 5083  14.939  10.877   8.361  0.2237  0.2099 -0.0195
  318loPI   C6A 5084  14.712  10.620   8.072  0.0421 -0.1370 -0.1730
  318loPI   C1B 5085  15.209  11.855  10.051  0.1420 -0.2226 -0.3042
  318loPI   C2B 5086  15.261  11.839   9.687  0.0765 -0.0590  0.0601
  318loPI   C3B 5087  15.360  11.846   9.267  0.1266 -0.0850  0.0328
  318loPI   C4B 5088  15.491  11.727   8.782  0.1324 -0.1155  0.1599
  319loPI    C1 5089   3.161  14.247  10.808  0.1880 -0.1595 -0.0672
  319loPI    C2 5090   3.009  14.145  11.164  0.1485  0.2117  0.0264
  319loPI    C3 5091   3.393  14.252  11.134  0.1856  0.0557 -0.0677
  319loPI   PO4 5092   3.006  14.475  10.629 -0.0640  0.1063  0.1148
  319loPI   GL1 5093   2.997  14.588  10.312  0.2629 -0.1676 -0.0463
  319loPI   GL2 5094   2.844  14.912  10.244  0.1551  0.2074 -0.0679
  319loPI   C1A 5095   3.224  14.677   9.961  0.1932 -0.2655  0.0894
  319loPI   C2A 5096   3.194  14.666   9.558  0.0395 -0.3515  0.0127
  319loPI   C3A 5097   3.047  14.549   9.142 -0.2731 -0.1215 -0.2308
  319loPI   C4A 5098   3.011  14.637   8.736  0.5609  0.3699 -0.1133
  319loPI   C5A 5099   2.851  14.565   8.349 -0.0081  0.0413 -0.0391
  319loPI   C6A 5100   2.760  14.242   8.044 -0.2093 -0.0346  0.0402
  319loPI   C1B 5101   2.936  15.136   9.932 -0.1761  0.2343  0.1760
  319loPI   C2B 5102   2.941  15.123   9.396  0.1395  0.0231  0.1347
  319loPI   C3B 5103   2.970  15.182   8.842 -0.0327  0.2825 -0.1973
  319loPI   C4B 5104   2.968  15.019   8.408 -0.0455  0.1158  0.1295
  320loPI    C1 5105   4.128   6.447  11.297 -0.0933 -0.1237 -0.1143
  320loPI    C2 5106   4.021   6.134  11.522 -0.0037 -0.1702 -0.1359
  320loPI    C3 5107   4.403   6.251  11.511 -0.0533  0.0032 -0.0487
  320loPI   PO4 5108   4.107   6.438  11.099 -0.1678  0.0421  0.0736
  320loPI   GL1 5109   4.230   6.361  10.768 -0.1473 -0.0444  0.2933
  320loPI   GL2 5110   4.146   6.635  10.631  0.0798 -0.1290 -0.4446
  320loPI   C1A 5111   4.163   6.180  10.453 -0.0706  0.2664 -0.2447
  320loPI   C2A 5112   4.195   6.164   9.959  0.3207  0.1887  0.2056
  320loPI   C3A 5113   4.196   6.143   9.578  0.1977  0.1112  0.0295
  320loPI   C4A 5114   4.235   6.067   9.138  0.1636 -0.1430  0.3673
  320loPI   C5A 5115   4.304   6.111   8.734 -0.1924 -0.0630 -0.0365
  320loPI   C6A 5116   4.212   5.848   8.430 -0.0316 -0.4706 -0.2254
  320loPI   C1B 5117   4.151   6.625  10.159  0.0865 -0.2936  0.0489
  320loPI   C2B 5118   4.077   6.592   9.659 -0.1189 -0.0061  0.0734
  320loPI   C3B 5119   4.012   6.560   9.223 -0.1694  0.1004 -0.2166
  320loPI   C4B 5120   4.143   6.591   8.776  0.1737 -0.0392  0.0428
  321loPI    C1 5121  16.026   2.600  11.280  0.0374 -0.0975 -0.1495
  321loPI    C2 5122  16.239   2.808  11.547 -0.1097  0.0000 -0.1069
  321loPI    C3 5123  16.212   2.410  11.579 -0.0554  0.0026 -0.0272
  321loPI   PO4 5124  16.056   2.694  11.087  0.1401 -0.3348  0.3322
  321loPI   GL1 5125  16.060   2.333  10.735 -0.2250  0.3340 -0.2401
  321loPI   GL2 5126  16.334   2.634  10.673  0.2335 -0.0534  0.1615
  321loPI   C1A 5127  15.952   2.159  10.373  0.0722  0.0523 -0.0328
  321loPI   C2A 5128  15.921   2.216   9.996 -0.1368 -0.2021  0.1625
  321loPI   C3A 5129  15.804   2.152   9.639  0.2392  0.1688  0.3827
  321loPI   C4A 5130  15.745   2.074   9.322  0.1162  0.0366 -0.0275
  321loPI   C5A 5131  15.749   2.056   8.934 -0.0005  0.1555  0.1504
  321loPI   C6A 5132  15.856   1.741   8.692 -0.0122  0.2315 -0.2831
  321loPI   C1B 5133  16.352   2.463  10.238  0.0592 -0.1204 -0.2226
  321loPI   C2B 5134  16.258   2.562   9.861 -0.3445 -0.3600  0.0582
  321loPI   C3B 5135  16.086   2.488   9.394  0.0009 -0.2818  0.2651
  321loPI   C4B 5136  16.159   2.559   8.908  0.1998 -0.2277  0.1365
  322loPI    C1 5137  15.222   6.777  11.572  0.0884  0.1994 -0.0615
  322loPI    C2 5138  15.083   6.558  11.877 -0.1723  0.1866 -0.1868
  322loPI    C3 5139  15.236   6.922  11.945 -0.0193  0.0916 -0.0149
  322loPI   PO4 5140  15.036   6.702  11.418  0.0950 -0.1305  0.0893
  322loPI   GL1 5141  15.038   6.698  10.927 -0.2377  0.0669  0.0272
  322loPI   GL2 5142  15.229   6.558  10.678 -0.0773  0.2021  0.0457
  322loPI   C1A 5143  14.783   6.849  10.509 -0.2519 -0.2440 -0.0584
  322loPI   C2A 5144  14.759   6.813   9.991  0.2356  0.0290 -0.0431
  322loPI   C3A 5145  14.790   6.719   9.543  0.1532 -0.0693  0.2369
  322loPI   C4A 5146  14.705   6.854   9.150  0.1453  0.2823 -0.0065
  322loPI   C5A 5147  14.929   6.875   8.673  0.3951 -0.0728  0.1382
  322loPI   C6A 5148  15.060   7.217   8.401  0.2613 -0.0719 -0.2016
  322loPI   C1B 5149  15.341   6.624  10.242 -0.0157  0.0558  0.0077
  322loPI   C2B 5150  15.301   6.638   9.885  0.1059  0.0084 -0.0076
  322loPI   C3B 5151  15.248   6.622   9.431  0.0445 -0.2631  0.3764
  322loPI   C4B 5152  15.297   6.737   8.997  0.2189  0.0014  0.0383
  323loPI    C1 5153  11.088   9.532  10.963  0.3109 -0.1705 -0.1847
  323loPI    C2 5154  11.102   9.796  11.263 -0.0013 -0.0899 -0.2383
  323loPI    C3 5155  10.990   9.419  11.335 -0.2373 -0.0292 -0.2776
  323loPI   PO4 5156  10.874   9.628  10.743 -0.2250 -0.0083  0.0368
  323loPI   GL1 5157  10.896   9.510  10.294  0.1416 -0.0566  0.2138
  323loPI   GL2 5158  10.748   9.796  10.240 -0.0827 -0.0136 -0.0963
  323loPI   C1A 5159  11.022   9.394   9.907  0.0846  0.2428 -0.1496
  323loPI   C2A 5160  10.968   9.237   9.477  0.1007 -0.2064 -0.0512
  323loPI   C3A 5161  10.912   9.327   9.024 -0.0737  0.1319 -0.2226
  323loPI   C4A 5162  10.877   9.275   8.598  0.5392 -0.1476 -0.0490
  323loPI   C5A 5163  10.790   9.442   8.293  0.1222 -0.0562  0.1154
  323loPI   C6A 5164  10.814   9.831   8.044 -0.2571 -0.4214  0.1858
  323loPI   C1B 5165  10.799   9.988   9.843  0.0223  0.0100 -0.2918
  323loPI   C2B 5166  10.850   9.945   9.456 -0.0910  0.2065  0.1441
  323loPI   C3B 5167  10.769   9.909   9.080 -0.1299 -0.1764  0.1936
  323loPI   C4B 5168  10.758   9.803   8.586  0.0032  0.3159 -0.1890
  324loPI    C1 5169   9.404   2.910  11.718 -0.1799  0.2428  0.1328
  324loPI    C2 5170   9.727   2.739  11.880 -0.0110  0.3046 -0.1331
  324loPI    C3 5171   9.586   3.083  12.029 -0.1245  0.1339  0.1613
  324loPI   PO4 5172   9.539   2.925  11.451 -0.0457  0.4109  0.0565
  324loPI   GL1 5173   9.394   3.009  11.046  0.1107 -0.1128 -0.1884
  324loPI   GL2 5174   9.170   3.344  10.998  0.1172  0.0740  0.1996
  324loPI   C1A 5175   9.447   3.082  10.626  0.0146 -0.2707  0.0886
  324loPI   C2A 5176   9.560   3.156  10.248  0.2761  0.2676 -0.2655
  324loPI   C3A 5177   9.648   3.087   9.867 -0.0440  0.1219 -0.0214
  324loPI   C4A 5178   9.537   3.147   9.431 -0.0908  0.0112 -0.0155
  324loPI   C5A 5179   9.474   3.151   9.001 -0.1026 -0.2840  0.2668
  324loPI   C6A 5180   9.665   3.172   8.551  0.3043 -0.1880  0.1999
  324loPI   C1B 5181   9.335   3.562  10.618 -0.2893  0.1483  0.0505
  324loPI   C2B 5182   9.461   3.668  10.195  0.2302 -0.2010 -0.2581
  324loPI   C3B 5183   9.536   3.631   9.718 -0.3127 -0.0993  0.0061
  324loPI   C4B 5184   9.408   3.591   9.265 -0.0636 -0.0369 -0.0691
  325loPI    C1 5185   1.780   2.030  11.476  0.1457  0.0766 -0.0232
  325loPI    C2 5186   1.610   2.391  11.444  0.1685  0.0741 -0.1800
  325loPI    C3 5187   1.430   2.103  11.656  0.1820  0.1963 -0.0004
  325loPI   PO4 5188   1.732   1.967  11.196 -0.0530 -0.1914  0.2568
  325loPI   GL1 5189   1.956   2.052  10.855  0.0827 -0.2078  0.0094
  325loPI   GL2 5190   2.239   2.260  10.782 -0.2772 -0.2105  0.3240
  325loPI   C1A 5191   1.829   2.019  10.427  0.1709 -0.3611  0.0248
  325loPI   C2A 5192   1.813   2.005   9.950  0.0420 -0.0860 -0.2018
  325loPI   C3A 5193   1.740   1.939   9.576 -0.2032 -0.0556  0.1854
  325loPI   C4A 5194   1.689   1.896   9.124 -0.4129 -0.0953  0.0412
  325loPI   C5A 5195   1.799   1.860   8.653  0.1373  0.1333  0.2413
  325loPI   C6A 5196   2.163   1.725   8.381  0.0121  0.0165  0.0340
  325loPI   C1B 5197   2.230   2.354  10.354 -0.0456  0.3318 -0.1884
  325loPI   C2B 5198   2.206   2.329   9.853  0.1365  0.4258 -0.1709
  325loPI   C3B 5199   2.130   2.307   9.451 -0.2489  0.3396 -0.1141
  325loPI   C4B 5200   2.087   2.157   9.085  0.2339  0.0419 -0.0773
  326loPI    C1 5201  15.175  17.354  10.855  0.2144  0.2038 -0.1150
  326loPI    C2 5202  15.547  17.405  10.995  0.0950  0.1059  0.2488
  326loPI    C3 5203  15.269  17.228  11.223 -0.1228 -0.0093 -0.0973
  326loPI   PO4 5204  15.139  17.539  10.679 -0.1522 -0.0679 -0.1325
  326loPI   GL1 5205  14.999  17.758  10.333 -0.1745 -0.1016 -0.2196
  326loPI   GL2 5206  15.331  17.763  10.200 -0.0981  0.0912  0.1537
  326loPI   C1A 5207  14.842  17.827   9.931  0.1691  0.2085  0.0637
  326loPI   C2A 5208  14.924  17.859   9.490  0.0699 -0.1170  0.2480
  326loPI   C3A 5209  14.881  17.886   9.046  0.0879  0.0287 -0.1268
  326loPI   C4A 5210  14.984  17.888   8.580 -0.0167 -0.3240  0.2602
  326loPI   C5A 5211  15.238  17.697   8.268 -0.0143 -0.4615 -0.2098
  326loPI   C6A 5212  15.531  17.594   8.177  0.0176 -0.0255 -0.0352
  326loPI   C1B 5213  15.323  17.663   9.815 -0.2553  0.0217  0.5291
  326loPI   C2B 5214  15.367  17.716   9.421 -0.1865 -0.2322 -0.1773
  326loPI   C3B 5215  15.474  17.881   8.979  0.1159  0.0028 -0.3634
  326loPI   C4B 5216  15.543  18.025   8.511 -0.0789 -0.0841 -0.0567
  327loPI    C1 5217  16.322   9.128  11.099  0.0884 -0.0023 -0.3672
  327loPI    C2 5218  16.721   9.129  11.130  0.0541  0.0674  0.1679
  327loPI    C3 5219  16.516   9.472  11.161 -0.0575  0.0158  0.0167
  327loPI   PO4 5220  16.303   8.891  10.987 -0.1877  0.0131  0.0051
  327loPI   GL1 5221  16.380   8.824  10.593  0.0236  0.0129  0.2155
  327loPI   GL2 5222  16.184   8.720  10.455 -0.2184 -0.0169  0.0066
  327loPI   C1A 5223  16.697   8.706  10.219  0.2417 -0.1523  0.0286
  327loPI   C2A 5224  16.632   8.545   9.857  0.1474 -0.1375  0.0896
  327loPI   C3A 5225  16.730   8.525   9.446  0.0233 -0.3200  0.0923
  327loPI   C4A 5226  16.612   8.567   9.069  0.0656 -0.4419  0.3042
  327loPI   C5A 5227  16.591   8.655   8.648 -0.2617  0.0974  0.1776
  327loPI   C6A 5228  16.505   8.598   8.171 -0.1568  0.0109 -0.2894
  327loPI   C1B 5229  16.174   8.752  10.101  0.0498  0.1064  0.2605
  327loPI   C2B 5230  16.217   8.731   9.617  0.3913 -0.2218  0.0572
  327loPI   C3B 5231  16.156   8.732   9.156 -0.1866 -0.3494 -0.0559
  327loPI   C4B 5232  16.139   8.825   8.768  0.1818  0.0715 -0.1085
  328loPI    C1 5233   8.291   5.250  11.355  0.0400 -0.2483 -0.1372
  328loPI    C2 5234   8.153   4.947  11.577 -0.2184 -0.1188 -0.1166
  328loPI    C3 5235   7.924   5.268  11.513  0.1624  0.2089  0.1140
  328loPI   PO4 5236   8.458   5.129  11.233 -0.0033  0.0522  0.2434
  328loPI   GL1 5237   8.776   5.255  10.898 -0.1012  0.0747  0.2823
  328loPI   GL2 5238   9.015   5.072  10.939  0.2475 -0.0342  0.1584
  328loPI   C1A 5239   8.550   5.210  10.452 -0.3407  0.1188 -0.1587
  328loPI   C2A 5240   8.573   5.341   9.999  0.1919 -0.0070 -0.2258
  328loPI   C3A 5241   8.546   5.325   9.577  0.1607  0.0810  0.2605
  328loPI   C4A 5242   8.505   5.232   9.131  0.1499  0.0588 -0.0673
  328loPI   C5A 5243   8.186   4.983   8.797 -0.4420 -0.0067 -0.0074
  328loPI   C6A 5244   7.821   4.776   8.630 -0.1666  0.1185 -0.1822
  328loPI   C1B 5245   8.990   5.124  10.448  0.0331 -0.0460 -0.0875
  328loPI   C2B 5246   9.026   5.180  10.047  0.2761 -0.0720  0.3709
  328loPI   C3B 5247   9.091   5.122   9.547 -0.2264 -0.2286  0.2728
  328loPI   C4B 5248   9.091   5.082   9.010 -0.1436 -0.2062  0.0195
  329loPI    C1 5249  11.965   1.565  11.063 -0.1736  0.2029  0.1063
  329loPI    C2 5250  11.953   1.759  11.413 -0.1139  0.1303  0.1488
  329loPI    C3 5251  11.937   1.359  11.405 -0.0654  0.1297  0.0715
  329loPI   PO4 5252  12.134   1.735  10.925  0.0574 -0.3663 -0.1744
  329loPI   GL1 5253  12.199   1.647  10.581 -0.1782  0.2168  0.1924
  329loPI   GL2 5254  11.954   1.432  10.536 -0.0170  0.0787 -0.1853
  329loPI   C1A 5255  12.592   1.724  10.412 -0.0093 -0.0345  0.0590
  329loPI   C2A 5256  12.618   1.611  10.002 -0.0774 -0.0765 -0.1914
  329loPI   C3A 5257  12.795   1.661   9.569  0.0302  0.1130  0.0342
  329loPI   C4A 5258  12.706   1.842   9.045  0.0105  0.0079 -0.4268
  329loPI   C5A 5259  12.629   1.915   8.643 -0.0234  0.2128 -0.0410
  329loPI   C6A 5260  12.661   2.033   8.250  0.1049  0.2281  0.0596
  329loPI   C1B 5261  12.213   1.342  10.104 -0.3124  0.0757 -0.2363
  329loPI   C2B 5262  12.343   1.373   9.647 -0.1309  0.1480 -0.3143
  329loPI   C3B 5263  12.337   1.468   9.200  0.2454  0.0968  0.2580
  329loPI   C4B 5264  12.396   1.469   8.822  0.1163 -0.4291  0.3915
  330loPI    C1 5265  12.410   8.050  11.322 -0.2261  0.0185 -0.1597
  330loPI    C2 5266  12.436   7.686  11.485 -0.1474  0.0923 -0.0049
  330loPI    C3 5267  12.722   7.956  11.555 -0.0757  0.1025 -0.3247
  330loPI   PO4 5268  12.371   7.966  11.050 -0.1719 -0.0388  0.0593
  330loPI   GL1 5269  12.392   7.898  10.651 -0.1715  0.1885  0.1059
  330loPI   GL2 5270  12.341   7.545  10.632  0.4713 -0.2930 -0.1952
  330loPI   C1A 5271  12.723   7.878  10.290 -0.1593 -0.0021 -0.1053
  330loPI   C2A 5272  12.736   7.820   9.780 -0.4312  0.0406  0.2759
  330loPI   C3A 5273  12.563   7.830   9.400 -0.2846 -0.1786 -0.2492
  330loPI   C4A 5274  12.532   7.767   8.940 -0.3974  0.0285 -0.1390
  330loPI   C5A 5275  12.207   7.902   8.646  0.2508 -0.2104  0.1989
  330loPI   C6A 5276  12.025   7.606   8.416 -0.0621 -0.1118 -0.0419
  330loPI   C1B 5277  12.348   7.425  10.131 -0.0269 -0.2629  0.0166
  330loPI   C2B 5278  12.271   7.472   9.751 -0.0819 -0.0830  0.0969
  330loPI   C3B 5279  12.264   7.476   9.293 -0.0358  0.3588  0.0768
  330loPI   C4B 5280  12.174   7.435   8.870 -0.0098  0.0241 -0.0224
  331loPI    C1 5281  14.706  10.507  11.014 -0.2276  0.2383 -0.0966
  331loPI    C2 5282  14.898  10.670  11.324 -0.2274  0.2183 -0.0862
  331loPI    C3 5283  14.499  10.683  11.307 -0.2541 -0.1624  0.1330
  331loPI   PO4 5284  14.799  10.636  10.796 -0.1473 -0.1854 -0.1857
  331loPI   GL1 5285  14.590  10.809  10.471  0.1070 -0.2318  0.1137
  331loPI   GL2 5286  14.542  11.131  10.473 -0.0796 -0.2173  0.1929
  331loPI   C1A 5287  14.726  10.547  10.033  0.3746  0.0030  0.2171
  331loPI   C2A 5288  14.715  10.607   9.669  0.1919 -0.0406  0.0657
  331loPI   C3A 5289  14.824  10.538   9.267 -0.1205 -0.4008  0.0615
  331loPI   C4A 5290  14.812  10.517   8.854  0.4780 -0.0858 -0.1532
  331loPI   C5A 5291  14.593  10.392   8.492 -0.0811  0.0275  0.1306
  331loPI   C6A 5292  14.280  10.294   8.146  0.1254 -0.2983 -0.2573
  331loPI   C1B 5293  14.622  11.135  10.024  0.1098 -0.1640  0.3977
  331loPI   C2B 5294  14.628  11.060   9.551  0.1552  0.1588  0.0691
  331loPI   C3B 5295  14.684  11.082   9.169  0.1195 -0.2064 -0.1470
  331loPI   C4B 5296  14.659  11.019   8.776 -0.1114  0.0729  0.0004
  332loPI    C1 5297  10.754   1.176  10.491  0.0912  0.3862  0.0612
  332loPI    C2 5298  10.740   1.108  10.885 -0.0749 -0.1886 -0.0352
  332loPI    C3 5299  10.403   1.184  10.683 -0.0646 -0.4311 -0.1483
  332loPI   PO4 5300  10.930   1.398  10.463 -0.0916 -0.3231  0.2556
  332loPI   GL1 5301  10.944   1.746  10.147 -0.1583  0.0669  0.0407
  332loPI   GL2 5302  11.196   1.609  10.085 -0.0314 -0.1885 -0.1891
  332loPI   C1A 5303  10.870   1.933   9.762  0.5180  0.3135 -0.0001
  332loPI   C2A 5304  10.731   1.927   9.366 -0.1389  0.1741 -0.2676
  332loPI   C3A 5305  10.828   1.913   8.975  0.0630  0.2234  0.0222
  332loPI   C4A 5306  10.900   2.043   8.609  0.0749 -0.0418  0.1938
  332loPI   C5A 5307  10.572   2.020   8.408  0.1178  0.0751 -0.0982
  332loPI   C6A 5308  10.329   2.291   8.107  0.2395  0.0150 -0.2936
  332loPI   C1B 5309  11.255   1.626   9.665  0.1586 -0.2191 -0.1265
  332loPI   C2B 5310  11.312   1.694   9.189  0.0945  0.0748  0.0430
  332loPI   C3B 5311  11.517   1.784   8.758 -0.1857  0.0768 -0.0160
  332loPI   C4B 5312  11.697   1.748   8.317  0.1368 -0.3143  0.1417
  333loPI    C1 5313   5.484   1.396  11.416  0.0122  0.1696  0.0415
  333loPI    C2 5314   5.163   1.168  11.485  0.1236 -0.0635 -0.1937
  333loPI    C3 5315   5.264   1.454  11.745 -0.1350 -0.1470  0.0030
  333loPI   PO4 5316   5.450   1.398  11.143 -0.1576 -0.0475  0.0175
  333loPI   GL1 5317   5.656   1.433  10.773  0.0347 -0.1005 -0.1325
  333loPI   GL2 5318   5.554   1.783  10.780 -0.1642  0.1753  0.1932
  333loPI   C1A 5319   5.728   1.386  10.366 -0.0014 -0.0326 -0.1513
  333loPI   C2A 5320   5.726   1.303   9.880  0.0381 -0.0483 -0.0888
  333loPI   C3A 5321   5.690   1.357   9.442  0.0130 -0.0835 -0.2186
  333loPI   C4A 5322   5.740   1.444   9.058  0.0136 -0.1098 -0.0998
  333loPI   C5A 5323   5.703   1.734   8.687  0.1069  0.1429  0.1814
  333loPI   C6A 5324   6.001   1.920   8.346  0.1110 -0.0440  0.1197
  333loPI   C1B 5325   5.621   1.900  10.385 -0.1346 -0.1066 -0.1546
  333loPI   C2B 5326   5.583   1.808  10.008 -0.0679 -0.1918  0.1148
  333loPI   C3B 5327   5.569   1.885   9.577 -0.6184 -0.2794  0.1541
  333loPI   C4B 5328   5.606   1.915   9.161 -0.0627  0.1008 -0.1514
  334loPI    C1 5329  16.169   1.936  11.303 -0.0731  0.1202 -0.1314
  334loPI    C2 5330  15.815   2.099  11.394  0.0008  0.0837  0.2363
  334loPI    C3 5331  15.865   1.702  11.416  0.0769  0.0926  0.2295
  334loPI   PO4 5332  16.369   2.166  11.080  0.1616 -0.1021 -0.1200
  334loPI   GL1 5333  16.726   2.262  10.942 -0.2290  0.0768 -0.1705
  334loPI   GL2 5334  16.890   1.959  10.825  0.0806 -0.1687 -0.5091
  334loPI   C1A 5335  16.772   2.363  10.518  0.1703 -0.1765  0.2404
  334loPI   C2A 5336  16.767   2.360  10.086  0.1331  0.3629  0.1494
  334loPI   C3A 5337  16.716   2.467   9.675 -0.0492  0.0824  0.0836
  334loPI   C4A 5338  16.613   2.446   9.277  0.2401  0.1342 -0.3248
  334loPI   C5A 5339  16.603   2.413   8.788  0.1168 -0.0835  0.0687
  334loPI   C6A 5340  16.420   2.415   8.383  0.1037 -0.1812 -0.0404
  334loPI   C1B 5341  16.850   1.925  10.320 -0.0991  0.0051  0.2704
  334loPI   C2B 5342  16.798   1.833   9.841  0.0466 -0.2963  0.0752
  334loPI   C3B 5343  16.794   1.896   9.514  0.0941  0.0602  0.0028
  334loPI   C4B 5344  16.755   1.842   9.070 -0.2102 -0.2079  0.0481
  335loPI    C1 5345   9.845  12.565  10.474  0.0212  0.0688 -0.0070
  335loPI    C2 5346   9.503  12.748  10.571  0.0893  0.1689  0.0457
  335loPI    C3 5347   9.712  12.553  10.851  0.1279  0.1956  0.0355
  335loPI   PO4 5348   9.869  12.692  10.285 -0.2909  0.1185 -0.0289
  335loPI   GL1 5349  10.093  12.627   9.829  0.2736 -0.0725 -0.1350
  335loPI   GL2 5350   9.722  12.649   9.788 -0.0938 -0.1683  0.1757
  335loPI   C1A 5351  10.059  12.765   9.396 -0.1306 -0.1409 -0.1632
  335loPI   C2A 5352   9.854  12.786   9.064  0.0223  0.1083  0.3107
  335loPI   C3A 5353   9.863  12.720   8.661  0.0843 -0.1520  0.1669
  335loPI   C4A 5354   9.705  12.678   8.233  0.0580  0.1222  0.1897
  335loPI   C5A 5355   9.566  13.017   7.988  0.4807 -0.1642 -0.1078
  335loPI   C6A 5356   9.623  13.395   7.805  0.4637 -0.1369 -0.1167
  335loPI   C1B 5357   9.731  12.397   9.398  0.0206 -0.1395 -0.4450
  335loPI   C2B 5358   9.530  12.380   9.006 -0.0689 -0.2153  0.0967
  335loPI   C3B 5359   9.555  12.298   8.584  0.0725  0.1614  0.1598
  335loPI   C4B 5360   9.307  12.095   8.194 -0.2294  0.0636 -0.2611
  336loPI    C1 5361  13.717  12.205  10.707 -0.0315 -0.0720  0.0158
  336loPI    C2 5362  13.721  12.124  11.099  0.2016 -0.0476  0.0197
  336loPI    C3 5363  13.682  12.502  10.972  0.0947 -0.0587  0.0182
  336loPI   PO4 5364  13.533  11.980  10.640 -0.1699 -0.1175 -0.0552
  336loPI   GL1 5365  13.760  11.698  10.359  0.2076 -0.1261 -0.4117
  336loPI   GL2 5366  13.730  11.464  10.377  0.0609  0.1516 -0.0249
  336loPI   C1A 5367  13.986  11.834   9.967 -0.1021  0.0314 -0.1845
  336loPI   C2A 5368  13.957  11.828   9.612  0.0813  0.1510  0.0451
  336loPI   C3A 5369  14.085  11.688   9.197  0.1328  0.1207  0.2505
  336loPI   C4A 5370  13.972  11.598   8.785 -0.0140 -0.0593  0.2628
  336loPI   C5A 5371  13.919  11.595   8.425  0.1418  0.3095 -0.1891
  336loPI   C6A 5372  13.953  11.239   8.103 -0.0220  0.1246  0.0710
  336loPI   C1B 5373  13.730  11.425   9.928 -0.1338 -0.0926  0.1859
  336loPI   C2B 5374  13.736  11.359   9.470  0.3660 -0.0803  0.1957
  336loPI   C3B 5375  13.722  11.291   9.128 -0.4082  0.0534 -0.1500
  336loPI   C4B 5376  13.457  11.334   8.770 -0.1632 -0.0685 -0.0471
  337loPI    C1 5377   0.381   4.811  11.544  0.0580  0.2242 -0.0612
  337loPI    C2 5378   0.020   4.641  11.571  0.0112  0.3300 -0.0152
  337loPI    C3 5379   0.148   4.885  11.861  0.1688  0.1992  0.0266
  337loPI   PO4 5380   0.389   4.876  11.306 -0.1383 -0.2381 -0.0473
  337loPI   GL1 5381   0.327   4.823  10.874 -0.2935  0.1608 -0.0271
  337loPI   GL2 5382   0.428   4.972  10.498 -0.0498 -0.0810  0.0235
  337loPI   C1A 5383   0.199   4.573  10.641 -0.0767  0.1172 -0.2781
  337loPI   C2A 5384  -0.048   4.464  10.173  0.2473  0.2297 -0.1228
  337loPI   C3A 5385  -0.053   4.515   9.701 -0.0191  0.1708  0.3221
  337loPI   C4A 5386  -0.164   4.516   9.369  0.0389  0.0836  0.1586
  337loPI   C5A 5387  -0.255   4.383   8.892  0.0813  0.0936  0.1180
  337loPI   C6A 5388  -0.518   4.000   8.763 -0.0942  0.0850  0.2590
  337loPI   C1B 5389   0.326   4.861  10.084  0.3712  0.0091  0.1436
  337loPI   C2B 5390   0.310   4.897   9.631 -0.1923 -0.0168  0.1811
  337loPI   C3B 5391   0.204   4.858   9.241  0.1120 -0.4007  0.1122
  337loPI   C4B 5392   0.002   4.791   8.877 -0.1683 -0.3084  0.2003
  338loPI    C1 5393   1.966   4.515  11.079  0.1916 -0.0170 -0.0583
  338loPI    C2 5394   2.097   4.666  11.425  0.1705  0.1515 -0.1230
  338loPI    C3 5395   1.716   4.548  11.390  0.1538  0.2017 -0.1105
  338loPI   PO4 5396   1.982   4.742  10.878  0.1775 -0.3812 -0.1201
  338loPI   GL1 5397   2.177   4.893  10.654 -0.0169 -0.0667 -0.2366
  338loPI   GL2 5398   2.457   4.996  10.614  0.1396 -0.1787 -0.1472
  338loPI   C1A 5399   2.101   4.802  10.256  0.2558  0.2211 -0.1209
  338loPI   C2A 5400   2.065   4.792   9.769 -0.0620  0.2190 -0.2604
  338loPI   C3A 5401   2.118   4.696   9.400 -0.1196 -0.0950  0.2261
  338loPI   C4A 5402   1.972   4.609   9.017  0.1220  0.0158 -0.1630
  338loPI   C5A 5403   1.785   4.515   8.668  0.0781 -0.0958  0.1985
  338loPI   C6A 5404   1.585   4.724   8.386 -0.3084  0.1002  0.2390
  338loPI   C1B 5405   2.500   5.145  10.212  0.0423 -0.2264 -0.2304
  338loPI   C2B 5406   2.485   5.114   9.847 -0.0825  0.0787  0.4917
  338loPI   C3B 5407   2.474   5.144   9.392  0.1747  0.1181  0.1325
  338loPI   C4B 5408   2.411   4.956   8.978  0.0760 -0.2103 -0.1319
  339loPI    C1 5409  15.447  11.090  10.891  0.0375 -0.0145  0.0047
  339loPI    C2 5410  15.278  10.729  10.922  0.3017 -0.1234  0.2153
  339loPI    C3 5411  15.351  10.945  11.251  0.1659  0.1142  0.0922
  339loPI   PO4 5412  15.404  11.138  10.659  0.1104 -0.0941 -0.0068
  339loPI   GL1 5413  15.109  10.904  10.376 -0.1837 -0.1260  0.1016
  339loPI   GL2 5414  15.125  10.600  10.422 -0.1533 -0.0769 -0.2934
  339loPI   C1A 5415  15.068  10.986   9.971  0.0242 -0.3027 -0.2216
  339loPI   C2A 5416  15.097  10.940   9.608  0.0953  0.1514 -0.1134
  339loPI   C3A 5417  15.140  10.893   9.253  0.1308 -0.0840  0.2038
  339loPI   C4A 5418  15.246  10.892   8.816 -0.1539  0.0052 -0.1672
  339loPI   C5A 5419  15.397  10.903   8.518 -0.1303  0.1439  0.0911
  339loPI   C6A 5420  15.498  10.790   8.036 -0.1800 -0.1667 -0.2048
  339loPI   C1B 5421  15.212  10.470   9.955 -0.0552 -0.0264 -0.5417
  339loPI   C2B 5422  15.288  10.421   9.469  0.1406 -0.0526  0.3720
  339loPI   C3B 5423  15.279  10.420   8.930  0.0236  0.1017 -0.4273
  339loPI   C4B 5424  15.201  10.397   8.456  0.1878 -0.0253 -0.1666
  340loPI    C1 5425  12.724   9.552  11.053 -0.1141 -0.1714 -0.0155
  340loPI    C2 5426  12.474   9.854  11.130 -0.1308 -0.1929  0.0143
  340loPI    C3 5427  12.778   9.777  11.379 -0.1342 -0.2087  0.0135
  340loPI   PO4 5428  12.839   9.548  10.803  0.1056 -0.0382  0.2872
  340loPI   GL1 5429  12.728   9.372  10.410  0.0580 -0.1307 -0.2532
  340loPI   GL2 5430  12.466   9.290  10.212 -0.0496 -0.0171 -0.0954
  340loPI   C1A 5431  12.882   9.296   9.976  0.1307 -0.0582  0.1773
  340loPI   C2A 5432  12.861   9.125   9.586 -0.1300  0.1491  0.0207
  340loPI   C3A 5433  12.831   9.162   9.184 -0.0698  0.2953  0.0494
  340loPI   C4A 5434  12.669   9.210   8.803  0.1397  0.2981  0.0240
  340loPI   C5A 5435  12.668   9.373   8.381  0.1864  0.4346  0.3562
  340loPI   C6A 5436  12.935   9.276   8.029  0.0861  0.0030 -0.1488
  340loPI   C1B 5437  12.389   9.270   9.682 -0.0344 -0.1947 -0.0691
  340loPI   C2B 5438  12.370   9.257   9.210 -0.0917  0.1708 -0.2804
  340loPI   C3B 5439  12.176   9.288   8.819  0.2083 -0.1637 -0.0636
  340loPI   C4B 5440  12.158   9.313   8.350 -0.0584 -0.2288 -0.0021
  341loPI    C1 5441   7.279  12.571  10.626  0.1014 -0.1486  0.1002
  341loPI    C2 5442   7.535  12.878  10.645  0.0329 -0.0591 -0.3288
  341loPI    C3 5443   7.600  12.550  10.865  0.1388  0.2345  0.0898
  341loPI   PO4 5444   7.310  12.535  10.377  0.0639 -0.0575 -0.2737
  341loPI   GL1 5445   7.289  12.791   9.929 -0.3639 -0.0222  0.3784
  341loPI   GL2 5446   7.468  12.548   9.920  0.2889  0.2942 -0.0104
  341loPI   C1A 5447   7.379  12.976   9.580 -0.1722 -0.0306  0.2058
  341loPI   C2A 5448   7.342  12.925   9.120  0.4072 -0.1756  0.0215
  341loPI   C3A 5449   7.388  13.013   8.699  0.1484 -0.0039 -0.1591
  341loPI   C4A 5450   7.488  13.102   8.287  0.1549 -0.1269 -0.0110
  341loPI   C5A 5451   7.339  13.511   8.131  0.0525  0.1630  0.0305
  341loPI   C6A 5452   7.349  13.770   7.730 -0.0837 -0.4579 -0.1098
  341loPI   C1B 5453   7.494  12.497   9.490  0.1376 -0.0394 -0.1668
  341loPI   C2B 5454   7.488  12.404   9.016 -0.0920  0.0468 -0.1553
  341loPI   C3B 5455   7.328  12.431   8.596 -0.2926 -0.1559  0.4689
  341loPI   C4B 5456   7.314  12.601   8.172  0.2208 -0.2313 -0.1935
  342loPI    C1 5457  14.760  13.335  10.708 -0.0004  0.0058 -0.0141
  342loPI    C2 5458  14.729  13.364  11.106 -0.1543 -0.0742 -0.0198
  342loPI    C3 5459  14.675  13.687  10.877  0.0828  0.0042  0.0319
  342loPI   PO4 5460  14.967  13.231  10.672 -0.2197  0.0162  0.1104
  342loPI   GL1 5461  15.142  12.842  10.558  0.0151 -0.0759  0.0821
  342loPI   GL2 5462  14.928  12.896  10.220 -0.0175 -0.1146 -0.1756
  342loPI   C1A 5463  15.408  12.894  10.190 -0.0363  0.3122 -0.0711
  342loPI   C2A 5464  15.554  12.818   9.727 -0.1274 -0.2312  0.1231
  342loPI   C3A 5465  15.586  12.729   9.249 -0.0669  0.0362  0.0736
  342loPI   C4A 5466  15.711  12.662   8.822  0.2716  0.0311 -0.2818
  342loPI   C5A 5467  15.738  12.417   8.434 -0.4106 -0.2965 -0.1908
  342loPI   C6A 5468  15.704  11.995   8.282  0.0572  0.0697  0.0375
  342loPI   C1B 5469  15.063  12.914   9.739 -0.0860 -0.0667  0.0365
  342loPI   C2B 5470  15.121  12.889   9.361  0.1865 -0.0100  0.0539
  342loPI   C3B 5471  15.179  12.704   8.920 -0.1576  0.1329 -0.0587
  342loPI   C4B 5472  15.257  12.473   8.463 -0.0056  0.0087 -0.0281
  343loPI    C1 5473   3.143  15.414  11.172  0.0881 -0.1184  0.0257
  343loPI    C2 5474   2.837  15.158  11.146 -0.0320  0.0233  0.0316
  343loPI    C3 5475   2.836  15.444  11.426  0.0891  0.0469  0.0085
  343loPI   PO4 5476   3.196  15.543  10.912  0.0398  0.0238  0.0314
  343loPI   GL1 5477   3.172  15.770  10.572  0.2099  0.0837 -0.0626
  343loPI   GL2 5478   3.061  15.448  10.440  0.1631  0.0218 -0.1412
  343loPI   C1A 5479   3.155  15.983  10.197 -0.1050 -0.1877 -0.1935
  343loPI   C2A 5480   3.216  16.040   9.793 -0.3362 -0.0136 -0.0174
  343loPI   C3A 5481   3.217  16.060   9.279 -0.0248 -0.3217 -0.2246
  343loPI   C4A 5482   3.240  16.141   8.926 -0.1508  0.1762  0.2843
  343loPI   C5A 5483   3.244  15.910   8.577  0.0180 -0.0430 -0.1811
  343loPI   C6A 5484   3.234  15.446   8.507  0.0423 -0.1937 -0.1971
  343loPI   C1B 5485   3.342  15.465  10.126  0.2903  0.1393 -0.0703
  343loPI   C2B 5486   3.312  15.550   9.689 -0.0952 -0.1206 -0.0321
  343loPI   C3B 5487   3.304  15.586   9.312 -0.3022 -0.2727  0.0343
  343loPI   C4B 5488   3.362  15.449   8.978  0.0121 -0.0225  0.1842
  344loPI    C1 5489  11.616  10.202  10.760  0.1474 -0.0409  0.0142
  344loPI    C2 5490  11.286  10.119  10.970  0.1151 -0.2559 -0.1183
  344loPI    C3 5491  11.491  10.454  11.045 -0.1234 -0.1280 -0.0245
  344loPI   PO4 5492  11.579  10.181  10.499 -0.0914 -0.2088 -0.1903
  344loPI   GL1 5493  11.718  10.184  10.163 -0.1658  0.0532 -0.3428
  344loPI   GL2 5494  11.681  10.435   9.948  0.0061 -0.3541  0.3148
  344loPI   C1A 5495  11.744   9.982   9.731 -0.1739 -0.0308 -0.3124
  344loPI   C2A 5496  11.689   9.874   9.273 -0.0810  0.1375 -0.1059
  344loPI   C3A 5497  11.582   9.969   8.856  0.1873  0.0329  0.1787
  344loPI   C4A 5498  11.433  10.027   8.401  0.0818 -0.1050  0.1876
  344loPI   C5A 5499  11.134  10.221   8.180  0.0338  0.2901  0.2023
  344loPI   C6A 5500  10.870  10.558   8.051 -0.0090 -0.1659  0.0524
  344loPI   C1B 5501  11.744  10.446   9.546  0.0006  0.2477 -0.0032
  344loPI   C2B 5502  11.726  10.478   9.134 -0.2449  0.0562 -0.4029
  344loPI   C3B 5503  11.482  10.487   8.693 -0.1803  0.1367  0.1562
  344loPI   C4B 5504  11.583  10.477   8.234 -0.1277  0.0161 -0.0599
  345loPI    C1 5505   8.504   3.258  11.423 -0.0162 -0.1625 -0.0194
  345loPI    C2 5506   8.427   2.868  11.381  0.0991 -0.1930  0.0462
  345loPI    C3 5507   8.595   3.003  11.718  0.2571 -0.1172 -0.0620
  345loPI   PO4 5508   8.682   3.296  11.160 -0.0396  0.0181  0.1027
  345loPI   GL1 5509   8.756   3.529  10.759  0.0022  0.1913  0.1160
  345loPI   GL2 5510   8.601   3.458  10.510 -0.0525  0.2920 -0.0831
  345loPI   C1A 5511   8.976   3.767  10.338  0.0869  0.1410 -0.2067
  345loPI   C2A 5512   8.951   3.844  10.002  0.0845 -0.1413 -0.2727
  345loPI   C3A 5513   8.995   3.900   9.606 -0.1442 -0.0639  0.0317
  345loPI   C4A 5514   8.853   3.819   9.230 -0.0229  0.2937  0.1887
  345loPI   C5A 5515   8.958   3.865   8.761  0.0834  0.0125  0.2139
  345loPI   C6A 5516   9.156   3.799   8.333 -0.0239  0.1097  0.0444
  345loPI   C1B 5517   8.624   3.442  10.082  0.1363 -0.0638  0.2286
  345loPI   C2B 5518   8.569   3.462   9.677 -0.1650  0.0921 -0.2832
  345loPI   C3B 5519   8.506   3.405   9.290  0.1249 -0.0333  0.0026
  345loPI   C4B 5520   8.552   3.322   8.876  0.4756 -0.2677  0.0421
  346loPI    C1 5521  10.837  10.384  11.013 -0.2793 -0.0329 -0.1939
  346loPI    C2 5522  10.576  10.268  11.292  0.1000 -0.2541  0.0792
  346loPI    C3 5523  10.736   9.998  11.044  0.2027 -0.1500  0.0317
  346loPI   PO4 5524  10.737  10.563  10.867  0.0817 -0.1091  0.1062
  346loPI   GL1 5525  10.762  10.620  10.400 -0.1928 -0.1714  0.2818
  346loPI   GL2 5526  10.947  10.880  10.287 -0.1066 -0.0874 -0.0192
  346loPI   C1A 5527  10.630  10.440  10.057  0.0370 -0.2193  0.2541
  346loPI   C2A 5528  10.685  10.440   9.639  0.0061  0.1941  0.1143
  346loPI   C3A 5529  10.597  10.438   9.243  0.1015  0.1236  0.0443
  346loPI   C4A 5530  10.588  10.481   8.832 -0.0005  0.0273 -0.1026
  346loPI   C5A 5531  10.559  10.271   8.337 -0.1396 -0.0169 -0.1027
  346loPI   C6A 5532  10.530  10.192   7.917  0.1978 -0.2523  0.0955
  346loPI   C1B 5533  10.938  10.797   9.904 -0.3159 -0.0413  0.3189
  346loPI   C2B 5534  10.993  10.827   9.459 -0.1286 -0.0207 -0.2231
  346loPI   C3B 5535  10.975  10.708   8.953  0.7060 -0.1979 -0.0441
  346loPI   C4B 5536  11.015  10.651   8.513  0.0050 -0.0487 -0.0664
  347loPI    C1 5537  12.472   2.490  11.330  0.0669 -0.0492 -0.0288
  347loPI    C2 5538  12.639   2.710  11.619 -0.2462  0.2497 -0.0697
  347loPI    C3 5539  12.367   2.431  11.712  0.1867 -0.1667 -0.0130
  347loPI   PO4 5540  12.627   2.485  11.153  0.1127 -0.1952 -0.0788
  347loPI   GL1 5541  12.554   2.662  10.733  0.0394 -0.3908 -0.2164
  347loPI   GL2 5542  12.201   2.584  10.599 -0.0768  0.0887  0.2168
  347loPI   C1A 5543  12.488   2.773  10.260 -0.0747  0.2579  0.0152
  347loPI   C2A 5544  12.483   2.786   9.848 -0.0437 -0.1926 -0.0111
  347loPI   C3A 5545  12.501   2.686   9.504  0.0767 -0.0966 -0.2022
  347loPI   C4A 5546  12.343   2.798   9.183 -0.1788 -0.0491 -0.2076
  347loPI   C5A 5547  12.547   2.947   8.780  0.1996  0.0898  0.0203
  347loPI   C6A 5548  12.739   2.929   8.317 -0.1900  0.0020  0.1577
  347loPI   C1B 5549  12.117   2.463  10.099 -0.1016 -0.0547  0.0081
  347loPI   C2B 5550  12.079   2.445   9.763 -0.1879  0.0040  0.0595
  347loPI   C3B 5551  11.995   2.486   9.273  0.2025 -0.0246 -0.0961
  347loPI   C4B 5552  12.136   2.564   8.821 -0.0824  0.1557 -0.0224
  348loPI    C1 5553  10.239   5.574  11.267 -0.2574 -0.2047  0.0787
  348loPI    C2 5554  10.156   5.938  11.411 -0.1974 -0.2348  0.1906
  348loPI    C3 5555  10.450   5.891  11.145 -0.2556 -0.1905  0.1183
  348loPI   PO4 5556  10.008   5.456  11.127  0.1978 -0.0114  0.0612
  348loPI   GL1 5557  10.071   5.513  10.775 -0.1094  0.0553 -0.2169
  348loPI   GL2 5558  10.422   5.656  10.707  0.0902  0.1085 -0.0682
  348loPI   C1A 5559   9.961   5.310  10.394  0.0970 -0.2526  0.0922
  348loPI   C2A 5560  10.037   5.329  10.015 -0.0086 -0.2602 -0.1319
  348loPI   C3A 5561   9.968   5.381   9.583 -0.2103  0.2809 -0.0112
  348loPI   C4A 5562  10.090   5.358   9.159  0.0770 -0.2807  0.1209
  348loPI   C5A 5563   9.710   5.350   8.906 -0.0884  0.0277  0.0376
  348loPI   C6A 5564   9.448   5.209   8.667  0.0190  0.0789 -0.1522
  348loPI   C1B 5565  10.784   5.493  10.543  0.1347  0.2530 -0.0480
  348loPI   C2B 5566  10.901   5.546  10.133 -0.2631 -0.0902 -0.0860
  348loPI   C3B 5567  10.851   5.493   9.759  0.0023 -0.0827  0.0421
  348loPI   C4B 5568  10.817   5.640   9.279 -0.1370  0.0276  0.0156
  349loPI    C1 5569  14.100   9.445  11.297 -0.1857  0.0682 -0.0878
  349loPI    C2 5570  13.719   9.550  11.232 -0.2611 -0.0555  0.1435
  349loPI    C3 5571  13.861   9.533  11.606 -0.0453 -0.0717  0.0624
  349loPI   PO4 5572  14.301   9.568  11.062  0.0922 -0.1888 -0.5726
  349loPI   GL1 5573  14.307   9.619  10.684  0.0516  0.0965 -0.0802
  349loPI   GL2 5574  14.645   9.471  10.605  0.0170  0.0814  0.3015
  349loPI   C1A 5575  14.195   9.419  10.329  0.2030 -0.0338  0.1350
  349loPI   C2A 5576  14.198   9.332   9.893  0.2680 -0.1800  0.2352
  349loPI   C3A 5577  14.267   9.312   9.504 -0.2526 -0.1649 -0.1484
  349loPI   C4A 5578  14.157   9.289   9.121 -0.0681  0.0166 -0.1306
  349loPI   C5A 5579  14.106   9.223   8.699 -0.1249  0.2224 -0.2685
  349loPI   C6A 5580  14.180   9.467   8.269  0.0041  0.0630  0.1307
  349loPI   C1B 5581  14.632   9.269  10.201  0.2671 -0.2174 -0.2096
  349loPI   C2B 5582  14.680   9.177   9.902 -0.3369  0.0653  0.3107
  349loPI   C3B 5583  14.706   9.008   9.534  0.0051 -0.2154  0.2198
  349loPI   C4B 5584  14.643   9.080   9.112  0.3146  0.0025  0.0946
  350loPI    C1 5585   3.032   7.475  11.181 -0.0277 -0.1750 -0.2085
  350loPI    C2 5586   3.270   7.664  10.921  0.0246  0.0994  0.0334
  350loPI    C3 5587   3.385   7.619  11.302 -0.0625 -0.2761  0.0192
  350loPI   PO4 5588   2.804   7.514  10.914 -0.1080  0.1523  0.1342
  350loPI   GL1 5589   2.868   7.697  10.582  0.1076 -0.2238  0.0289
  350loPI   GL2 5590   2.615   7.644  10.448 -0.0361 -0.0810  0.2097
  350loPI   C1A 5591   2.910   7.990  10.187 -0.1068 -0.0414 -0.0927
  350loPI   C2A 5592   2.769   7.904   9.906 -0.0019  0.2020  0.1843
  350loPI   C3A 5593   2.731   7.891   9.479  0.1130  0.1056 -0.1564
  350loPI   C4A 5594   2.809   7.857   9.054  0.1072  0.1265 -0.0040
  350loPI   C5A 5595   2.668   7.948   8.676  0.0546 -0.1195 -0.0094
  350loPI   C6A 5596   2.446   8.131   8.330  0.1646 -0.2006  0.0005
  350loPI   C1B 5597   2.424   7.472  10.093  0.0818  0.1035 -0.0252
  350loPI   C2B 5598   2.400   7.488   9.720 -0.2434 -0.0748  0.0383
  350loPI   C3B 5599   2.419   7.522   9.335 -0.3325 -0.0923  0.2840
  350loPI   C4B 5600   2.312   7.573   8.953  0.1830 -0.2357 -0.0534
  351loPI    C1 5601   1.666  11.444  11.067  0.2091  0.2668  0.0280
  351loPI    C2 5602   1.672  11.053  10.986 -0.1950  0.2698 -0.0358
  351loPI    C3 5603   1.914  11.202  11.267 -0.0647 -0.0301  0.0157
  351loPI   PO4 5604   1.419  11.521  10.922  0.0553 -0.2398  0.1698
  351loPI   GL1 5605   1.225  11.735  10.588  0.0473  0.1515  0.1325
  351loPI   GL2 5606   1.029  11.413  10.395  0.2019  0.1626  0.1362
  351loPI   C1A 5607   1.519  11.722  10.244  0.0115  0.0916 -0.2842
  351loPI   C2A 5608   1.551  11.731   9.840  0.1650  0.1286  0.5739
  351loPI   C3A 5609   1.491  11.733   9.394  0.0716  0.0105  0.0222
  351loPI   C4A 5610   1.427  11.727   8.954  0.0819  0.0927 -0.1144
  351loPI   C5A 5611   1.405  11.676   8.498  0.2850  0.2655  0.1079
  351loPI   C6A 5612   1.352  11.224   8.274 -0.3458  0.2522  0.0675
  351loPI   C1B 5613   1.078  11.304   9.952 -0.1706 -0.0020 -0.0106
  351loPI   C2B 5614   1.073  11.341   9.470 -0.2751 -0.1090 -0.0716
  351loPI   C3B 5615   1.090  11.114   9.046 -0.2193  0.0920  0.2344
  351loPI   C4B 5616   1.034  11.233   8.642 -0.1664 -0.1607  0.0869
  352loPI    C1 5617   8.548  14.605  10.416  0.1253 -0.0830  0.1356
  352loPI    C2 5618   8.868  14.394  10.530  0.0507 -0.2077  0.1163
  352loPI    C3 5619   8.839  14.781  10.626  0.2669 -0.1633  0.0082
  352loPI   PO4 5620   8.520  14.566  10.151  0.1561  0.0011  0.0233
  352loPI   GL1 5621   8.135  14.717   9.831 -0.2193 -0.0348 -0.5423
  352loPI   GL2 5622   8.164  14.987   9.729 -0.1746 -0.0374 -0.0564
  352loPI   C1A 5623   8.088  14.711   9.339 -0.0468  0.2163  0.0619
  352loPI   C2A 5624   8.063  14.741   8.930 -0.3454  0.0035 -0.4104
  352loPI   C3A 5625   7.979  14.661   8.470  0.0142  0.0467  0.0935
  352loPI   C4A 5626   7.756  14.508   8.194 -0.0658  0.0064  0.2593
  352loPI   C5A 5627   7.403  14.633   7.896 -0.1083 -0.1687 -0.0067
  352loPI   C6A 5628   7.335  15.080   7.810  0.0360 -0.4127  0.2322
  352loPI   C1B 5629   8.281  15.164   9.365 -0.2328  0.1351  0.0468
  352loPI   C2B 5630   8.220  15.198   9.024  0.2957 -0.1893  0.1309
  352loPI   C3B 5631   8.166  15.080   8.570 -0.3664 -0.2796 -0.3192
  352loPI   C4B 5632   8.097  15.092   8.164 -0.0102 -0.0433 -0.2733
  353loPI    C1 5633  12.025  16.276  10.234  0.0455  0.0950  0.1331
  353loPI    C2 5634  11.815  16.370  10.561 -0.0523 -0.0611  0.1161
  353loPI    C3 5635  12.186  16.224  10.597  0.0625  0.2300  0.1457
  353loPI   PO4 5636  11.987  16.521  10.119 -0.0937 -0.0081  0.1668
  353loPI   GL1 5637  11.809  16.649   9.810  0.3008 -0.4306  0.0434
  353loPI   GL2 5638  11.957  16.890   9.702 -0.3068  0.0147 -0.1178
  353loPI   C1A 5639  11.638  16.505   9.454  0.1601 -0.0401 -0.0395
  353loPI   C2A 5640  11.508  16.535   9.051 -0.1306  0.0285 -0.2797
  353loPI   C3A 5641  11.259  16.371   8.826 -0.2746  0.2127  0.1297
  353loPI   C4A 5642  11.223  16.410   8.425 -0.0620 -0.1358  0.0721
  353loPI   C5A 5643  11.047  16.258   8.026 -0.1760 -0.0070 -0.1472
  353loPI   C6A 5644  11.083  16.112   7.657 -0.2294 -0.0384 -0.0703
  353loPI   C1B 5645  11.962  16.936   9.261  0.3160  0.1626  0.1063
  353loPI   C2B 5646  11.879  16.900   8.849 -0.0927 -0.1006  0.0317
  353loPI   C3B 5647  12.078  16.915   8.506 -0.0065  0.0641 -0.0580
  353loPI   C4B 5648  12.081  16.859   8.047 -0.1831  0.0202  0.2028
  354loPI    C1 5649  11.698  10.913  10.828 -0.1899  0.0995 -0.1304
  354loPI    C2 5650  11.588  11.177  11.107 -0.1809  0.0890 -0.1169
  354loPI    C3 5651  11.791  10.849  11.211 -0.1335  0.1101 -0.1423
  354loPI   PO4 5652  11.411  10.895  10.603  0.0144  0.4015 -0.0119
  354loPI   GL1 5653  11.395  10.696  10.209 -0.1359  0.0638 -0.1483
  354loPI   GL2 5654  11.635  10.934  10.171 -0.1967 -0.2460  0.1329
  354loPI   C1A 5655  11.411  10.759   9.715 -0.1584  0.1091  0.1563
  354loPI   C2A 5656  11.454  10.844   9.198 -0.2358  0.1222  0.1204
  354loPI   C3A 5657  11.406  10.957   8.823 -0.0370  0.0303 -0.2664
  354loPI   C4A 5658  11.382  11.148   8.479  0.2224 -0.0158  0.1213
  354loPI   C5A 5659  11.413  11.515   8.316  0.2441  0.0848 -0.2989
  354loPI   C6A 5660  11.142  11.750   7.974  0.0049  0.1411 -0.2898
  354loPI   C1B 5661  11.838  11.172   9.939  0.0963 -0.0278  0.0168
  354loPI   C2B 5662  11.802  11.075   9.465  0.0593 -0.3480 -0.0880
  354loPI   C3B 5663  11.851  11.004   8.983 -0.1795  0.0692 -0.0709
  354loPI   C4B 5664  11.915  10.814   8.657  0.0599  0.4436  0.0748
  355loPI    C1 5665   9.368  14.418  10.382  0.2059 -0.2010 -0.2275
  355loPI    C2 5666   9.728  14.486  10.542  0.0708 -0.1182  0.0497
  355loPI    C3 5667   9.547  14.134  10.599  0.1055 -0.1593 -0.0882
  355loPI   PO4 5668   9.399  14.421  10.109  0.1344 -0.0584 -0.0682
  355loPI   GL1 5669   9.282  14.628   9.774  0.1401 -0.2030  0.3346
  355loPI   GL2 5670   9.468  14.856   9.911 -0.1236  0.3473  0.0409
  355loPI   C1A 5671   9.313  14.636   9.473  0.1172 -0.1324  0.1181
  355loPI   C2A 5672   9.280  14.614   9.091  0.1180  0.3054 -0.0379
  355loPI   C3A 5673   9.230  14.714   8.713 -0.0419 -0.4132 -0.1494
  355loPI   C4A 5674   9.260  14.861   8.278  0.3843  0.0589 -0.0343
  355loPI   C5A 5675   9.130  15.127   7.993 -0.0031 -0.0960 -0.1818
  355loPI   C6A 5676   9.067  15.586   7.966  0.1291  0.1701 -0.2608
  355loPI   C1B 5677   9.604  15.058   9.627 -0.3412  0.2215  0.0844
  355loPI   C2B 5678   9.288  15.080   9.193 -0.0626 -0.0147 -0.2422
  355loPI   C3B 5679   9.071  15.188   8.892  0.1285 -0.1023 -0.1115
  355loPI   C4B 5680   9.058  15.356   8.462 -0.2314 -0.0526  0.0864
  356loPI    C1 5681  11.105   2.295  11.046  0.1556  0.0386  0.1723
  356loPI    C2 5682  11.020   1.925  11.172 -0.1338 -0.0008 -0.1253
  356loPI    C3 5683  11.056   2.223  11.436  0.1140 -0.2402  0.1179
  356loPI   PO4 5684  11.331   2.238  10.837 -0.1285  0.0150 -0.2358
  356loPI   GL1 5685  11.161   2.418  10.479  0.1995  0.0150 -0.4462
  356loPI   GL2 5686  11.239   2.167  10.366 -0.1254 -0.4481 -0.0458
  356loPI   C1A 5687  11.113   2.713  10.083  0.0838  0.1009  0.0091
  356loPI   C2A 5688  11.130   2.694   9.694  0.0061  0.2846 -0.1150
  356loPI   C3A 5689  11.049   2.769   9.274 -0.2038  0.2904 -0.0331
  356loPI   C4A 5690  11.033   2.817   8.837 -0.0514  0.2726  0.0520
  356loPI   C5A 5691  11.159   2.604   8.486 -0.2277  0.4525 -0.2545
  356loPI   C6A 5692  10.947   2.361   8.137  0.0115 -0.3402 -0.4620
  356loPI   C1B 5693  11.203   2.251   9.885 -0.1474  0.0233 -0.1900
  356loPI   C2B 5694  11.121   2.252   9.343  0.1191 -0.1974  0.0320
  356loPI   C3B 5695  11.245   2.240   8.941 -0.4572  0.0621 -0.1667
  356loPI   C4B 5696  11.382   2.126   8.464 -0.1798 -0.1900  0.0787
  357loPI    C1 5697   9.767  13.557  10.085 -0.2497 -0.0409 -0.0480
  357loPI    C2 5698   9.966  13.400  10.395  0.0044  0.1504 -0.1107
  357loPI    C3 5699   9.764  13.743  10.439 -0.1457  0.0619 -0.1005
  357loPI   PO4 5700   9.850  13.499   9.895 -0.2649  0.1122 -0.3558
  357loPI   GL1 5701   9.701  13.712   9.463  0.1198 -0.3527  0.2957
  357loPI   GL2 5702   9.721  13.940   9.719 -0.3104 -0.0782 -0.0556
  357loPI   C1A 5703   9.702  13.660   9.028  0.0272 -0.3331 -0.0032
  357loPI   C2A 5704   9.731  13.762   8.606  0.0331  0.0420  0.1900
  357loPI   C3A 5705   9.643  13.858   8.165  0.2264  0.1412 -0.3524
  357loPI   C4A 5706   9.698  14.118   7.837 -0.1416 -0.1506 -0.0790
  357loPI   C5A 5707   9.818  14.360   7.496  0.1190  0.0206  0.2243
  357loPI   C6A 5708   9.859  14.159   7.113  0.0123  0.3067  0.0278
  357loPI   C1B 5709  10.009  14.126   9.436  0.1484 -0.0215  0.3256
  357loPI   C2B 5710  10.061  14.186   9.035 -0.0706 -0.2504  0.0544
  357loPI   C3B 5711  10.033  14.206   8.605 -0.0413  0.0621  0.2295
  357loPI   C4B 5712  10.007  14.372   8.140  0.1171 -0.0274  0.2096
  358loPI    C1 5713   1.086   4.631  11.215  0.0223 -0.0807  0.1162
  358loPI    C2 5714   0.862   4.784  11.509  0.1193  0.3858 -0.0438
  358loPI    C3 5715   1.261   4.778  11.544  0.1016 -0.3989  0.2195
  358loPI   PO4 5716   0.880   4.624  11.034  0.0205  0.1081 -0.0797
  358loPI   GL1 5717   0.794   4.585  10.569 -0.1355 -0.1957  0.1227
  358loPI   GL2 5718   0.595   4.382  10.742  0.1558  0.0755  0.1163
  358loPI   C1A 5719   0.765   4.650  10.131  0.3234 -0.2768 -0.2484
  358loPI   C2A 5720   0.736   4.707   9.696  0.0696  0.2554 -0.0451
  358loPI   C3A 5721   0.741   4.749   9.267 -0.1620  0.0118 -0.1736
  358loPI   C4A 5722   0.509   4.877   8.871  0.0684  0.0051  0.2399
  358loPI   C5A 5723   0.276   4.986   8.526  0.0586 -0.1565  0.0711
  358loPI   C6A 5724   0.444   5.254   8.378 -0.1779 -0.0110 -0.1346
  358loPI   C1B 5725   0.421   4.311  10.253  0.0164  0.2015 -0.1715
  358loPI   C2B 5726   0.385   4.299   9.844  0.2071 -0.0914  0.0899
  358loPI   C3B 5727   0.408   4.409   9.340 -0.0960  0.3641 -0.0560
  358loPI   C4B 5728   0.294   4.368   8.915  0.1613 -0.0909 -0.1434
  359loPI    C1 5729   4.115  14.501  10.847 -0.0720 -0.0563  0.1843
  359loPI    C2 5730   3.983  14.827  11.037 -0.1092  0.0003  0.0628
  359loPI    C3 5731   3.890  14.463  11.176  0.0819  0.0400  0.3017
  359loPI   PO4 5732   4.046  14.508  10.613 -0.5578 -0.3185 -0.0914
  359loPI   GL1 5733   4.273  14.522  10.220 -0.2627 -0.0241 -0.0528
  359loPI   GL2 5734   4.068  14.853  10.180 -0.0145 -0.0082 -0.2649
  359loPI   C1A 5735   4.443  14.722   9.875 -0.1185 -0.0035 -0.0472
  359loPI   C2A 5736   4.459  14.730   9.476  0.0585 -0.0981 -0.0984
  359loPI   C3A 5737   4.387  14.778   9.116  0.0291  0.1877  0.0732
  359loPI   C4A 5738   4.337  14.682   8.701  0.0403 -0.0483  0.1032
  359loPI   C5A 5739   4.580  14.692   8.419 -0.0539 -0.0259 -0.2750
  359loPI   C6A 5740   4.947  14.516   8.392 -0.0146  0.0112  0.0028
  359loPI   C1B 5741   3.969  14.802   9.732 -0.1410  0.2216  0.2574
  359loPI   C2B 5742   3.951  14.895   9.350 -0.1167 -0.2108  0.0981
  359loPI   C3B 5743   3.822  14.797   8.858  0.1645  0.1959  0.1580
  359loPI   C4B 5744   3.849  14.760   8.416  0.2759  0.1583 -0.0213
  360loPI    C1 5745  16.232  17.418  10.728 -0.0569 -0.0554 -0.0311
  360loPI    C2 5746  16.027  17.165  10.961  0.1280 -0.1059  0.0782
  360loPI    C3 5747  16.113  17.533  11.092  0.0925 -0.0792  0.0262
  360loPI   PO4 5748  16.138  17.378  10.476 -0.0376 -0.0536 -0.0549
  360loPI   GL1 5749  16.219  17.769  10.254 -0.0890 -0.1199 -0.1255
  360loPI   GL2 5750  16.497  17.630  10.197  0.1390  0.2139  0.1362
  360loPI   C1A 5751  16.255  17.857   9.814 -0.1775 -0.0425  0.1536
  360loPI   C2A 5752  16.293  18.009   9.419 -0.0817  0.2722 -0.1009
  360loPI   C3A 5753  16.407  17.905   8.984  0.0432  0.0547  0.1639
  360loPI   C4A 5754  16.463  18.043   8.506  0.2939  0.2845 -0.4119
  360loPI   C5A 5755  16.538  17.661   8.302 -0.4921 -0.0255  0.3816
  360loPI   C6A 5756  16.190  17.341   8.213  0.0452 -0.2347 -0.0530
  360loPI   C1B 5757  16.732  17.769   9.875 -0.1322  0.3154 -0.0965
  360loPI   C2B 5758  16.781  17.804   9.504  0.0369 -0.1681 -0.0652
  360loPI   C3B 5759  16.897  17.716   9.094  0.0201  0.2084 -0.1537
  360loPI   C4B 5760  16.861  17.785   8.676  0.1546  0.1663 -0.1616
  361loPI    C1 5761   3.550  10.560  11.175 -0.0633 -0.1146 -0.0079
  361loPI    C2 5762   3.589  10.240  11.412  0.0879 -0.0567  0.0467
  361loPI    C3 5763   3.639  10.607  11.562 -0.1145 -0.0048 -0.0092
  361loPI   PO4 5764   3.459  10.478  11.035 -0.0523  0.0610  0.0605
  361loPI   GL1 5765   3.507  10.379  10.570 -0.1484  0.1207  0.0031
  361loPI   GL2 5766   3.847  10.415  10.471  0.0094 -0.0379  0.3641
  361loPI   C1A 5767   3.373  10.231  10.278 -0.0952 -0.2279  0.1145
  361loPI   C2A 5768   3.315  10.215   9.829 -0.0638  0.2002 -0.0766
  361loPI   C3A 5769   3.150  10.197   9.472  0.1684 -0.0791 -0.2118
  361loPI   C4A 5770   3.130  10.194   9.037  0.1803  0.1840 -0.2545
  361loPI   C5A 5771   3.025  10.118   8.571 -0.1524  0.1137  0.0974
  361loPI   C6A 5772   2.972   9.761   8.284 -0.1259 -0.1833 -0.0234
  361loPI   C1B 5773   3.756  10.508  10.109  0.0176 -0.0197  0.1298
  361loPI   C2B 5774   3.614  10.539   9.664 -0.0907 -0.0641 -0.1648
  361loPI   C3B 5775   3.536  10.498   9.157 -0.0327 -0.3157 -0.2011
  361loPI   C4B 5776   3.538  10.494   8.734 -0.2547 -0.1530  0.0486
  362loPI    C1 5777  17.258  15.858  10.888 -0.0399  0.1956  0.2294
  362loPI    C2 5778  17.559  15.623  11.006  0.0787  0.2512  0.0406
  362loPI    C3 5779  17.194  15.570  11.158  0.0877 -0.1044 -0.0520
  362loPI   PO4 5780  17.231  15.859  10.692  0.1307  0.1425 -0.0393
  362loPI   GL1 5781  17.169  16.017  10.309  0.0313 -0.1558  0.0341
  362loPI   GL2 5782  17.530  16.063  10.161 -0.2556 -0.2177 -0.2205
  362loPI   C1A 5783  17.100  16.246   9.902  0.0438 -0.2584  0.2364
  362loPI   C2A 5784  17.265  16.215   9.400 -0.3264 -0.2021  0.1827
  362loPI   C3A 5785  17.150  16.152   8.883 -0.1517 -0.3493 -0.2067
  362loPI   C4A 5786  17.041  16.100   8.399  0.0923 -0.0632  0.2821
  362loPI   C5A 5787  16.864  16.352   8.151  0.0474 -0.0702  0.0647
  362loPI   C6A 5788  16.855  16.682   7.862  0.0307  0.2480 -0.2065
  362loPI   C1B 5789  17.715  16.092   9.708 -0.0483 -0.2381 -0.3372
  362loPI   C2B 5790  17.771  16.072   9.238  0.0237  0.0464  0.0561
  362loPI   C3B 5791  17.739  15.954   8.948 -0.3967 -0.0125  0.1024
  362loPI   C4B 5792  17.545  15.938   8.568 -0.0841 -0.0491  0.0150
  363loPI    C1 5793   1.253   9.508  11.083 -0.0122 -0.0672 -0.0977
  363loPI    C2 5794   1.000   9.289  11.301  0.1621 -0.0753  0.0988
  363loPI    C3 5795   1.372   9.159  11.236  0.1974  0.0584  0.0303
  363loPI   PO4 5796   1.086   9.518  10.839  0.2300 -0.0697  0.0220
  363loPI   GL1 5797   0.939   9.593  10.387 -0.2136  0.2185 -0.0821
  363loPI   GL2 5798   0.974   9.941  10.185  0.1341  0.2128 -0.0061
  363loPI   C1A 5799   0.687   9.421  10.109 -0.1297  0.0576 -0.0313
  363loPI   C2A 5800   0.599   9.396   9.675  0.2008 -0.2457 -0.2058
  363loPI   C3A 5801   0.446   9.495   9.316 -0.2813  0.0533  0.4022
  363loPI   C4A 5802   0.519   9.455   8.855  0.0127  0.1855 -0.3840
  363loPI   C5A 5803   0.465   9.562   8.486 -0.0474  0.0600  0.0387
  363loPI   C6A 5804   0.800   9.536   8.325  0.1327  0.1257 -0.1706
  363loPI   C1B 5805   0.939   9.789   9.738 -0.0625  0.0817  0.1001
  363loPI   C2B 5806   0.809   9.830   9.331 -0.0627  0.3082  0.0483
  363loPI   C3B 5807   0.867   9.848   8.977  0.0863  0.2263 -0.2866
  363loPI   C4B 5808   1.071   9.875   8.548 -0.2289  0.1310  0.1106
  364loPI    C1 5809   0.261  15.279  10.841 -0.1210  0.0131  0.1826
  364loPI    C2 5810   0.150  15.026  11.130  0.4885 -0.0388  0.3853
  364loPI    C3 5811   0.279  15.393  11.224  0.0579  0.1870  0.1247
  364loPI   PO4 5812   0.110  15.322  10.703  0.0495 -0.0304 -0.1853
  364loPI   GL1 5813  -0.150  15.356  10.404  0.1089  0.2355 -0.2658
  364loPI   GL2 5814  -0.430  15.570  10.273  0.1143  0.3242 -0.1146
  364loPI   C1A 5815   0.009  15.556   9.971  0.0481 -0.0162  0.1099
  364loPI   C2A 5816   0.088  15.607   9.536  0.1507 -0.2365  0.0938
  364loPI   C3A 5817   0.132  15.453   9.125  0.3524 -0.0365  0.1448
  364loPI   C4A 5818   0.195  15.519   8.691 -0.1999  0.1505 -0.0186
  364loPI   C5A 5819   0.165  15.637   8.330 -0.0671  0.2486 -0.1395
  364loPI   C6A 5820   0.060  15.970   7.996 -0.0318  0.0190 -0.2649
  364loPI   C1B 5821  -0.447  15.773   9.775 -0.2012 -0.0518 -0.0589
  364loPI   C2B 5822  -0.373  15.699   9.226 -0.1646 -0.1438 -0.3579
  364loPI   C3B 5823  -0.407  15.577   8.897  0.0346  0.1941 -0.2094
  364loPI   C4B 5824  -0.462  15.539   8.357 -0.3228 -0.3780 -0.0833
  365loPI    C1 5825   9.148   2.204  10.874 -0.0224  0.0841  0.1661
  365loPI    C2 5826   9.303   2.558  10.772 -0.0817  0.1620  0.3431
  365loPI    C3 5827   9.540   2.238  10.805 -0.0553  0.1435  0.0049
  365loPI   PO4 5828   8.870   2.147  10.722  0.1190  0.2988  0.1295
  365loPI   GL1 5829   8.739   2.516  10.562 -0.1379 -0.0259 -0.0702
  365loPI   GL2 5830   8.657   2.438  10.372  0.0606  0.0080  0.1883
  365loPI   C1A 5831   9.131   2.771  10.241 -0.3633  0.2878 -0.3782
  365loPI   C2A 5832   9.184   2.868   9.830 -0.0504 -0.1669 -0.2210
  365loPI   C3A 5833   9.101   2.808   9.433 -0.1342 -0.3489 -0.2436
  365loPI   C4A 5834   9.105   2.831   8.946  0.0231  0.1965 -0.1711
  365loPI   C5A 5835   9.223   2.955   8.475 -0.0715 -0.3848 -0.1126
  365loPI   C6A 5836   9.189   3.222   8.218  0.4309  0.0985  0.0765
  365loPI   C1B 5837   8.869   2.354  10.101 -0.1551  0.1223 -0.0272
  365loPI   C2B 5838   8.757   2.524   9.708  0.0133 -0.0270 -0.1705
  365loPI   C3B 5839   8.773   2.463   9.274 -0.3054  0.1247 -0.1800
  365loPI   C4B 5840   8.703   2.410   8.815 -0.5677  0.0093  0.0524
  366loPI    C1 5841   0.179  10.626  10.928  0.0781  0.0252  0.1126
  366loPI    C2 5842  -0.016  10.442  11.224 -0.0424 -0.1364 -0.0646
  366loPI    C3 5843   0.281  10.697  11.308 -0.0893 -0.1642  0.1944
  366loPI   PO4 5844   0.296  10.424  10.678 -0.0508 -0.1477  0.1320
  366loPI   GL1 5845   0.495  10.366  10.314 -0.0475 -0.1271 -0.1160
  366loPI   GL2 5846   0.832  10.462  10.341  0.2163 -0.0288 -0.1021
  366loPI   C1A 5847   0.258  10.461   9.884  0.1441  0.4866 -0.2626
  366loPI   C2A 5848   0.226  10.598   9.462 -0.1465  0.1588  0.0642
  366loPI   C3A 5849   0.265  10.457   8.999 -0.0102  0.1627 -0.0264
  366loPI   C4A 5850   0.112  10.367   8.603 -0.0265  0.1956  0.1440
  366loPI   C5A 5851   0.171  10.555   8.265  0.1844 -0.1519 -0.0751
  366loPI   C6A 5852   0.427  10.660   8.024 -0.2179 -0.0285  0.1124
  366loPI   C1B 5853   0.929  10.420   9.914  0.0070  0.0016  0.0453
  366loPI   C2B 5854   0.926  10.438   9.515 -0.0150  0.0147 -0.2539
  366loPI   C3B 5855   0.762  10.290   9.124  0.2002  0.0800  0.2620
  366loPI   C4B 5856   0.790  10.386   8.767  0.2121 -0.2059  0.3424
  367loPI    C1 5857   9.839   2.548  11.257 -0.2500  0.0328  0.0996
  367loPI    C2 5858   9.840   2.150  11.219 -0.1417  0.0426 -0.0076
  367loPI    C3 5859   9.710   2.319  11.558 -0.0870 -0.0878  0.0791
  367loPI   PO4 5860   9.790   2.616  11.024  0.1104 -0.2935  0.1176
  367loPI   GL1 5861   9.806   2.735  10.686  0.2512 -0.1123  0.1657
  367loPI   GL2 5862   9.992   2.969  10.604 -0.2908  0.3001 -0.1125
  367loPI   C1A 5863   9.702   2.617  10.318  0.1094 -0.1059  0.1780
  367loPI   C2A 5864   9.749   2.635   9.903 -0.1322  0.0627  0.0509
  367loPI   C3A 5865   9.580   2.618   9.543  0.0511 -0.0263  0.1567
  367loPI   C4A 5866   9.611   2.673   9.133  0.1482  0.0638 -0.0437
  367loPI   C5A 5867   9.633   2.676   8.711 -0.1680  0.0458 -0.1789
  367loPI   C6A 5868   9.914   2.803   8.415  0.1421 -0.2030 -0.1877
  367loPI   C1B 5869  10.084   2.942  10.130  0.1957  0.0194  0.2007
  367loPI   C2B 5870  10.107   3.062   9.717 -0.1004  0.1119 -0.2513
  367loPI   C3B 5871  10.059   3.041   9.346  0.0746 -0.2071 -0.0677
  367loPI   C4B 5872  10.017   2.996   8.909  0.0860 -0.2875 -0.4083
  368loPI    C1 5873   5.817   8.131  11.109 -0.0667 -0.2863  0.3256
  368loPI    C2 5874   6.180   8.091  11.272  0.1370  0.1571  0.0031
  368loPI    C3 5875   5.945   8.395  11.381  0.0800  0.1784 -0.1759
  368loPI   PO4 5876   5.851   8.037  10.843  0.0784 -0.0064  0.0587
  368loPI   GL1 5877   5.813   8.125  10.418 -0.1326  0.0994 -0.1271
  368loPI   GL2 5878   6.136   8.149  10.325  0.0461 -0.0468 -0.0190
  368loPI   C1A 5879   5.620   8.285  10.108  0.2080 -0.2591 -0.0348
  368loPI   C2A 5880   5.629   8.058   9.653  0.2209 -0.0225 -0.0634
  368loPI   C3A 5881   5.626   8.083   9.291 -0.0405 -0.0952 -0.0990
  368loPI   C4A 5882   5.504   8.055   8.936 -0.1335  0.1366  0.0108
  368loPI   C5A 5883   5.374   7.939   8.509 -0.1184  0.1602 -0.1714
  368loPI   C6A 5884   5.180   8.173   8.196 -0.0142  0.5035  0.1986
  368loPI   C1B 5885   6.076   8.038   9.906  0.2515 -0.1726 -0.0103
  368loPI   C2B 5886   6.070   7.827   9.458  0.2328 -0.0773  0.2750
  368loPI   C3B 5887   6.021   7.888   9.041 -0.0997  0.0032 -0.4846
  368loPI   C4B 5888   5.930   7.937   8.533 -0.1557  0.0309  0.0417
  369loPI    C1 5889   2.365   9.598  11.134  0.0931 -0.0139 -0.0431
  369loPI    C2 5890   2.394   9.915  11.376  0.1007  0.0303 -0.1019
  369loPI    C3 5891   2.309   9.555  11.528  0.1747  0.0451 -0.0248
  369loPI   PO4 5892   2.508   9.586  10.960  0.1130  0.0585  0.1644
  369loPI   GL1 5893   2.681   9.395  10.479  0.0666 -0.2697  0.1211
  369loPI   GL2 5894   2.961   9.419  10.342  0.1310 -0.1578  0.2458
  369loPI   C1A 5895   2.490   9.498  10.056 -0.1394  0.0850 -0.0952
  369loPI   C2A 5896   2.437   9.552   9.696 -0.0211  0.0315 -0.2323
  369loPI   C3A 5897   2.354   9.385   9.262 -0.0704 -0.3736  0.0558
  369loPI   C4A 5898   2.447   9.315   8.767  0.0639 -0.3748  0.1255
  369loPI   C5A 5899   2.523   8.989   8.432 -0.2098 -0.1186  0.0172
  369loPI   C6A 5900   2.522   8.550   8.564  0.1969  0.1106  0.1768
  369loPI   C1B 5901   2.991   9.415   9.879 -0.1252  0.1290 -0.0950
  369loPI   C2B 5902   2.887   9.304   9.408  0.0960 -0.0670  0.0066
  369loPI   C3B 5903   2.933   9.241   8.937  0.0985 -0.0514  0.1142
  369loPI   C4B 5904   3.079   9.262   8.468  0.1521 -0.1822 -0.0075
  370loPI    C1 5905  11.027   8.476  10.907 -0.0716  0.1531 -0.0636
  370loPI    C2 5906  10.776   8.580  11.202  0.1562  0.5214  0.0065
  370loPI    C3 5907  11.171   8.618  11.253  0.2276  0.0313 -0.1361
  370loPI   PO4 5908  10.832   8.550  10.679 -0.1832 -0.0339 -0.2695
  370loPI   GL1 5909  10.999   8.724  10.346 -0.2706  0.3335 -0.1590
  370loPI   GL2 5910  11.103   9.057  10.241 -0.2040  0.0720 -0.0468
  370loPI   C1A 5911  11.108   8.499  10.078 -0.0702  0.1539 -0.0187
  370loPI   C2A 5912  11.081   8.356   9.607  0.5559 -0.2720  0.0039
  370loPI   C3A 5913  11.199   8.278   9.218  0.0652  0.0979 -0.0317
  370loPI   C4A 5914  11.185   8.338   8.748 -0.0608  0.2102 -0.1704
  370loPI   C5A 5915  11.489   8.560   8.538 -0.0993 -0.0369 -0.2359
  370loPI   C6A 5916  11.762   8.953   8.625 -0.1051 -0.2487  0.2685
  370loPI   C1B 5917  11.004   8.907   9.816 -0.0931  0.2965 -0.3443
  370loPI   C2B 5918  11.063   8.804   9.345 -0.2054  0.2172 -0.1124
  370loPI   C3B 5919  10.941   8.837   8.956  0.0818  0.1742 -0.0588
  370loPI   C4B 5920  10.965   8.763   8.584 -0.1159  0.0632  0.1671
  371loPI    C1 5921   5.501  16.581  11.215 -0.1289 -0.0860 -0.1743
  371loPI    C2 5922   5.390  16.891  11.443 -0.0612 -0.1141 -0.1026
  371loPI    C3 5923   5.686  16.650  11.563 -0.1388 -0.2294 -0.1400
  371loPI   PO4 5924   5.494  16.745  10.955 -0.4750 -0.1088 -0.0302
  371loPI   GL1 5925   5.410  16.885  10.529 -0.0281  0.2479  0.0223
  371loPI   GL2 5926   5.508  16.573  10.457  0.5446 -0.1281  0.1998
  371loPI   C1A 5927   5.341  17.115  10.253 -0.2465 -0.0133 -0.0010
  371loPI   C2A 5928   5.248  17.208   9.938  0.1038 -0.1005 -0.1954
  371loPI   C3A 5929   5.166  17.289   9.478  0.3352 -0.0779  0.0233
  371loPI   C4A 5930   5.278  17.354   9.080  0.2283  0.2771  0.0228
  371loPI   C5A 5931   5.309  17.452   8.676 -0.3976  0.2224 -0.0963
  371loPI   C6A 5932   5.298  17.561   8.249  0.0211 -0.0292  0.0771
  371loPI   C1B 5933   5.359  16.705   9.987  0.2781  0.1582 -0.3367
  371loPI   C2B 5934   5.308  16.840   9.639 -0.1675  0.1348  0.1232
  371loPI   C3B 5935   5.229  16.849   9.194 -0.2424 -0.0743  0.0042
  371loPI   C4B 5936   5.351  16.945   8.795  0.0845 -0.5133 -0.1991
  372loPI    C1 5937  11.646  17.171  10.452 -0.0226 -0.0188 -0.1120
  372loPI    C2 5938  11.752  16.855  10.674 -0.0042 -0.0166 -0.1177
  372loPI    C3 5939  11.607  16.801  10.305  0.1598 -0.0105 -0.1840
  372loPI   PO4 5940  11.794  17.369  10.430 -0.1633 -0.1558  0.1075
  372loPI   GL1 5941  12.099  17.531  10.113 -0.0427  0.0368  0.3974
  372loPI   GL2 5942  12.155  17.828  10.156  0.1938  0.1293 -0.1153
  372loPI   C1A 5943  12.060  17.653   9.703 -0.1399 -0.1047 -0.0124
  372loPI   C2A 5944  12.209  17.804   9.323 -0.1745  0.0323  0.2350
  372loPI   C3A 5945  12.181  17.748   8.883  0.1433  0.0929  0.0312
  372loPI   C4A 5946  11.967  17.773   8.551  0.3730  0.0270 -0.0194
  372loPI   C5A 5947  11.666  17.812   8.201 -0.1218  0.0921  0.1497
  372loPI   C6A 5948  11.544  18.024   7.846 -0.0972  0.1405  0.1839
  372loPI   C1B 5949  12.449  18.040   9.847 -0.3491  0.1507 -0.3197
  372loPI   C2B 5950  12.588  18.112   9.474  0.0840  0.3944  0.3311
  372loPI   C3B 5951  12.606  18.203   9.057  0.1764  0.2458  0.0415
  372loPI   C4B 5952  12.660  18.254   8.597 -0.1041 -0.2605 -0.1565
  373loPI    C1 5953  13.230  13.477  10.380  0.1671  0.1664  0.0255
  373loPI    C2 5954  13.564  13.265  10.318  0.0589 -0.0401  0.1403
  373loPI    C3 5955  13.438  13.337  10.691  0.0786  0.2035  0.1018
  373loPI   PO4 5956  13.073  13.407  10.199 -0.2796  0.2361  0.3267
  373loPI   GL1 5957  13.002  13.166   9.843 -0.0932 -0.0790 -0.1449
  373loPI   GL2 5958  12.697  13.245   9.860 -0.2762 -0.5240  0.2313
  373loPI   C1A 5959  13.195  12.910   9.450  0.1508 -0.1869  0.0299
  373loPI   C2A 5960  13.219  12.755   9.025  0.1353  0.1374 -0.0895
  373loPI   C3A 5961  13.560  12.823   8.716  0.0115 -0.2876 -0.2252
  373loPI   C4A 5962  13.767  13.039   8.357 -0.3313 -0.2037 -0.0726
  373loPI   C5A 5963  13.596  13.125   8.074 -0.0173  0.0179 -0.2333
  373loPI   C6A 5964  13.494  13.022   7.676  0.0394 -0.2308  0.0103
  373loPI   C1B 5965  12.784  13.198   9.395 -0.0043  0.1921  0.0297
  373loPI   C2B 5966  12.809  13.160   8.969  0.3251 -0.0974 -0.0829
  373loPI   C3B 5967  12.992  13.036   8.580 -0.0986  0.3014  0.1862
  373loPI   C4B 5968  12.818  12.739   8.186  0.0111 -0.0605 -0.3278
  374loPI    C1 5969   4.749  13.403  11.012 -0.1570 -0.3124 -0.1040
  374loPI    C2 5970   4.504  13.143  11.192 -0.1473 -0.0457  0.3082
  374loPI    C3 5971   4.737  13.382  11.411 -0.0908  0.2507 -0.0650
  374loPI   PO4 5972   4.788  13.356  10.752 -0.1039  0.1530 -0.0136
  374loPI   GL1 5973   4.984  13.206  10.331  0.0949 -0.1943  0.2048
  374loPI   GL2 5974   5.092  13.502  10.348  0.0154  0.1096 -0.3468
  374loPI   C1A 5975   4.964  13.074   9.974 -0.1652 -0.0300 -0.1607
  374loPI   C2A 5976   4.891  12.989   9.593  0.0570 -0.0900  0.0625
  374loPI   C3A 5977   4.772  13.024   9.181  0.1237  0.2921  0.1121
  374loPI   C4A 5978   4.891  13.181   8.833 -0.0415 -0.1327 -0.2553
  374loPI   C5A 5979   4.883  13.425   8.476 -0.0451 -0.3475  0.0655
  374loPI   C6A 5980   5.134  13.722   8.257  0.1920 -0.0581  0.2113
  374loPI   C1B 5981   5.211  13.493   9.925  0.0826 -0.1009  0.0616
  374loPI   C2B 5982   5.319  13.402   9.614  0.1349  0.1015  0.1226
  374loPI   C3B 5983   5.236  13.373   9.147  0.0845 -0.1105  0.1805
  374loPI   C4B 5984   5.201  13.596   8.801  0.4649  0.1858 -0.1145
  375loPI    C1 5985   3.438   9.743  11.301 -0.1814 -0.1457  0.0285
  375loPI    C2 5986   3.266   9.498  11.567  0.0100 -0.1020  0.1955
  375loPI    C3 5987   3.566   9.737  11.680  0.0131  0.0052 -0.0331
  375loPI   PO4 5988   3.438   9.601  11.030  0.3165  0.1566 -0.2705
  375loPI   GL1 5989   3.695   9.709  10.694  0.1593  0.1639 -0.2208
  375loPI   GL2 5990   3.437   9.607  10.476  0.0007 -0.0029  0.0174
  375loPI   C1A 5991   3.757   9.961  10.294  0.2907 -0.1621 -0.1386
  375loPI   C2A 5992   3.756  10.070   9.907  0.1722  0.2363  0.1889
  375loPI   C3A 5993   3.678  10.069   9.472 -0.0105 -0.2563  0.2202
  375loPI   C4A 5994   3.678   9.927   9.077  0.2419 -0.1865  0.0006
  375loPI   C5A 5995   3.563   9.882   8.617  0.0378  0.1519 -0.1377
  375loPI   C6A 5996   3.495   9.811   8.145 -0.0256 -0.2779 -0.1971
  375loPI   C1B 5997   3.337   9.727  10.140  0.2203 -0.1501  0.1009
  375loPI   C2B 5998   3.302   9.732   9.685  0.0846 -0.0456 -0.0456
  375loPI   C3B 5999   3.168   9.708   9.223  0.1856 -0.0585 -0.0323
  375loPI   C4B 6000   3.145   9.680   8.798  0.1560 -0.0271 -0.0244
  376loPI    C1 6001   1.868  14.929  10.662 -0.1433 -0.0392  0.0363
  376loPI    C2 6002   2.208  15.069  10.820 -0.0068 -0.1940 -0.1159
  376loPI    C3 6003   1.926  14.914  11.058 -0.0701  0.1399  0.0335
  376loPI   PO4 6004   1.842  15.136  10.497  0.2299 -0.1556  0.2881
  376loPI   GL1 6005   1.584  14.989  10.217  0.2608 -0.2208 -0.1150
  376loPI   GL2 6006   1.629  15.358  10.074  0.2072 -0.0958 -0.0778
  376loPI   C1A 6007   1.510  14.891   9.784  0.2519 -0.1296  0.0706
  376loPI   C2A 6008   1.483  14.930   9.320 -0.1540  0.0767 -0.1673
  376loPI   C3A 6009   1.462  14.926   8.935 -0.1526  0.2341  0.2971
  376loPI   C4A 6010   1.588  14.999   8.486  0.0150  0.1094  0.0600
  376loPI   C5A 6011   1.958  15.015   8.246 -0.0562 -0.6065  0.0295
  376loPI   C6A 6012   2.367  15.166   8.280  0.0007 -0.1501  0.0652
  376loPI   C1B 6013   1.588  15.390   9.683  0.0016 -0.0359  0.0479
  376loPI   C2B 6014   1.548  15.381   9.254  0.5504  0.0214 -0.0179
  376loPI   C3B 6015   1.468  15.368   8.812  0.1015 -0.0108  0.1686
  376loPI   C4B 6016   1.612  15.461   8.278  0.1010  0.1228 -0.2866
  377loPI    C1 6017  12.150  12.967  10.763 -0.0727  0.1635  0.1015
  377loPI    C2 6018  12.498  13.127  10.880  0.1211 -0.1464 -0.0387
  377loPI    C3 6019  12.370  12.785  11.044 -0.1186 -0.0344  0.0112
  377loPI   PO4 6020  12.160  13.045  10.495  0.0154  0.1399 -0.1183
  377loPI   GL1 6021  12.207  13.029  10.062 -0.2784  0.0360 -0.1702
  377loPI   GL2 6022  12.174  13.351  10.086  0.3420  0.3510  0.1980
  377loPI   C1A 6023  12.264  13.051   9.698 -0.0570 -0.0245 -0.1434
  377loPI   C2A 6024  12.304  12.908   9.315 -0.0341 -0.0446 -0.1980
  377loPI   C3A 6025  12.381  12.797   8.878  0.2261  0.0199 -0.0492
  377loPI   C4A 6026  12.395  12.693   8.456 -0.2021 -0.2298  0.1066
  377loPI   C5A 6027  12.491  12.409   8.175 -0.1923 -0.3160 -0.0846
  377loPI   C6A 6028  12.904  12.320   7.832 -0.0592  0.2308 -0.1681
  377loPI   C1B 6029  12.344  13.537   9.693 -0.1576 -0.1793 -0.1631
  377loPI   C2B 6030  12.351  13.473   9.259  0.0279  0.2286 -0.0099
  377loPI   C3B 6031  12.381  13.284   8.823  0.1600  0.0088  0.1145
  377loPI   C4B 6032  12.509  13.386   8.438  0.0569  0.1716 -0.3147
  378loPI    C1 6033  11.489   1.732  10.976  0.0510 -0.1177 -0.2106
  378loPI    C2 6034  11.497   2.011  11.263 -0.1135 -0.1301 -0.1932
  378loPI    C3 6035  11.488   1.623  11.360  0.0644 -0.1411 -0.2172
  378loPI   PO4 6036  11.648   1.800  10.782  0.1562 -0.0297  0.0584
  378loPI   GL1 6037  12.001   2.095  10.517 -0.0279  0.3856  0.2924
  378loPI   GL2 6038  11.717   2.217  10.478  0.0662 -0.0354 -0.0351
  378loPI   C1A 6039  12.118   1.817  10.166 -0.2605 -0.0660 -0.2205
  378loPI   C2A 6040  12.153   1.760   9.737  0.1929 -0.1276 -0.2667
  378loPI   C3A 6041  12.063   1.910   9.322  0.0857  0.0961 -0.0014
  378loPI   C4A 6042  12.224   1.973   8.982 -0.2576 -0.2222 -0.1366
  378loPI   C5A 6043  12.096   1.996   8.598 -0.0072 -0.2156 -0.2250
  378loPI   C6A 6044  12.216   2.002   8.065 -0.1609 -0.4907 -0.0102
  378loPI   C1B 6045  11.610   2.520  10.149 -0.2133  0.1070 -0.0556
  378loPI   C2B 6046  11.615   2.645   9.754 -0.0700 -0.0493  0.1229
  378loPI   C3B 6047  11.515   2.598   9.315 -0.3609 -0.4168  0.3255
  378loPI   C4B 6048  11.545   2.659   9.013 -0.1354  0.1252 -0.4378
  379loPI    C1 6049   1.402   4.196  11.249 -0.2270 -0.0602 -0.0376
  379loPI    C2 6050   1.712   4.052  11.457 -0.0998  0.1145 -0.1034
  379loPI    C3 6051   1.338   3.958  11.564 -0.0271 -0.0308  0.0266
  379loPI   PO4 6052   1.505   4.155  11.026 -0.1402  0.2608 -0.1510
  379loPI   GL1 6053   1.753   4.197  10.761  0.0094 -0.0592  0.1473
  379loPI   GL2 6054   1.722   4.455  10.590 -0.0273 -0.1698 -0.4017
  379loPI   C1A 6055   1.518   4.071  10.361 -0.1641 -0.4834  0.2207
  379loPI   C2A 6056   1.368   3.992   9.937 -0.1967 -0.1403 -0.2669
  379loPI   C3A 6057   1.340   4.038   9.487 -0.1325  0.2276 -0.1833
  379loPI   C4A 6058   1.307   3.930   9.017  0.1140 -0.0335  0.0230
  379loPI   C5A 6059   1.200   4.029   8.605 -0.2870 -0.3000  0.0841
  379loPI   C6A 6060   1.446   4.176   8.375  0.3684  0.1846 -0.1538
  379loPI   C1B 6061   1.724   4.514  10.089 -0.0909 -0.2646 -0.0543
  379loPI   C2B 6062   1.720   4.369   9.621 -0.1554  0.3267 -0.1318
  379loPI   C3B 6063   1.758   4.202   9.252  0.0298 -0.0366  0.0329
  379loPI   C4B 6064   1.736   4.046   8.830  0.2236 -0.0616  0.0296
  380loPI    C1 6065   0.752   6.465  11.322 -0.1387  0.0189 -0.1151
  380loPI    C2 6066   0.950   6.796  11.429 -0.0384 -0.0534 -0.0757
  380loPI    C3 6067   0.623   6.685  11.631 -0.1092  0.0560 -0.1291
  380loPI   PO4 6068   0.804   6.454  10.989  0.2227 -0.0891  0.0348
  380loPI   GL1 6069   0.745   6.458  10.613 -0.0601 -0.0907  0.0454
  380loPI   GL2 6070   0.501   6.344  10.663 -0.0677  0.2806  0.0407
  380loPI   C1A 6071   0.905   6.646  10.206  0.1153  0.0590  0.0372
  380loPI   C2A 6072   0.853   6.635   9.715 -0.1325 -0.2621  0.2669
  380loPI   C3A 6073   0.693   6.662   9.347  0.3447 -0.3119  0.2636
  380loPI   C4A 6074   0.615   6.580   8.873  0.0857 -0.1060  0.1623
  380loPI   C5A 6075   0.742   6.683   8.470 -0.0208  0.0703  0.2991
  380loPI   C6A 6076   1.139   6.662   8.123 -0.0740 -0.1713 -0.1393
  380loPI   C1B 6077   0.561   6.310  10.138 -0.1897  0.1676 -0.2454
  380loPI   C2B 6078   0.365   6.276   9.705  0.2922 -0.0604  0.0472
  380loPI   C3B 6079   0.292   6.346   9.243 -0.0352 -0.1910  0.0306
  380loPI   C4B 6080   0.174   6.206   8.807  0.0952  0.1240  0.0814
  381loPI    C1 6081  17.030   3.649  11.368 -0.1362 -0.1583  0.2058
  381loPI    C2 6082  16.921   3.925  11.636  0.1702  0.1179  0.0539
  381loPI    C3 6083  17.225   3.677  11.716  0.2051  0.1426 -0.0018
  381loPI   PO4 6084  17.055   3.737  11.182 -0.1506 -0.1887 -0.0752
  381loPI   GL1 6085  17.230   3.450  10.834  0.2297  0.0911 -0.0135
  381loPI   GL2 6086  17.442   3.685  10.733  0.0877 -0.1148  0.0300
  381loPI   C1A 6087  16.996   3.230  10.447  0.1003  0.1420  0.1438
  381loPI   C2A 6088  17.043   3.205  10.013  0.0644 -0.0279 -0.2043
  381loPI   C3A 6089  16.847   3.238   9.599 -0.0972 -0.1101  0.0124
  381loPI   C4A 6090  16.926   3.232   9.103  0.1536  0.0007  0.2953
  381loPI   C5A 6091  16.949   3.345   8.728  0.0522 -0.2200  0.1390
  381loPI   C6A 6092  16.776   3.695   8.631 -0.1247 -0.1049  0.2170
  381loPI   C1B 6093  17.437   3.554  10.327 -0.1259  0.0940  0.4567
  381loPI   C2B 6094  17.412   3.605   9.930  0.2939 -0.1650 -0.0795
  381loPI   C3B 6095  17.200   3.588   9.497 -0.2817  0.0778  0.0631
  381loPI   C4B 6096  17.231   3.601   9.028 -0.0379  0.0327 -0.0272
  382loPI    C1 6097   2.443  10.555  11.308  0.0234 -0.1656 -0.0125
  382loPI    C2 6098   2.633  10.775  11.582 -0.1396  0.0048 -0.0338
  382loPI    C3 6099   2.674  10.377  11.581  0.0463  0.0224  0.0920
  382loPI   PO4 6100   2.501  10.612  11.036 -0.1292  0.0757 -0.0234
  382loPI   GL1 6101   2.452  10.548  10.659 -0.0173  0.1865  0.1008
  382loPI   GL2 6102   2.270  10.617  10.378 -0.0503  0.2513  0.1467
  382loPI   C1A 6103   2.745  10.372  10.315 -0.0319  0.0277  0.1539
  382loPI   C2A 6104   2.753  10.384   9.854 -0.0438  0.2381 -0.0816
  382loPI   C3A 6105   2.636  10.368   9.378 -0.2471  0.0689  0.3360
  382loPI   C4A 6106   2.642  10.196   8.922  0.0110 -0.0650  0.2545
  382loPI   C5A 6107   2.565   9.855   8.557 -0.0864 -0.2853  0.1964
  382loPI   C6A 6108   2.566   9.473   8.285 -0.2711 -0.0894  0.0779
  382loPI   C1B 6109   2.178  10.555   9.916 -0.0049 -0.1905  0.1515
  382loPI   C2B 6110   2.136  10.434   9.430 -0.0561 -0.1684 -0.1539
  382loPI   C3B 6111   2.239  10.457   9.059 -0.0597  0.0554  0.0062
  382loPI   C4B 6112   2.458  10.599   8.704  0.2314  0.2020  0.2808
  383loPI    C1 6113  17.371   4.460  11.341  0.1129 -0.1483  0.0476
  383loPI    C2 6114  17.201   4.383  11.695 -0.0053  0.0516  0.0360
  383loPI    C3 6115  17.357   4.085  11.479 -0.1435 -0.1039  0.1486
  383loPI   PO4 6116  17.168   4.689  11.286 -0.2556 -0.0367  0.2049
  383loPI   GL1 6117  17.210   4.907  10.888  0.1059 -0.0199  0.1835
  383loPI   GL2 6118  17.447   4.641  10.832 -0.2627  0.0611 -0.1069
  383loPI   C1A 6119  17.116   4.784  10.485  0.2293 -0.2060 -0.3201
  383loPI   C2A 6120  17.198   4.598  10.102  0.2314 -0.0402 -0.0423
  383loPI   C3A 6121  17.114   4.648   9.618 -0.1624  0.1217  0.0723
  383loPI   C4A 6122  17.017   4.550   9.203  0.0666 -0.2037  0.0458
  383loPI   C5A 6123  17.087   4.794   8.864  0.0866  0.0058  0.0549
  383loPI   C6A 6124  17.386   5.176   8.802 -0.0449 -0.4205 -0.1218
  383loPI   C1B 6125  17.380   4.336  10.498  0.2710 -0.3337  0.0559
  383loPI   C2B 6126  17.331   4.123  10.137  0.0530  0.2568 -0.2778
  383loPI   C3B 6127  17.238   4.118   9.728  0.2312 -0.1305 -0.2191
  383loPI   C4B 6128  17.179   4.095   9.250 -0.0611  0.1549 -0.2342
  384loPI    C1 6129   4.982  16.758  11.241  0.1404  0.1903  0.1084
  384loPI    C2 6130   4.604  16.674  11.342  0.0868  0.1842 -0.0929
  384loPI    C3 6131   4.868  16.778  11.624  0.0363 -0.1957  0.1018
  384loPI   PO4 6132   4.931  16.733  10.990 -0.2854 -0.0130 -0.1912
  384loPI   GL1 6133   4.829  16.779  10.583 -0.4710 -0.0915 -0.0467
  384loPI   GL2 6134   5.008  16.588  10.363  0.0448  0.0539 -0.0683
  384loPI   C1A 6135   4.865  17.094  10.453  0.0933 -0.4108  0.2265
  384loPI   C2A 6136   4.763  17.425  10.133  0.2603 -0.3093 -0.0876
  384loPI   C3A 6137   4.693  17.398   9.662 -0.1963 -0.0436 -0.2961
  384loPI   C4A 6138   4.722  17.507   9.249  0.1113 -0.0087  0.1235
  384loPI   C5A 6139   4.799  17.560   8.818 -0.1529  0.0759 -0.2122
  384loPI   C6A 6140   4.810  17.723   8.429 -0.2687  0.0133  0.0595
  384loPI   C1B 6141   4.855  16.869   9.995  0.0858  0.0725  0.1005
  384loPI   C2B 6142   4.822  16.928   9.574 -0.0460  0.0215  0.0219
  384loPI   C3B 6143   4.792  16.994   9.165 -0.1198 -0.0528 -0.0748
  384loPI   C4B 6144   4.917  16.785   8.670  0.3503 -0.3708  0.0432
  385loPI    C1 6145   3.412   1.805  11.335  0.1985 -0.1302 -0.0628
  385loPI    C2 6146   3.707   1.710  11.587  0.1621  0.0244  0.0393
  385loPI    C3 6147   3.342   1.555  11.638  0.1806 -0.0256  0.0201
  385loPI   PO4 6148   3.419   1.699  11.108 -0.0852 -0.0142  0.0757
  385loPI   GL1 6149   3.043   1.732  10.994 -0.0453 -0.1675  0.0645
  385loPI   GL2 6150   2.742   1.459  10.992  0.0287 -0.0766 -0.2793
  385loPI   C1A 6151   2.898   1.713  10.590  0.2688  0.0431  0.1796
  385loPI   C2A 6152   2.831   1.731  10.221  0.0769  0.0935  0.3482
  385loPI   C3A 6153   2.819   1.792   9.835 -0.0560 -0.1587 -0.0810
  385loPI   C4A 6154   2.757   1.654   9.422 -0.0018 -0.0651  0.0903
  385loPI   C5A 6155   2.987   1.658   9.025 -0.0388 -0.0834 -0.1217
  385loPI   C6A 6156   3.385   1.815   8.735 -0.2603 -0.2191 -0.0581
  385loPI   C1B 6157   2.535   1.343  10.609  0.1012 -0.0737 -0.0463
  385loPI   C2B 6158   2.465   1.367  10.108  0.1529 -0.1647  0.2150
  385loPI   C3B 6159   2.431   1.300   9.640  0.1166 -0.1085 -0.0180
  385loPI   C4B 6160   2.478   1.304   9.201  0.1086  0.1628  0.0447
  386loPI    C1 6161  14.821   9.071  11.139 -0.2157  0.2658 -0.0921
  386loPI    C2 6162  14.536   9.214  11.382 -0.0503  0.0264  0.2502
  386loPI    C3 6163  14.922   9.262  11.476  0.0172 -0.0260  0.0068
  386loPI   PO4 6164  14.656   9.072  10.914  0.3091 -0.0082  0.0593
  386loPI   GL1 6165  14.387   8.905  10.497 -0.1049  0.1026  0.2393
  386loPI   GL2 6166  14.767   8.867  10.449  0.0421  0.0978 -0.1426
  386loPI   C1A 6167  14.299   8.858  10.095 -0.0634  0.2732  0.0520
  386loPI   C2A 6168  14.280   8.782   9.659 -0.0732  0.0759  0.1796
  386loPI   C3A 6169  14.309   8.743   9.183 -0.1502  0.1560 -0.5175
  386loPI   C4A 6170  14.203   8.760   8.752 -0.0713 -0.2316 -0.0082
  386loPI   C5A 6171  14.484   8.817   8.522 -0.0227  0.4795 -0.1304
  386loPI   C6A 6172  14.928   8.594   8.448 -0.0889 -0.0097  0.1211
  386loPI   C1B 6173  14.840   8.673  10.060  0.1074 -0.2225  0.0132
  386loPI   C2B 6174  14.857   8.554   9.695  0.0947  0.0608  0.3113
  386loPI   C3B 6175  14.858   8.590   9.311  0.0540 -0.1250 -0.4046
  386loPI   C4B 6176  14.775   8.664   8.904 -0.1954  0.1632 -0.2941
  387loPI    C1 6177   6.490   3.130  11.565  0.0138 -0.1973  0.1763
  387loPI    C2 6178   6.266   3.325  11.834  0.1758  0.1817  0.0431
  387loPI    C3 6179   6.641   3.220  11.924  0.1427  0.0727  0.0565
  387loPI   PO4 6180   6.459   3.238  11.330  0.1768  0.0893 -0.1383
  387loPI   GL1 6181   6.607   3.075  10.908 -0.1858 -0.0942  0.1043
  387loPI   GL2 6182   6.887   2.876  10.805 -0.2381  0.0628  0.1142
  387loPI   C1A 6183   6.639   3.119  10.449  0.3547  0.1567 -0.2649
  387loPI   C2A 6184   6.742   3.038   9.994  0.2827  0.0199 -0.2193
  387loPI   C3A 6185   6.782   3.060   9.524  0.0733 -0.0591 -0.1605
  387loPI   C4A 6186   6.834   2.945   9.141 -0.3405  0.0717  0.1144
  387loPI   C5A 6187   6.747   2.717   8.722  0.0352 -0.0280 -0.3313
  387loPI   C6A 6188   6.804   2.278   8.696 -0.2869  0.2337  0.1555
  387loPI   C1B 6189   6.924   2.549  10.432 -0.0945 -0.1090 -0.4211
  387loPI   C2B 6190   6.870   2.535  10.055 -0.0551 -0.1306  0.0919
  387loPI   C3B 6191   6.868   2.475   9.580 -0.1451 -0.1721 -0.2031
  387loPI   C4B 6192   6.924   2.473   9.125 -0.2226  0.1436  0.1948
  388loPI    C1 6193  13.398   6.192  11.367  0.1221 -0.2253 -0.1214
  388loPI    C2 6194  13.392   5.803  11.462  0.2204 -0.1901  0.0329
  388loPI    C3 6195  13.516   6.072  11.730 -0.0859 -0.0256  0.0143
  388loPI   PO4 6196  13.286   6.168  11.085 -0.1673  0.1646  0.2119
  388loPI   GL1 6197  13.265   5.739  10.924 -0.1722  0.1350  0.1430
  388loPI   GL2 6198  12.991   5.888  10.794  0.0807 -0.1784  0.1172
  388loPI   C1A 6199  13.471   5.696  10.501 -0.0298  0.1198 -0.0938
  388loPI   C2A 6200  13.547   5.748  10.062 -0.1774  0.0384 -0.0070
  388loPI   C3A 6201  13.579   5.631   9.637  0.1030 -0.2722  0.2957
  388loPI   C4A 6202  13.701   5.794   9.213  0.0034 -0.0413  0.0363
  388loPI   C5A 6203  13.536   5.726   8.820 -0.1079  0.2510  0.0231
  388loPI   C6A 6204  13.256   5.654   8.461  0.2803 -0.1307 -0.1091
  388loPI   C1B 6205  13.027   5.833  10.342 -0.1475  0.1750  0.2208
  388loPI   C2B 6206  13.094   5.928   9.947 -0.1126  0.2797  0.0017
  388loPI   C3B 6207  13.145   5.860   9.546  0.1980  0.0268  0.0705
  388loPI   C4B 6208  13.191   5.805   9.171 -0.0549  0.0964  0.1041
  389loPI    C1 6209  12.227  10.777  10.685  0.0345  0.1669 -0.1799
  389loPI    C2 6210  12.448  10.527  10.464  0.0070 -0.0394  0.0226
  389loPI    C3 6211  12.545  10.595  10.846 -0.2888 -0.1459  0.1192
  389loPI   PO4 6212  12.189  11.079  10.543  0.0100 -0.0947  0.0166
  389loPI   GL1 6213  12.445  11.195  10.193  0.1284 -0.0582  0.2049
  389loPI   GL2 6214  12.567  10.981  10.027 -0.2641 -0.1171 -0.1108
  389loPI   C1A 6215  12.336  11.354   9.774 -0.0894 -0.0257 -0.1651
  389loPI   C2A 6216  12.429  11.424   9.416 -0.0785  0.0747  0.0112
  389loPI   C3A 6217  12.237  11.378   9.077  0.0777  0.0201 -0.2033
  389loPI   C4A 6218  12.272  11.159   8.776  0.0143 -0.3396 -0.1418
  389loPI   C5A 6219  12.440  11.121   8.400 -0.0489  0.0664  0.0657
  389loPI   C6A 6220  12.543  10.820   8.035  0.2440  0.2738 -0.1638
  389loPI   C1B 6221  12.756  11.099   9.650  0.1408  0.1356  0.0334
  389loPI   C2B 6222  12.737  10.941   9.270  0.0550  0.0778  0.0401
  389loPI   C3B 6223  12.741  11.139   8.854  0.2045 -0.0206 -0.0655
  389loPI   C4B 6224  12.980  11.320   8.465 -0.2401  0.1378 -0.2221
  390loPI    C1 6225  17.134   2.692  11.424 -0.0245  0.0720  0.0324
  390loPI    C2 6226  16.808   2.836  11.606 -0.1021 -0.1436  0.0665
  390loPI    C3 6227  16.979   2.499  11.738  0.0427 -0.1163 -0.0486
  390loPI   PO4 6228  17.050   2.671  11.112  0.1012 -0.2848 -0.1448
  390loPI   GL1 6229  17.130   2.783  10.608  0.2936  0.0242 -0.2073
  390loPI   GL2 6230  16.809   2.908  10.772  0.0015  0.1817 -0.1010
  390loPI   C1A 6231  17.096   2.739  10.140  0.0428 -0.2613 -0.3149
  390loPI   C2A 6232  17.159   2.797   9.700  0.4198 -0.2059 -0.1374
  390loPI   C3A 6233  16.953   2.776   9.323  0.2872  0.0833 -0.2348
  390loPI   C4A 6234  16.954   2.747   8.865 -0.0555 -0.2222  0.0279
  390loPI   C5A 6235  16.761   2.925   8.514 -0.0290 -0.0007 -0.3187
  390loPI   C6A 6236  16.339   2.916   8.626 -0.2056 -0.1621 -0.2209
  390loPI   C1B 6237  16.652   2.884  10.346 -0.3781  0.0820  0.1744
  390loPI   C2B 6238  16.691   2.890   9.945 -0.0700  0.1938  0.2250
  390loPI   C3B 6239  16.507   2.913   9.530  0.0339 -0.2751 -0.0061
  390loPI   C4B 6240  16.504   2.888   9.103  0.2075  0.2390  0.3049
  391loPI    C1 6241  13.875   2.478  11.502 -0.1140  0.0015 -0.0583
  391loPI    C2 6242  13.484   2.393  11.509 -0.0639 -0.2295  0.0603
  391loPI    C3 6243  13.710   2.319  11.830  0.0123  0.2315  0.1196
  391loPI   PO4 6244  14.109   2.316  11.227  0.2812  0.1233 -0.1143
  391loPI   GL1 6245  14.291   2.441  10.802 -0.0272  0.0908 -0.1039
  391loPI   GL2 6246  14.506   2.178  10.869  0.2283  0.1082 -0.0740
  391loPI   C1A 6247  14.253   2.496  10.301  0.0321 -0.1960 -0.0579
  391loPI   C2A 6248  14.255   2.520   9.851  0.0689 -0.3111  0.1851
  391loPI   C3A 6249  14.295   2.602   9.370  0.1642  0.1508  0.2430
  391loPI   C4A 6250  14.337   2.769   8.913 -0.2445  0.0205  0.0736
  391loPI   C5A 6251  14.564   2.900   8.539 -0.1301 -0.1584 -0.4558
  391loPI   C6A 6252  14.677   3.322   8.322 -0.2661 -0.0454 -0.1495
  391loPI   C1B 6253  14.461   2.064  10.435 -0.1148 -0.0067 -0.0671
  391loPI   C2B 6254  14.422   2.060   9.934 -0.2123 -0.3481 -0.0191
  391loPI   C3B 6255  14.329   2.080   9.516  0.2475  0.0058 -0.1009
  391loPI   C4B 6256  14.357   2.126   9.133  0.2607 -0.1964  0.0512
  392loPI    C1 6257   8.620   3.763  11.454 -0.1980 -0.2484 -0.1861
  392loPI    C2 6258   8.948   3.712  11.231 -0.0096  0.3246 -0.0565
  392loPI    C3 6259   8.924   3.544  11.593 -0.0024  0.0113 -0.1978
  392loPI   PO4 6260   8.407   3.772  11.216 -0.3106  0.0418  0.0549
  392loPI   GL1 6261   8.269   3.921  10.935  0.0993 -0.3222 -0.0990
  392loPI   GL2 6262   8.074   4.073  10.868  0.0915  0.3230 -0.0527
  392loPI   C1A 6263   8.501   4.005  10.583  0.2122 -0.0444 -0.0451
  392loPI   C2A 6264   8.457   3.996  10.125  0.0707 -0.0009 -0.2366
  392loPI   C3A 6265   8.424   3.979   9.753 -0.0066  0.1618 -0.1410
  392loPI   C4A 6266   8.415   3.993   9.318  0.0948 -0.0777  0.0015
  392loPI   C5A 6267   8.369   3.977   8.835  0.1188  0.0573 -0.2040
  392loPI   C6A 6268   8.169   3.790   8.467 -0.1496 -0.3520  0.0607
  392loPI   C1B 6269   7.948   4.124  10.483  0.0745  0.2507  0.0774
  392loPI   C2B 6270   7.885   4.037  10.160  0.0719  0.0923  0.0015
  392loPI   C3B 6271   7.949   4.064   9.736 -0.0844 -0.2423  0.3486
  392loPI   C4B 6272   7.942   4.066   9.315  0.0544  0.4966 -0.1625
  393loPI    C1 6273   1.516  17.371  11.277  0.3586 -0.0904  0.0010
  393loPI    C2 6274   1.307  17.330  11.616  0.2208  0.0634 -0.0639
  393loPI    C3 6275   1.602  17.600  11.594  0.1624  0.1248 -0.0980
  393loPI   PO4 6276   1.416  17.420  11.080 -0.2199 -0.1951 -0.2739
  393loPI   GL1 6277   1.464  17.463  10.659  0.0808  0.0441  0.1643
  393loPI   GL2 6278   1.794  17.254  10.578 -0.1362  0.1553  0.0760
  393loPI   C1A 6279   1.478  17.462  10.174  0.1269 -0.0662  0.1018
  393loPI   C2A 6280   1.388  17.404   9.813  0.0820 -0.2534 -0.1621
  393loPI   C3A 6281   1.442  17.511   9.368 -0.2855  0.0474 -0.4278
  393loPI   C4A 6282   1.525  17.584   8.894 -0.1076 -0.0966  0.0150
  393loPI   C5A 6283   1.728  17.795   8.666  0.0892 -0.2662 -0.1799
  393loPI   C6A 6284   2.091  17.704   8.417  0.1372 -0.2486  0.0089
  393loPI   C1B 6285   2.002  17.338  10.167  0.0510  0.1793  0.0736
  393loPI   C2B 6286   1.927  17.318   9.713 -0.1648  0.0458 -0.2477
  393loPI   C3B 6287   2.000  17.326   9.375 -0.3774 -0.0647  0.1213
  393loPI   C4B 6288   2.027  17.414   9.007 -0.3367  0.1189 -0.2246
  394loPI    C1 6289   1.460   9.880  11.343  0.0513 -0.1759 -0.1556
  394loPI    C2 6290   1.543  10.163  11.614 -0.0190 -0.1697 -0.1403
  394loPI    C3 6291   1.720   9.805  11.639  0.0610 -0.1314 -0.1526
  394loPI   PO4 6292   1.535   9.980  11.044  0.1027 -0.1761 -0.1571
  394loPI   GL1 6293   1.495   9.859  10.587  0.0631  0.0554  0.0589
  394loPI   GL2 6294   1.243  10.158  10.591 -0.2265  0.1899 -0.2994
  394loPI   C1A 6295   1.570   9.567  10.237 -0.1444  0.0300  0.0486
  394loPI   C2A 6296   1.474   9.733   9.781  0.1054 -0.0536  0.0513
  394loPI   C3A 6297   1.411   9.705   9.371  0.0556  0.2083 -0.0386
  394loPI   C4A 6298   1.432   9.625   8.949 -0.2722  0.2794  0.2503
  394loPI   C5A 6299   1.460   9.515   8.479 -0.0794 -0.0772 -0.4556
  394loPI   C6A 6300   1.253   9.174   8.329  0.2284 -0.1740  0.0638
  394loPI   C1B 6301   1.456  10.142  10.167 -0.0094  0.1801 -0.2592
  394loPI   C2B 6302   1.292  10.190   9.737 -0.1020  0.2124  0.0860
  394loPI   C3B 6303   1.264  10.194   9.302 -0.2693 -0.2386  0.0802
  394loPI   C4B 6304   1.274  10.254   8.864 -0.0464  0.0263 -0.1644
  395loPI    C1 6305   7.442   1.213  11.172  0.0951  0.1097 -0.0887
  395loPI    C2 6306   7.119   0.982  11.222  0.0137  0.2122 -0.1371
  395loPI    C3 6307   7.108   1.367  11.330  0.2163  0.1440  0.1382
  395loPI   PO4 6308   7.437   1.197  10.899  0.1392  0.1063  0.4341
  395loPI   GL1 6309   7.110   0.966  10.558 -0.0226 -0.3666 -0.0245
  395loPI   GL2 6310   7.567   0.856  10.595 -0.3041 -0.0730  0.1666
  395loPI   C1A 6311   7.197   0.876  10.167 -0.2287  0.1241 -0.0271
  395loPI   C2A 6312   7.202   0.900   9.688 -0.0609  0.1105 -0.0780
  395loPI   C3A 6313   7.209   0.970   9.272  0.0449  0.1101 -0.1324
  395loPI   C4A 6314   7.143   0.973   8.862  0.1465  0.0724  0.0246
  395loPI   C5A 6315   6.882   1.083   8.426  0.0431  0.0664 -0.1530
  395loPI   C6A 6316   6.572   1.374   8.423 -0.1895  0.1424  0.0781
  395loPI   C1B 6317   7.694   1.149  10.246  0.0056 -0.1867  0.1257
  395loPI   C2B 6318   7.685   1.199   9.786 -0.1347 -0.0884 -0.0735
  395loPI   C3B 6319   7.584   1.293   9.365  0.2961  0.0124  0.1092
  395loPI   C4B 6320   7.611   1.340   8.882  0.1407 -0.1630 -0.2893
  396loPI    C1 6321  16.525  12.246  10.916  0.0269 -0.1177 -0.1515
  396loPI    C2 6322  16.418  11.928  11.133  0.1683  0.0169  0.1213
  396loPI    C3 6323  16.206  12.266  11.157  0.0318 -0.0460 -0.1509
  396loPI   PO4 6324  16.729  12.178  10.796 -0.1970  0.0258 -0.1283
  396loPI   GL1 6325  16.921  12.096  10.363  0.0426  0.2125  0.3578
  396loPI   GL2 6326  17.059  12.352  10.477  0.1795 -0.0685 -0.2131
  396loPI   C1A 6327  16.784  11.934   9.933 -0.0612  0.1759  0.1412
  396loPI   C2A 6328  16.719  11.961   9.503 -0.1207  0.0970 -0.0013
  396loPI   C3A 6329  16.824  11.909   9.060 -0.2649 -0.0588  0.0381
  396loPI   C4A 6330  16.782  11.915   8.683  0.1603 -0.0858 -0.1969
  396loPI   C5A 6331  16.969  11.622   8.386  0.1941  0.1033 -0.0369
  396loPI   C6A 6332  17.468  11.572   8.287  0.3653  0.2833 -0.3837
  396loPI   C1B 6333  17.205  12.333   9.999 -0.1702  0.2087 -0.0617
  396loPI   C2B 6334  17.148  12.340   9.521 -0.1322  0.1044  0.0510
  396loPI   C3B 6335  17.197  12.261   9.052 -0.0456  0.2435 -0.4362
  396loPI   C4B 6336  17.305  12.227   8.667  0.2424  0.1288 -0.1916
  397loPI    C1 6337   1.151   6.154  11.519 -0.0068  0.0639  0.0948
  397loPI    C2 6338   1.170   5.883  11.812 -0.0024 -0.0403 -0.0011
  397loPI    C3 6339   1.463   6.151  11.770  0.0880 -0.1419 -0.0229
  397loPI   PO4 6340   1.195   6.016  11.305 -0.2195  0.0842  0.1076
  397loPI   GL1 6341   1.283   6.067  10.883  0.1054  0.0595 -0.1218
  397loPI   GL2 6342   1.008   5.997  10.785  0.2786  0.1665 -0.1883
  397loPI   C1A 6343   1.523   5.987  10.571  0.0987 -0.1401  0.2201
  397loPI   C2A 6344   1.494   6.004  10.142 -0.1444  0.0523 -0.0471
  397loPI   C3A 6345   1.488   5.955   9.668 -0.2705 -0.0078 -0.1992
  397loPI   C4A 6346   1.366   5.942   9.250  0.1001  0.0425  0.3380
  397loPI   C5A 6347   1.438   5.935   8.797 -0.0503  0.1027  0.0887
  397loPI   C6A 6348   1.778   5.934   8.425 -0.1875 -0.3907  0.1659
  397loPI   C1B 6349   1.015   6.128  10.332 -0.1563  0.1482  0.0212
  397loPI   C2B 6350   1.017   6.167   9.910  0.2991  0.0146 -0.2770
  397loPI   C3B 6351   0.867   6.129   9.523 -0.1820 -0.2715 -0.0775
  397loPI   C4B 6352   0.738   6.188   9.129 -0.0192 -0.0134 -0.0103
  398loPI    C1 6353   7.769  12.041  10.870 -0.1277 -0.3323  0.0674
  398loPI    C2 6354   7.648  12.194  11.219  0.1506  0.0606 -0.0013
  398loPI    C3 6355   7.925  11.906  11.213  0.0623 -0.0274  0.1053
  398loPI   PO4 6356   7.837  12.211  10.656  0.3103  0.0859  0.1059
  398loPI   GL1 6357   7.676  12.209  10.264  0.1739  0.0602  0.3878
  398loPI   GL2 6358   7.745  11.836  10.297  0.1821 -0.0712  0.0300
  398loPI   C1A 6359   7.815  12.184   9.766 -0.1310 -0.2423  0.0570
  398loPI   C2A 6360   7.789  12.089   9.404 -0.1007  0.0265  0.0621
  398loPI   C3A 6361   7.728  11.931   9.002  0.0038 -0.0470 -0.2041
  398loPI   C4A 6362   7.532  11.830   8.543  0.0110 -0.0349 -0.2435
  398loPI   C5A 6363   7.221  12.048   8.286  0.0734 -0.0427 -0.0134
  398loPI   C6A 6364   6.888  12.314   8.192 -0.2922 -0.1087 -0.2285
  398loPI   C1B 6365   7.675  11.714   9.823 -0.4509  0.4489  0.2618
  398loPI   C2B 6366   7.696  11.638   9.423  0.1357  0.2723 -0.0640
  398loPI   C3B 6367   7.734  11.365   9.011 -0.0712  0.3062 -0.0949
  398loPI   C4B 6368   7.815  11.306   8.558 -0.0524 -0.0951  0.0039
  399loPI    C1 6369   9.016  13.757  10.099 -0.0158  0.0420  0.1095
  399loPI    C2 6370   9.378  13.912  10.172 -0.0101  0.1175 -0.0722
  399loPI    C3 6371   9.087  13.944  10.445  0.1519 -0.0438  0.1221
  399loPI   PO4 6372   9.031  13.842   9.828 -0.2182 -0.2139  0.1869
  399loPI   GL1 6373   9.264  14.084   9.730 -0.0879 -0.1240  0.3807
  399loPI   GL2 6374   9.007  14.267   9.550 -0.0755  0.0830  0.1458
  399loPI   C1A 6375   9.452  14.177   9.334 -0.0004  0.0582 -0.1894
  399loPI   C2A 6376   9.606  14.236   8.847  0.1696  0.2931 -0.1002
  399loPI   C3A 6377   9.416  14.301   8.539 -0.0806 -0.2995 -0.0254
  399loPI   C4A 6378   9.519  14.405   8.139  0.0259 -0.0960  0.0624
  399loPI   C5A 6379   9.437  14.698   7.777 -0.3735 -0.0037  0.0739
  399loPI   C6A 6380   9.753  14.812   7.457 -0.1285  0.0473 -0.3131
  399loPI   C1B 6381   8.861  14.234   9.144 -0.1362  0.1230  0.1726
  399loPI   C2B 6382   8.922  14.330   8.790 -0.2825  0.2493 -0.1558
  399loPI   C3B 6383   8.987  14.408   8.343  0.2660 -0.0776 -0.1372
  399loPI   C4B 6384   8.894  14.550   7.932  0.0023 -0.1238 -0.0501
  400loPI    C1 6385  16.075   9.624  11.062 -0.0067  0.1319  0.0829
  400loPI    C2 6386  15.688   9.523  11.062 -0.0160  0.1650  0.2233
  400loPI    C3 6387  15.867   9.629  11.404  0.1929 -0.1410  0.2123
  400loPI   PO4 6388  16.178   9.786  10.856  0.1598 -0.1773 -0.2560
  400loPI   GL1 6389  16.432   9.605  10.458 -0.1081  0.2276 -0.3055
  400loPI   GL2 6390  16.527   9.401  10.582  0.1771 -0.0917  0.2118
  400loPI   C1A 6391  16.343   9.737  10.057 -0.0437 -0.0960  0.0136
  400loPI   C2A 6392  16.492   9.613   9.668 -0.0539 -0.1443 -0.0416
  400loPI   C3A 6393  16.503   9.562   9.239 -0.4071  0.0368  0.1501
  400loPI   C4A 6394  16.412   9.555   8.814  0.0719 -0.2358  0.0537
  400loPI   C5A 6395  16.371   9.571   8.444 -0.3634  0.0201  0.0054
  400loPI   C6A 6396  16.677   9.537   8.087  0.0142  0.1977 -0.1213
  400loPI   C1B 6397  16.483   9.177  10.229 -0.0086  0.0038 -0.0940
  400loPI   C2B 6398  16.499   9.072   9.784 -0.1175 -0.0665  0.1521
  400loPI   C3B 6399  16.587   8.974   9.341 -0.0238  0.0403 -0.0719
  400loPI   C4B 6400  16.586   9.054   8.892  0.0167 -0.0037  0.0262
  401loPI    C1 6401  12.215  13.778  10.433  0.0578 -0.0167 -0.1042
  401loPI    C2 6402  11.899  13.560  10.544  0.1761 -0.1487 -0.0214
  401loPI    C3 6403  12.215  13.590  10.786  0.1338  0.1743 -0.0009
  401loPI   PO4 6404  12.083  13.976  10.254  0.0314 -0.0259  0.1082
  401loPI   GL1 6405  12.405  14.111   9.909  0.3909 -0.0104  0.1655
  401loPI   GL2 6406  12.740  14.150   9.930 -0.2332  0.1822  0.0361
  401loPI   C1A 6407  12.459  14.002   9.441  0.1211  0.0919 -0.2434
  401loPI   C2A 6408  12.449  14.005   9.048 -0.3819  0.0321  0.0985
  401loPI   C3A 6409  12.525  13.928   8.582 -0.1014  0.0287  0.1509
  401loPI   C4A 6410  12.453  13.931   8.172  0.1030 -0.4768  0.0281
  401loPI   C5A 6411  12.150  14.204   8.103  0.1099  0.1896  0.1926
  401loPI   C6A 6412  11.838  14.151   7.737  0.1367  0.2530  0.1760
  401loPI   C1B 6413  12.878  14.323   9.501 -0.0023  0.2361 -0.4131
  401loPI   C2B 6414  12.850  14.301   9.119  0.3706 -0.0457 -0.2548
  401loPI   C3B 6415  12.845  14.268   8.715 -0.0221 -0.1043 -0.0566
  401loPI   C4B 6416  12.855  14.275   8.227  0.0808 -0.0480 -0.3284
  402loPI    C1 6417  11.179   3.031  11.274 -0.0242 -0.0137  0.0377
  402loPI    C2 6418  10.959   2.697  11.270 -0.0934  0.0334 -0.2362
  402loPI    C3 6419  11.125   2.822  11.611 -0.2365 -0.1689 -0.0900
  402loPI   PO4 6420  11.045   3.161  11.029  0.3604  0.1998  0.1382
  402loPI   GL1 6421  11.114   3.345  10.647 -0.1607 -0.1290  0.2576
  402loPI   GL2 6422  11.405   3.427  10.630 -0.0582  0.3115 -0.0982
  402loPI   C1A 6423  10.878   3.165  10.272  0.1578 -0.2661 -0.1192
  402loPI   C2A 6424  10.986   3.177   9.791 -0.0735 -0.0285 -0.1205
  402loPI   C3A 6425  10.947   3.253   9.402  0.0564 -0.2568 -0.0121
  402loPI   C4A 6426  10.865   3.326   8.901 -0.4819  0.0809 -0.1677
  402loPI   C5A 6427  10.710   3.452   8.572  0.1349  0.0128  0.2885
  402loPI   C6A 6428  10.569   3.706   8.267 -0.0211  0.1362  0.0158
  402loPI   C1B 6429  11.276   3.437  10.171  0.1117  0.2164  0.1781
  402loPI   C2B 6430  11.343   3.581   9.712  0.1334 -0.0219 -0.1787
  402loPI   C3B 6431  11.354   3.608   9.318 -0.2040 -0.3910 -0.0539
  402loPI   C4B 6432  11.451   3.661   8.886  0.1075 -0.0695 -0.2225
  403loPI    C1 6433   8.385  12.725  10.434 -0.2002  0.0868  0.0676
  403loPI    C2 6434   7.989  12.671  10.452 -0.1931  0.0767  0.2010
  403loPI    C3 6435   8.221  12.554  10.756 -0.0540 -0.2038 -0.0084
  403loPI   PO4 6436   8.424  12.714  10.162 -0.1446  0.2768 -0.3559
  403loPI   GL1 6437   8.115  12.704   9.925  0.2435 -0.2266 -0.0582
  403loPI   GL2 6438   7.892  12.870   9.762 -0.0490 -0.2333  0.2416
  403loPI   C1A 6439   8.126  12.525   9.502 -0.0474 -0.1074  0.0464
  403loPI   C2A 6440   7.971  12.413   9.096 -0.2301 -0.1542  0.0565
  403loPI   C3A 6441   8.062  12.307   8.691  0.1048  0.0767 -0.1505
  403loPI   C4A 6442   7.768  12.192   8.300  0.2655  0.0682 -0.2817
  403loPI   C5A 6443   7.669  11.812   8.078 -0.1832 -0.3297 -0.1376
  403loPI   C6A 6444   7.205  11.656   7.904 -0.1086 -0.1489 -0.1884
  403loPI   C1B 6445   7.812  12.864   9.222  0.1136  0.1075 -0.1471
  403loPI   C2B 6446   7.745  12.701   8.770 -0.1016 -0.0386 -0.1592
  403loPI   C3B 6447   7.849  12.726   8.296  0.3564  0.0329  0.0785
  403loPI   C4B 6448   8.179  12.680   8.026  0.2897 -0.0582 -0.2955
  404loPI    C1 6449   9.065  10.083  10.574 -0.2668 -0.1706  0.0878
  404loPI    C2 6450   9.198  10.040  10.949  0.1652  0.2043 -0.0137
  404loPI    C3 6451   9.351   9.815  10.655 -0.0396  0.0422  0.0012
  404loPI   PO4 6452   8.746  10.059  10.696 -0.0057 -0.2336  0.0221
  404loPI   GL1 6453   8.527  10.091  10.341  0.1478  0.0201  0.0076
  404loPI   GL2 6454   8.237  10.041  10.398  0.3092 -0.3136 -0.1514
  404loPI   C1A 6455   8.533  10.068   9.860 -0.0961  0.3298  0.0398
  404loPI   C2A 6456   8.515  10.011   9.330  0.0015 -0.1146 -0.1194
  404loPI   C3A 6457   8.342   9.937   8.969  0.2060 -0.0044  0.2655
  404loPI   C4A 6458   8.198   9.932   8.677  0.1424 -0.0427  0.0037
  404loPI   C5A 6459   7.859   9.653   8.484 -0.1088  0.0942  0.2223
  404loPI   C6A 6460   7.889   9.609   8.024  0.0054 -0.2326 -0.2059
  404loPI   C1B 6461   8.140  10.287  10.052  0.0158  0.1018 -0.1580
  404loPI   C2B 6462   8.129  10.310   9.639 -0.1345 -0.1316 -0.1440
  404loPI   C3B 6463   7.948  10.254   9.210 -0.1367  0.0045  0.1529
  404loPI   C4B 6464   7.868  10.258   8.747 -0.0519  0.0158  0.3029
  405loPI    C1 6465   0.236   4.165  11.674  0.5010 -0.1173 -0.0589
  405loPI    C2 6466  -0.038   3.922  11.833  0.0075  0.4256 -0.0478
  405loPI    C3 6467   0.277   4.037  12.050 -0.1152  0.3385  0.1806
  405loPI   PO4 6468   0.091   4.064  11.340 -0.0496  0.5139  0.0896
  405loPI   GL1 6469   0.375   4.019  11.014  0.1252  0.2535  0.1007
  405loPI   GL2 6470   0.149   3.980  10.755 -0.0129 -0.1311 -0.3674
  405loPI   C1A 6471   0.576   3.848  10.683 -0.1196  0.0392 -0.0177
  405loPI   C2A 6472   0.532   3.729  10.301 -0.2675  0.0638  0.0020
  405loPI   C3A 6473   0.528   3.841   9.856 -0.0600 -0.0025 -0.0875
  405loPI   C4A 6474   0.423   3.863   9.390 -0.0604 -0.1725 -0.0998
  405loPI   C5A 6475   0.473   3.891   8.900 -0.0125  0.1693  0.3871
  405loPI   C6A 6476   0.466   4.026   8.407 -0.1777 -0.1190  0.1335
  405loPI   C1B 6477   0.047   3.858  10.402 -0.0341 -0.1573  0.1333
  405loPI   C2B 6478   0.022   3.999   9.879  0.1055  0.1747 -0.2956
  405loPI   C3B 6479  -0.142   3.946   9.467 -0.3688  0.1326  0.1274
  405loPI   C4B 6480   0.050   4.024   9.096  0.1884  0.0882  0.1984
  406loPI    C1 6481   5.573   6.022  10.835 -0.0998 -0.0587  0.1792
  406loPI    C2 6482   5.199   6.000  10.695 -0.0838  0.0131  0.1242
  406loPI    C3 6483   5.290   5.837  11.049 -0.1517 -0.0641  0.1064
  406loPI   PO4 6484   5.624   6.271  10.793  0.0737 -0.0234  0.2707
  406loPI   GL1 6485   5.795   6.325  10.338 -0.2240 -0.0463 -0.1866
  406loPI   GL2 6486   5.427   6.164  10.337 -0.1709 -0.2374  0.0657
  406loPI   C1A 6487   5.914   6.576  10.016 -0.2292  0.0223 -0.0932
  406loPI   C2A 6488   5.945   6.549   9.493  0.0764  0.0775 -0.1121
  406loPI   C3A 6489   5.914   6.568   9.018  0.0357 -0.1029 -0.4058
  406loPI   C4A 6490   5.896   6.784   8.562 -0.0916 -0.2893 -0.0793
  406loPI   C5A 6491   6.059   6.693   8.132  0.0037 -0.1868 -0.1492
  406loPI   C6A 6492   6.164   6.693   7.637 -0.1229 -0.1414  0.1955
  406loPI   C1B 6493   5.576   6.207   9.881  0.0956  0.1609 -0.0996
  406loPI   C2B 6494   5.557   6.184   9.430  0.1628 -0.1401 -0.2149
  406loPI   C3B 6495   5.543   6.135   9.036 -0.1810 -0.0720 -0.0056
  406loPI   C4B 6496   5.565   6.273   8.541 -0.0459  0.2437 -0.1902
  407loPI    C1 6497   4.958  13.824  10.807  0.1530  0.4409  0.1819
  407loPI    C2 6498   4.565  13.847  10.878  0.1102  0.2090  0.0310
  407loPI    C3 6499   4.823  13.831  11.183 -0.0288 -0.1054  0.1362
  407loPI   PO4 6500   4.958  14.017  10.570 -0.1635 -0.0388  0.0669
  407loPI   GL1 6501   4.973  13.948  10.133 -0.1870  0.2750 -0.0944
  407loPI   GL2 6502   5.270  13.938  10.116 -0.1247 -0.1502 -0.0172
  407loPI   C1A 6503   4.725  13.555   9.895 -0.0571  0.0886 -0.0278
  407loPI   C2A 6504   4.837  13.469   9.530 -0.0495 -0.0856  0.1378
  407loPI   C3A 6505   4.772  13.546   9.182  0.1128 -0.0177  0.2408
  407loPI   C4A 6506   4.665  13.706   8.854 -0.2582  0.0723 -0.1997
  407loPI   C5A 6507   4.538  13.816   8.414 -0.1355 -0.3160  0.1476
  407loPI   C6A 6508   4.558  13.665   8.060 -0.2222  0.0281  0.0079
  407loPI   C1B 6509   5.173  13.920   9.635  0.2302  0.1549 -0.0180
  407loPI   C2B 6510   5.150  13.847   9.270 -0.3572 -0.4375 -0.0147
  407loPI   C3B 6511   5.084  14.077   9.033  0.1693 -0.0233  0.1049
  407loPI   C4B 6512   4.981  14.091   8.662  0.1990 -0.0197 -0.0314
  408loPI    C1 6513  13.283  15.187  10.342  0.0570  0.0837 -0.1216
  408loPI    C2 6514  12.900  15.255  10.434  0.0179  0.1018 -0.2935
  408loPI    C3 6515  13.189  15.357  10.692 -0.0947  0.0448 -0.1428
  408loPI   PO4 6516  13.253  15.006  10.002  0.4081 -0.0621  0.0987
  408loPI   GL1 6517  13.232  15.089   9.629 -0.2816  0.0605  0.1594
  408loPI   GL2 6518  13.067  15.268   9.445 -0.2542  0.0965  0.1962
  408loPI   C1A 6519  13.584  15.279   9.351  0.2231 -0.0853  0.0833
  408loPI   C2A 6520  13.514  15.448   8.931 -0.0973  0.2028  0.0517
  408loPI   C3A 6521  13.494  15.555   8.415 -0.0004  0.3587 -0.2659
  408loPI   C4A 6522  13.501  15.606   7.962  0.0909 -0.0667 -0.0563
  408loPI   C5A 6523  13.541  15.917   7.516 -0.0207  0.1228 -0.0200
  408loPI   C6A 6524  13.730  16.272   7.353  0.0690  0.1368 -0.1162
  408loPI   C1B 6525  13.112  15.222   8.986  0.1877 -0.0533  0.0258
  408loPI   C2B 6526  13.221  15.120   8.556 -0.1449  0.2261 -0.2034
  408loPI   C3B 6527  13.236  15.226   8.192 -0.3396  0.0202 -0.1320
  408loPI   C4B 6528  13.538  15.024   7.886 -0.2724  0.2310 -0.2009
  409loPI    C1 6529   9.884   4.836  11.391 -0.0048  0.1155 -0.0956
  409loPI    C2 6530   9.895   5.203  11.551  0.0794  0.0926 -0.0482
  409loPI    C3 6531   9.656   4.923  11.708  0.1066  0.0917 -0.0078
  409loPI   PO4 6532   9.928   4.818  11.136  0.1160  0.1064  0.3409
  409loPI   GL1 6533  10.189   4.987  10.853  0.0399  0.0943 -0.1520
  409loPI   GL2 6534  10.054   4.696  10.705 -0.1622 -0.4560  0.1736
  409loPI   C1A 6535  10.360   5.142  10.543 -0.1755  0.0706  0.1456
  409loPI   C2A 6536  10.490   5.261  10.210 -0.0031 -0.2435 -0.5328
  409loPI   C3A 6537  10.469   5.173   9.778  0.1298 -0.3816 -0.0581
  409loPI   C4A 6538  10.534   5.232   9.342  0.0745  0.0768 -0.1898
  409loPI   C5A 6539  10.498   5.472   8.942  0.2299  0.0318  0.0699
  409loPI   C6A 6540  10.610   5.819   8.664 -0.1192 -0.0854  0.0772
  409loPI   C1B 6541  10.126   4.827  10.227 -0.1133 -0.4476  0.2710
  409loPI   C2B 6542  10.097   4.824   9.825  0.0984 -0.0503 -0.0987
  409loPI   C3B 6543  10.124   4.914   9.449 -0.2498  0.0561 -0.1270
  409loPI   C4B 6544  10.328   4.939   9.039  0.0276 -0.1564  0.0738
  410loPI    C1 6545  17.005  13.240  11.199 -0.0729  0.1123  0.2936
  410loPI    C2 6546  17.212  13.509  10.988  0.0174 -0.1431  0.0499
  410loPI    C3 6547  17.244  13.499  11.387  0.0884  0.1405  0.0532
  410loPI   PO4 6548  16.913  13.086  10.926  0.0427  0.3138 -0.0365
  410loPI   GL1 6549  16.580  12.903  10.615 -0.0030  0.0024 -0.0388
  410loPI   GL2 6550  16.512  12.582  10.520  0.1323  0.0584  0.1868
  410loPI   C1A 6551  16.808  12.902  10.157 -0.2526 -0.0944  0.1358
  410loPI   C2A 6552  17.018  12.810   9.860 -0.0012  0.2127  0.0663
  410loPI   C3A 6553  16.866  12.828   9.453  0.2169  0.1416  0.0915
  410loPI   C4A 6554  16.985  12.779   9.029  0.0789  0.1177 -0.2635
  410loPI   C5A 6555  17.023  12.691   8.584 -0.1357 -0.0565  0.1256
  410loPI   C6A 6556  16.924  12.327   8.312 -0.1126 -0.0450 -0.2644
  410loPI   C1B 6557  16.597  12.444  10.089  0.0381 -0.1761 -0.1169
  410loPI   C2B 6558  16.587  12.424   9.703  0.0889  0.0512 -0.2075
  410loPI   C3B 6559  16.543  12.474   9.313 -0.2836 -0.1677 -0.0585
  410loPI   C4B 6560  16.749  12.369   8.877  0.2976  0.0043  0.0710
  411loPI    C1 6561   5.286   4.019  11.187 -0.1484 -0.1435  0.1162
  411loPI    C2 6562   5.105   4.353  11.060  0.2860  0.0181 -0.0961
  411loPI    C3 6563   5.131   4.277  11.452 -0.1345  0.0462 -0.0581
  411loPI   PO4 6564   5.465   3.974  10.955  0.0865 -0.2901  0.0652
  411loPI   GL1 6565   5.466   3.701  10.542  0.2044 -0.2369 -0.2445
  411loPI   GL2 6566   5.230   3.838  10.259 -0.2202 -0.0188 -0.2369
  411loPI   C1A 6567   5.615   3.667  10.101 -0.2748  0.2721  0.1091
  411loPI   C2A 6568   5.706   3.733   9.558  0.0483 -0.2690 -0.0052
  411loPI   C3A 6569   5.723   3.837   9.155 -0.0945  0.1483  0.0850
  411loPI   C4A 6570   5.903   3.826   8.749  0.2804  0.0989  0.0763
  411loPI   C5A 6571   6.040   4.098   8.460 -0.1799 -0.0895  0.1677
  411loPI   C6A 6572   6.343   4.210   8.440 -0.2061  0.5154  0.0192
  411loPI   C1B 6573   5.137   3.840   9.852  0.1538  0.2276 -0.2643
  411loPI   C2B 6574   5.225   3.893   9.425  0.0810 -0.0253 -0.0477
  411loPI   C3B 6575   5.276   3.925   8.972  0.2421 -0.1938 -0.2873
  411loPI   C4B 6576   5.332   3.828   8.540 -0.0132  0.3166  0.1041
  412loPI    C1 6577  12.497  12.651  10.505 -0.0295 -0.1381 -0.2047
  412loPI    C2 6578  12.888  12.576  10.463 -0.0269 -0.1661 -0.1338
  412loPI    C3 6579  12.686  12.418  10.770  0.0052  0.2173  0.0919
  412loPI   PO4 6580  12.407  12.615  10.345  0.0585 -0.0167 -0.0392
  412loPI   GL1 6581  12.462  12.648   9.957  0.0006  0.1593  0.0076
  412loPI   GL2 6582  12.350  12.481   9.773 -0.0598 -0.1333 -0.0919
  412loPI   C1A 6583  12.750  12.772   9.696  0.1674  0.1558 -0.1333
  412loPI   C2A 6584  12.746  12.694   9.276 -0.2421 -0.0212 -0.0142
  412loPI   C3A 6585  12.801  12.569   8.756  0.1026 -0.1057  0.1213
  412loPI   C4A 6586  13.197  12.585   8.491  0.0792  0.2815 -0.1457
  412loPI   C5A 6587  13.608  12.573   8.291  0.1099 -0.0151 -0.4038
  412loPI   C6A 6588  13.791  12.591   7.976 -0.0906 -0.0895  0.0522
  412loPI   C1B 6589  12.414  12.339   9.332  0.2847  0.2724 -0.1105
  412loPI   C2B 6590  12.418  12.306   8.981  0.0208  0.2745 -0.0289
  412loPI   C3B 6591  12.503  12.132   8.614  0.0319  0.1288  0.1418
  412loPI   C4B 6592  12.897  12.232   8.343 -0.1861  0.0265 -0.1701
  413loPI    C1 6593  13.698   1.687  11.411  0.3304  0.0937  0.0668
  413loPI    C2 6594  13.650   1.728  11.806  0.1514 -0.0029  0.0560
  413loPI    C3 6595  13.388   1.513  11.594  0.2059  0.1095 -0.1272
  413loPI   PO4 6596  13.686   1.919  11.325  0.4118  0.2522 -0.0297
  413loPI   GL1 6597  13.500   2.136  11.064 -0.0069 -0.1585 -0.2501
  413loPI   GL2 6598  13.811   2.154  10.886  0.1449  0.1350  0.0541
  413loPI   C1A 6599  13.485   2.340  10.591 -0.2850  0.1468 -0.0734
  413loPI   C2A 6600  13.350   2.385  10.208 -0.1516 -0.0003  0.0946
  413loPI   C3A 6601  13.419   2.368   9.750 -0.0871 -0.2729  0.1249
  413loPI   C4A 6602  13.437   2.472   9.244  0.2613  0.0874  0.3264
  413loPI   C5A 6603  13.531   2.466   8.761  0.2583  0.0747 -0.2205
  413loPI   C6A 6604  13.474   2.391   8.418  0.0642 -0.0972  0.3025
  413loPI   C1B 6605  13.903   2.118  10.419 -0.0272 -0.3014 -0.1321
  413loPI   C2B 6606  13.889   2.167   9.897 -0.0752  0.0730  0.2478
  413loPI   C3B 6607  13.836   2.249   9.424  0.0754 -0.3126  0.0581
  413loPI   C4B 6608  13.900   2.478   9.029  0.1104 -0.0060 -0.1304
  414loPI    C1 6609  10.928  14.158  10.373  0.0229 -0.3452 -0.0303
  414loPI    C2 6610  10.954  14.356  10.719 -0.1284  0.0865 -0.2577
  414loPI    C3 6611  10.665  14.085  10.665  0.0760 -0.2018  0.0545
  414loPI   PO4 6612  10.917  14.338  10.133  0.1506 -0.0496 -0.0348
  414loPI   GL1 6613  10.781  14.342   9.756  0.0671 -0.0864 -0.0821
  414loPI   GL2 6614  10.515  14.079   9.614 -0.0013 -0.0174  0.1294
  414loPI   C1A 6615  11.011  14.512   9.330 -0.1068  0.5554 -0.1502
  414loPI   C2A 6616  10.992  14.436   8.864  0.0267  0.0570 -0.1132
  414loPI   C3A 6617  10.849  14.591   8.487 -0.0382 -0.2323 -0.2703
  414loPI   C4A 6618  10.954  14.823   8.068  0.1783  0.0220 -0.1281
  414loPI   C5A 6619  11.123  14.959   7.744 -0.1572 -0.1225  0.0400
  414loPI   C6A 6620  11.363  15.205   7.450  0.1825 -0.3412 -0.0694
  414loPI   C1B 6621  10.546  14.012   9.183 -0.1260 -0.2367 -0.0241
  414loPI   C2B 6622  10.563  14.016   8.676  0.0094  0.0820 -0.0757
  414loPI   C3B 6623  10.468  14.270   8.284  0.2337  0.0861  0.2870
  414loPI   C4B 6624  10.614  14.414   7.801  0.1401 -0.1675  0.1862
  415loPI    C1 6625  16.946  14.749  10.964  0.0363  0.0603 -0.1241
  415loPI    C2 6626  16.926  15.105  11.144  0.2834 -0.1350  0.3056
  415loPI    C3 6627  16.901  14.770  11.360  0.1671 -0.3820 -0.0798
  415loPI   PO4 6628  17.060  14.819  10.750  0.0312  0.4307 -0.3396
  415loPI   GL1 6629  17.139  14.732  10.316  0.1027  0.3210  0.3249
  415loPI   GL2 6630  17.284  15.004  10.313  0.0638  0.0763 -0.2366
  415loPI   C1A 6631  16.942  14.884   9.829 -0.0622  0.1578 -0.0084
  415loPI   C2A 6632  17.070  14.932   9.425  0.0682 -0.0097  0.0096
  415loPI   C3A 6633  17.094  14.794   9.038 -0.1141  0.0532  0.1735
  415loPI   C4A 6634  17.120  14.673   8.678 -0.1635 -0.1672  0.0233
  415loPI   C5A 6635  16.985  14.485   8.349  0.1211 -0.0947  0.2829
  415loPI   C6A 6636  16.966  14.269   7.946 -0.0245  0.1703 -0.0580
  415loPI   C1B 6637  17.378  15.217   9.919  0.2566  0.1972  0.1664
  415loPI   C2B 6638  17.442  15.306   9.542 -0.0464  0.1372  0.2036
  415loPI   C3B 6639  17.457  15.141   9.094 -0.1384  0.0904 -0.1398
  415loPI   C4B 6640  17.562  15.185   8.685  0.0478 -0.0746  0.0391
  416loPI    C1 6641  10.607   8.934  10.903  0.0272 -0.1366  0.1316
  416loPI    C2 6642  10.890   9.110  10.682 -0.0774 -0.0974  0.0277
  416loPI    C3 6643  10.965   9.014  11.063 -0.0026  0.1260  0.0706
  416loPI   PO4 6644  10.398   8.891  10.745  0.1126 -0.1063 -0.1710
  416loPI   GL1 6645  10.510   8.790  10.335  0.3159 -0.1619  0.0690
  416loPI   GL2 6646  10.611   9.063  10.208  0.0544  0.0528  0.2399
  416loPI   C1A 6647  10.565   8.532   9.996  0.1809 -0.1054 -0.0215
  416loPI   C2A 6648  10.640   8.556   9.560 -0.2533 -0.1786 -0.1322
  416loPI   C3A 6649  10.637   8.513   9.167 -0.0325 -0.0319  0.0533
  416loPI   C4A 6650  10.548   8.476   8.702  0.0434 -0.0252  0.1516
  416loPI   C5A 6651  10.652   8.395   8.341 -0.3621  0.2327  0.0233
  416loPI   C6A 6652  10.553   8.072   8.080  0.1743 -0.2363  0.0239
  416loPI   C1B 6653  10.514   8.987   9.765 -0.0497  0.0359 -0.1041
  416loPI   C2B 6654  10.566   8.995   9.344 -0.2291  0.0783  0.1098
  416loPI   C3B 6655  10.460   8.981   8.925  0.2201 -0.2860  0.1616
  416loPI   C4B 6656  10.418   8.916   8.493  0.1272  0.0701  0.0661
  417loPI    C1 6657  10.895  15.697  10.310  0.2373  0.0452  0.1065
  417loPI    C2 6658  10.844  15.933  10.629 -0.3085 -0.1244  0.1561
  417loPI    C3 6659  10.863  15.536  10.675 -0.0300 -0.1309  0.0086
  417loPI   PO4 6660  11.140  15.865  10.111  0.2315 -0.1477 -0.1967
  417loPI   GL1 6661  11.430  15.763   9.782 -0.0999  0.0557  0.0685
  417loPI   GL2 6662  11.745  16.029   9.756  0.1810  0.0225 -0.1737
  417loPI   C1A 6663  11.569  15.651   9.367  0.3627 -0.0525 -0.2942
  417loPI   C2A 6664  11.594  15.595   8.896 -0.1302  0.0678  0.1758
  417loPI   C3A 6665  11.592  15.578   8.406 -0.0286  0.4483  0.0702
  417loPI   C4A 6666  11.487  15.345   8.028  0.1025 -0.0279 -0.0628
  417loPI   C5A 6667  11.609  14.945   7.819 -0.2461 -0.0973 -0.0227
  417loPI   C6A 6668  11.961  14.649   7.763  0.0465  0.4159  0.1731
  417loPI   C1B 6669  11.810  16.060   9.258 -0.1952 -0.0708 -0.0025
  417loPI   C2B 6670  11.730  16.044   8.834  0.1110  0.1047  0.1613
  417loPI   C3B 6671  11.617  16.077   8.403 -0.0708  0.1474 -0.3023
  417loPI   C4B 6672  11.733  15.759   7.974 -0.2476  0.1577 -0.0125
  418loPI    C1 6673  14.611   1.677  11.230 -0.0905 -0.0586 -0.0762
  418loPI    C2 6674  14.493   2.047  11.326  0.0565 -0.0446  0.0562
  418loPI    C3 6675  14.579   1.784  11.615  0.0596 -0.1481 -0.0381
  418loPI   PO4 6676  14.644   1.695  10.956  0.0165 -0.0701  0.1507
  418loPI   GL1 6677  14.542   1.528  10.512  0.1497 -0.1741  0.1085
  418loPI   GL2 6678  14.838   1.444  10.476 -0.1943 -0.2481 -0.0929
  418loPI   C1A 6679  14.478   1.564  10.102 -0.1204 -0.1037 -0.1785
  418loPI   C2A 6680  14.603   1.579   9.722 -0.0099 -0.1105 -0.0327
  418loPI   C3A 6681  14.536   1.627   9.354 -0.3353  0.2501 -0.0535
  418loPI   C4A 6682  14.483   1.638   8.989  0.0330 -0.0325  0.1961
  418loPI   C5A 6683  14.439   1.998   8.642 -0.0928  0.3497 -0.2060
  418loPI   C6A 6684  14.077   2.244   8.650  0.1985 -0.2096  0.2234
  418loPI   C1B 6685  14.998   1.447   9.996 -0.1075 -0.0510  0.1055
  418loPI   C2B 6686  15.012   1.436   9.490  0.1265  0.0359 -0.2562
  418loPI   C3B 6687  14.961   1.467   9.057  0.0808 -0.0056  0.1215
  418loPI   C4B 6688  14.787   1.592   8.610 -0.1822 -0.1310  0.1675
  419loPI    C1 6689   6.758   8.882  11.373  0.0669  0.0552  0.0465
  419loPI    C2 6690   6.367   8.950  11.422  0.0283 -0.0038 -0.1692
  419loPI    C3 6691   6.630   9.247  11.475 -0.0152 -0.0411  0.2961
  419loPI   PO4 6692   6.808   8.863  11.078  0.1337  0.2511 -0.1897
  419loPI   GL1 6693   6.809   8.908  10.637 -0.0103 -0.1163 -0.1431
  419loPI   GL2 6694   6.614   8.625  10.539 -0.2414 -0.2643  0.0613
  419loPI   C1A 6695   6.907   8.912  10.152 -0.3066 -0.2150 -0.3870
  419loPI   C2A 6696   6.759   8.708   9.855  0.0501 -0.5377  0.0650
  419loPI   C3A 6697   6.823   8.631   9.467 -0.2687 -0.0132 -0.3706
  419loPI   C4A 6698   6.816   8.586   8.980  0.1738  0.2273  0.0345
  419loPI   C5A 6699   7.044   8.969   8.662  0.1289  0.2744  0.3725
  419loPI   C6A 6700   7.151   9.279   8.410  0.0326 -0.2036  0.1640
  419loPI   C1B 6701   6.499   8.459  10.161  0.1875  0.1422  0.1254
  419loPI   C2B 6702   6.425   8.331   9.662 -0.0162  0.2195 -0.0100
  419loPI   C3B 6703   6.510   8.207   9.224  0.1020  0.1199 -0.0677
  419loPI   C4B 6704   6.382   8.230   8.779 -0.0571 -0.0671  0.0686
  420loPI    C1 6705   2.468   5.750  11.058  0.1365  0.3094  0.1119
  420loPI    C2 6706   2.190   6.027  11.136 -0.0949  0.0960  0.0582
  420loPI    C3 6707   2.300   5.768  11.421 -0.1306  0.0240  0.0066
  420loPI   PO4 6708   2.656   5.951  10.944 -0.1866 -0.1483 -0.0405
  420loPI   GL1 6709   2.548   6.250  10.790 -0.1882 -0.0004  0.0255
  420loPI   GL2 6710   2.363   6.206  10.565 -0.0642 -0.0816  0.1880
  420loPI   C1A 6711   2.793   6.107  10.357 -0.0647 -0.1515  0.0053
  420loPI   C2A 6712   2.846   6.021   9.907 -0.1394  0.0347 -0.1352
  420loPI   C3A 6713   2.785   6.076   9.559 -0.2577  0.1534  0.0595
  420loPI   C4A 6714   2.791   5.967   9.090  0.1811 -0.3152  0.2043
  420loPI   C5A 6715   3.001   5.756   8.806  0.2212  0.0301  0.1787
  420loPI   C6A 6716   2.997   5.490   8.441  0.0939 -0.0351 -0.1788
  420loPI   C1B 6717   2.397   6.214  10.111  0.0856  0.0552 -0.0671
  420loPI   C2B 6718   2.320   6.162   9.633 -0.0010  0.1305 -0.1223
  420loPI   C3B 6719   2.304   6.163   9.161 -0.0151  0.1209  0.0032
  420loPI   C4B 6720   2.469   5.923   8.766 -0.1311  0.0072  0.1194
  421loPI    C1 6721   9.618   5.898  11.509  0.0403  0.1283  0.1485
  421loPI    C2 6722   9.857   5.700  11.761 -0.1627 -0.0948  0.1693
  421loPI    C3 6723   9.816   6.096  11.795  0.1726 -0.0584  0.1886
  421loPI   PO4 6724   9.669   5.767  11.291  0.0752 -0.3466 -0.1698
  421loPI   GL1 6725   9.577   5.852  10.860 -0.0137  0.0778  0.2627
  421loPI   GL2 6726   9.447   6.167  10.788  0.1159  0.1494  0.0414
  421loPI   C1A 6727   9.845   5.890  10.467 -0.0594 -0.3549 -0.0563
  421loPI   C2A 6728   9.818   5.939  10.077 -0.0794  0.2057  0.1372
  421loPI   C3A 6729   9.822   5.867   9.542  0.1154 -0.1221  0.2078
  421loPI   C4A 6730   9.914   5.780   9.035 -0.0792  0.1358 -0.0943
  421loPI   C5A 6731   9.620   5.855   8.828  0.5515 -0.0299 -0.1362
  421loPI   C6A 6732   9.163   6.031   8.732 -0.0669 -0.4265  0.0566
  421loPI   C1B 6733   9.408   6.144  10.404  0.0339 -0.1319 -0.0286
  421loPI   C2B 6734   9.358   6.153  10.018 -0.1104  0.3193 -0.3141
  421loPI   C3B 6735   9.363   5.945   9.637  0.2192  0.0013 -0.0679
  421loPI   C4B 6736   9.307   6.041   9.202 -0.1595  0.0090  0.0686
  422loPI    C1 6737  14.245   7.190  11.315 -0.0161 -0.0168  0.1204
  422loPI    C2 6738  13.990   6.974  11.535 -0.1528  0.1652  0.1434
  422loPI    C3 6739  14.321   7.125  11.703 -0.1423  0.1145  0.1685
  422loPI   PO4 6740  14.083   7.260  11.124  0.0780 -0.2389 -0.1720
  422loPI   GL1 6741  13.984   7.345  10.668 -0.1415 -0.0193 -0.3902
  422loPI   GL2 6742  13.793   7.078  10.624 -0.0089 -0.4692  0.0491
  422loPI   C1A 6743  14.203   7.498  10.299 -0.2017  0.2107  0.0798
  422loPI   C2A 6744  14.152   7.413   9.886 -0.2872 -0.1918  0.3033
  422loPI   C3A 6745  14.146   7.466   9.454  0.3585 -0.4412 -0.1399
  422loPI   C4A 6746  14.175   7.398   9.022  0.0304  0.0086 -0.0954
  422loPI   C5A 6747  14.261   7.515   8.514 -0.0940 -0.0508  0.5017
  422loPI   C6A 6748  14.285   7.894   8.366 -0.1122  0.0016 -0.1296
  422loPI   C1B 6749  13.846   7.149  10.168  0.0269 -0.2956  0.1912
  422loPI   C2B 6750  13.762   7.078   9.658 -0.0924 -0.1524 -0.2824
  422loPI   C3B 6751  13.760   7.006   9.148 -0.3508  0.1852 -0.2935
  422loPI   C4B 6752  13.763   6.961   8.701  0.0646 -0.1552 -0.1457
  423loPI    C1 6753   7.931  10.436  11.102 -0.0294  0.1014  0.1758
  423loPI    C2 6754   7.992  10.093  11.298 -0.1447  0.0089  0.0520
  423loPI    C3 6755   7.824  10.403  11.486 -0.0518 -0.0059  0.1607
  423loPI   PO4 6756   7.945  10.281  10.810 -0.2249 -0.0483 -0.2555
  423loPI   GL1 6757   7.707   9.977  10.529 -0.2943  0.0976 -0.1597
  423loPI   GL2 6758   7.475   9.724  10.531  0.0877  0.1589  0.2258
  423loPI   C1A 6759   7.733  10.022  10.167 -0.2034  0.0300  0.2249
  423loPI   C2A 6760   7.634   9.969   9.697  0.1348 -0.3424  0.0860
  423loPI   C3A 6761   7.580   9.928   9.287  0.3007  0.0277 -0.4236
  423loPI   C4A 6762   7.408   9.888   8.801  0.1087  0.3240  0.3118
  423loPI   C5A 6763   7.358   9.728   8.409  0.1704 -0.2358 -0.1115
  423loPI   C6A 6764   7.406   9.770   8.024  0.0143 -0.5464  0.3975
  423loPI   C1B 6765   7.539   9.561  10.064 -0.2023  0.0907  0.1130
  423loPI   C2B 6766   7.742   9.476   9.659 -0.0379 -0.0706 -0.1121
  423loPI   C3B 6767   7.619   9.311   9.296  0.0161 -0.4153 -0.0978
  423loPI   C4B 6768   7.535   9.264   8.757 -0.0979 -0.0484 -0.1008
  424loPI    C1 6769   1.524   0.329  11.592  0.0557 -0.0587  0.0797
  424loPI    C2 6770   1.922   0.332  11.551  0.0525  0.0435  0.0535
  424loPI    C3 6771   1.759   0.277  11.912  0.0899 -0.0369  0.0582
  424loPI   PO4 6772   1.479   0.353  11.338 -0.1014  0.3497  0.0233
  424loPI   GL1 6773   1.429   0.285  10.865 -0.1010 -0.2250  0.0980
  424loPI   GL2 6774   1.173   0.090  10.898  0.0538  0.3422 -0.2825
  424loPI   C1A 6775   1.595   0.651  10.570 -0.3721 -0.1517 -0.1778
  424loPI   C2A 6776   1.671   0.716  10.167  0.0004 -0.0847  0.0229
  424loPI   C3A 6777   1.668   0.706   9.732  0.0208  0.1399  0.2329
  424loPI   C4A 6778   1.728   0.627   9.306  0.2914  0.0358  0.2450
  424loPI   C5A 6779   1.718   0.465   8.934  0.0564 -0.0743 -0.0972
  424loPI   C6A 6780   1.310   0.309   8.690  0.4516 -0.4936 -0.0185
  424loPI   C1B 6781   1.213   0.084  10.420 -0.0841  0.4021 -0.3470
  424loPI   C2B 6782   1.317   0.350  10.094  0.0407  0.0125  0.2888
  424loPI   C3B 6783   1.331   0.266   9.593 -0.0724 -0.2007  0.2834
  424loPI   C4B 6784   1.263   0.181   9.181  0.2744 -0.1274  0.0968
  425loPI    C1 6785   0.947   8.657  11.126 -0.1947 -0.2295 -0.0576
  425loPI    C2 6786   0.638   8.420  11.217 -0.1493 -0.1828  0.2289
  425loPI    C3 6787   0.651   8.794  11.357  0.0610 -0.2010  0.2615
  425loPI   PO4 6788   0.973   8.533  10.867  0.0363  0.2855 -0.1021
  425loPI   GL1 6789   0.816   8.328  10.527  0.0901 -0.0212 -0.1233
  425loPI   GL2 6790   0.882   7.990  10.378 -0.2826 -0.1883 -0.0404
  425loPI   C1A 6791   0.801   8.420  10.095 -0.3664 -0.2617  0.1296
  425loPI   C2A 6792   0.835   8.499   9.701  0.1438 -0.3768  0.0976
  425loPI   C3A 6793   0.804   8.414   9.318 -0.1796  0.1170  0.0845
  425loPI   C4A 6794   0.798   8.435   8.938 -0.0562 -0.1360 -0.0873
  425loPI   C5A 6795   0.661   8.533   8.519 -0.0222 -0.2542  0.1142
  425loPI   C6A 6796   0.421   8.148   8.232  0.0515 -0.3259  0.1057
  425loPI   C1B 6797   0.930   7.959   9.947 -0.3779 -0.0706 -0.1863
  425loPI   C2B 6798   0.992   7.994   9.530  0.0787 -0.0283  0.0903
  425loPI   C3B 6799   0.999   7.941   9.075 -0.2354 -0.2493  0.1275
  425loPI   C4B 6800   0.945   8.015   8.606  0.0982  0.5117  0.3091
  426loPI    C1 6801  17.304   0.150  10.781  0.1039 -0.3505  0.0063
  426loPI    C2 6802  17.384   0.125  11.172 -0.0363 -0.0659  0.0558
  426loPI    C3 6803  17.007   0.089  11.043  0.0079 -0.1460 -0.0528
  426loPI   PO4 6804  17.498  -0.031  10.613  0.1058  0.1583  0.0517
  426loPI   GL1 6805  17.360  -0.016  10.259  0.0519 -0.0148  0.0580
  426loPI   GL2 6806  17.159  -0.215  10.055 -0.0215 -0.1428  0.0261
  426loPI   C1A 6807  17.642   0.159  10.034  0.1575 -0.3413  0.3806
  426loPI   C2A 6808  17.694   0.278   9.659  0.2361 -0.1243  0.0992
  426loPI   C3A 6809  17.681   0.199   9.250 -0.2804  0.0859 -0.0406
  426loPI   C4A 6810  17.712   0.152   8.829  0.0868  0.1039 -0.1519
  426loPI   C5A 6811  17.762   0.108   8.388 -0.5164 -0.0564 -0.2740
  426loPI   C6A 6812  17.848  -0.085   7.978 -0.1718  0.1508 -0.0251
  426loPI   C1B 6813  17.366  -0.066   9.708 -0.0090  0.0761 -0.1200
  426loPI   C2B 6814  17.356  -0.162   9.250  0.1667 -0.0938 -0.1399
  426loPI   C3B 6815  17.315  -0.182   8.822  0.0500 -0.0924  0.0152
  426loPI   C4B 6816  17.461  -0.294   8.304 -0.0404  0.0430  0.1201
  427loPI    C1 6817  16.560   4.422  11.486 -0.0806 -0.0551  0.1488
  427loPI    C2 6818  16.236   4.436  11.720 -0.0366 -0.1955  0.2192
  427loPI    C3 6819  16.426   4.088  11.662 -0.0422 -0.1602 -0.0194
  427loPI   PO4 6820  16.559   4.564  11.266  0.0033  0.0024  0.1080
  427loPI   GL1 6821  16.685   4.555  10.845 -0.3764  0.2714  0.0929
  427loPI   GL2 6822  16.908   4.459  10.704 -0.0743 -0.2440  0.0115
  427loPI   C1A 6823  16.579   4.776  10.412  0.0998 -0.0131 -0.1415
  427loPI   C2A 6824  16.711   4.859  10.053 -0.4740 -0.3900  0.2548
  427loPI   C3A 6825  16.566   4.831   9.655  0.3185 -0.0815  0.2142
  427loPI   C4A 6826  16.609   4.830   9.359 -0.1839  0.0970  0.0576
  427loPI   C5A 6827  16.612   4.790   8.889  0.3278 -0.2988  0.0258
  427loPI   C6A 6828  16.539   4.964   8.581  0.1115  0.2399 -0.1236
  427loPI   C1B 6829  16.874   4.311  10.306  0.1280 -0.0513  0.1906
  427loPI   C2B 6830  16.780   4.315   9.840  0.0999  0.1359 -0.2705
  427loPI   C3B 6831  16.664   4.309   9.453  0.0274  0.1905  0.0460
  427loPI   C4B 6832  16.714   4.210   8.964  0.2297  0.1159  0.0458
  428loPI    C1 6833  10.446  14.281  10.256  0.2195 -0.1139 -0.0326
  428loPI    C2 6834  10.217  14.520  10.480 -0.0575 -0.1331 -0.2892
  428loPI    C3 6835  10.602  14.611  10.420 -0.0320 -0.0206  0.0231
  428loPI   PO4 6836  10.325  14.292  10.046 -0.0818  0.1527 -0.3131
  428loPI   GL1 6837  10.254  14.638   9.742  0.0473  0.0406  0.2600
  428loPI   GL2 6838  10.229  14.992   9.622  0.1231 -0.2336  0.3616
  428loPI   C1A 6839  10.503  14.526   9.352 -0.0224 -0.1869  0.0277
  428loPI   C2A 6840  10.419  14.482   8.892  0.0203  0.2532 -0.0633
  428loPI   C3A 6841  10.290  14.679   8.467 -0.0751  0.2889 -0.3085
  428loPI   C4A 6842  10.344  14.834   8.112  0.0458 -0.1181 -0.0046
  428loPI   C5A 6843  10.179  14.704   7.655  0.0824  0.0642 -0.0265
  428loPI   C6A 6844  10.279  14.426   7.289 -0.1533  0.1905  0.0796
  428loPI   C1B 6845  10.166  15.048   9.254  0.1868  0.3931  0.0949
  428loPI   C2B 6846  10.181  15.100   8.840 -0.0226 -0.2190 -0.2089
  428loPI   C3B 6847  10.052  15.131   8.518  0.0130 -0.0938  0.0383
  428loPI   C4B 6848  10.040  15.267   8.203  0.0193 -0.1767  0.1875
  429loPI    C1 6849   0.706   2.706  11.459 -0.2654  0.0075  0.0595
  429loPI    C2 6850   0.626   2.405  11.710  0.2774 -0.0562  0.1676
  429loPI    C3 6851   0.747   2.758  11.853  0.2945  0.0028  0.0094
  429loPI   PO4 6852   0.926   2.725  11.255 -0.1583  0.0303  0.2671
  429loPI   GL1 6853   0.997   2.586  10.839  0.0084 -0.0354 -0.1653
  429loPI   GL2 6854   0.710   2.627  10.835  0.0532 -0.0995 -0.2404
  429loPI   C1A 6855   1.205   2.572  10.574  0.1719 -0.2855 -0.3171
  429loPI   C2A 6856   1.273   2.589  10.184  0.0162  0.0364 -0.2847
  429loPI   C3A 6857   1.185   2.652   9.751  0.4122  0.1725 -0.0049
  429loPI   C4A 6858   1.125   2.719   9.342  0.0748  0.1771 -0.0147
  429loPI   C5A 6859   1.112   2.754   8.909 -0.1446  0.0215 -0.0174
  429loPI   C6A 6860   1.265   2.895   8.549 -0.0582  0.1968 -0.1105
  429loPI   C1B 6861   0.737   2.808  10.462 -0.1093 -0.0156 -0.0668
  429loPI   C2B 6862   0.813   2.859  10.011 -0.0374  0.1158 -0.0758
  429loPI   C3B 6863   0.670   2.834   9.584  0.0434 -0.1062  0.1283
  429loPI   C4B 6864   0.585   2.827   9.111 -0.1373 -0.3686  0.1703
  430loPI    C1 6865  13.240  12.947  10.455 -0.0410 -0.0076  0.0344
  430loPI    C2 6866  12.977  13.018  10.747 -0.0313 -0.1555  0.0800
  430loPI    C3 6867  13.302  12.797  10.821 -0.1031 -0.3172 -0.0788
  430loPI   PO4 6868  13.176  12.917  10.233  0.2108 -0.0749  0.0540
  430loPI   GL1 6869  13.398  12.792   9.925  0.1701  0.2045 -0.0618
  430loPI   GL2 6870  13.537  13.039   9.864 -0.0695  0.0278 -0.0261
  430loPI   C1A 6871  13.549  12.408   9.886 -0.0157 -0.0808 -0.0080
  430loPI   C2A 6872  13.837  12.293   9.634 -0.1472  0.1138  0.1257
  430loPI   C3A 6873  13.864  12.131   9.207  0.0153  0.2076 -0.1134
  430loPI   C4A 6874  13.962  12.079   8.764  0.2420  0.1328 -0.0849
  430loPI   C5A 6875  13.998  12.099   8.313  0.3248 -0.1303  0.3457
  430loPI   C6A 6876  13.784  11.812   7.989 -0.1554 -0.0723  0.1072
  430loPI   C1B 6877  13.702  12.831   9.529 -0.2710  0.2564  0.0143
  430loPI   C2B 6878  13.686  13.057   9.174 -0.2869  0.1906  0.0157
  430loPI   C3B 6879  13.995  13.129   8.797  0.2133 -0.2674 -0.1448
  430loPI   C4B 6880  14.267  13.168   8.396 -0.1429 -0.1324 -0.0400
  431loPI    C1 6881  11.668   9.356  10.682  0.1299 -0.0636  0.0866
  431loPI    C2 6882  11.806   9.725  10.613  0.2516 -0.0841  0.2171
  431loPI    C3 6883  11.947   9.416  10.401  0.0216 -0.0327 -0.0153
  431loPI   PO4 6884  11.428   9.373  10.601  0.0550  0.2399 -0.0115
  431loPI   GL1 6885  11.413   9.492  10.216  0.0773  0.1052 -0.4675
  431loPI   GL2 6886  11.233   9.808  10.066 -0.0336  0.3063 -0.0723
  431loPI   C1A 6887  11.728   9.516   9.917  0.1052  0.0348 -0.0642
  431loPI   C2A 6888  11.678   9.427   9.477  0.0970 -0.0677  0.0834
  431loPI   C3A 6889  11.418   9.199   9.208  0.3720 -0.3379  0.3105
  431loPI   C4A 6890  11.285   9.164   8.772 -0.1689  0.1027  0.1068
  431loPI   C5A 6891  11.244   9.074   8.266 -0.2228 -0.0161  0.3879
  431loPI   C6A 6892  11.262   9.160   7.839  0.0521  0.2809 -0.1181
  431loPI   C1B 6893  11.273   9.730   9.649  0.0668 -0.0713  0.0822
  431loPI   C2B 6894  11.250   9.688   9.185  0.2055 -0.3496  0.0551
  431loPI   C3B 6895  11.202   9.660   8.714  0.3635 -0.0422 -0.4147
  431loPI   C4B 6896  11.246   9.593   8.245 -0.2398 -0.3276 -0.0840
  432loPI    C1 6897   1.669   0.796  11.711  0.0297 -0.1421 -0.0806
  432loPI    C2 6898   2.045   0.795  11.847  0.0123 -0.0793 -0.0316
  432loPI    C3 6899   1.740   0.774  12.104 -0.0221  0.1137 -0.0557
  432loPI   PO4 6900   1.692   0.792  11.425 -0.1823  0.2599 -0.0121
  432loPI   GL1 6901   1.879   1.012  11.069  0.1520  0.1314  0.0988
  432loPI   GL2 6902   2.116   0.921  10.851 -0.1471 -0.0942 -0.0513
  432loPI   C1A 6903   1.668   1.122  10.699  0.5520 -0.0248 -0.2257
  432loPI   C2A 6904   1.698   1.177  10.265  0.0680 -0.3939  0.3741
  432loPI   C3A 6905   1.496   1.160   9.801 -0.0673  0.0574 -0.2719
  432loPI   C4A 6906   1.465   1.161   9.442  0.0332  0.0640 -0.0081
  432loPI   C5A 6907   1.664   1.040   9.018  0.3550  0.2171 -0.0855
  432loPI   C6A 6908   1.773   0.900   8.596 -0.1159  0.0688 -0.1363
  432loPI   C1B 6909   2.117   0.993  10.392  0.2148 -0.0746 -0.2165
  432loPI   C2B 6910   2.141   0.975   9.946 -0.0960 -0.1066  0.1399
  432loPI   C3B 6911   2.125   0.963   9.437  0.3935 -0.1646  0.0697
  432loPI   C4B 6912   2.139   0.915   8.980 -0.1134  0.2660  0.1899
  433loPI    C1 6913  13.711   7.907  11.264  0.2351  0.1600 -0.2089
  433loPI    C2 6914  13.974   8.138  11.458  0.0837  0.1895 -0.0358
  433loPI    C3 6915  13.593   8.254  11.424  0.0144 -0.0171  0.0207
  433loPI   PO4 6916  13.881   7.788  11.091 -0.3639  0.0904 -0.1223
  433loPI   GL1 6917  13.853   7.846  10.597  0.1610 -0.0017  0.1505
  433loPI   GL2 6918  14.140   8.045  10.635  0.2811  0.0270 -0.0873
  433loPI   C1A 6919  13.739   7.638  10.238  0.0327 -0.0730  0.0894
  433loPI   C2A 6920  13.648   7.642   9.814  0.0772 -0.0529 -0.0336
  433loPI   C3A 6921  13.636   7.442   9.359 -0.1245 -0.0810  0.0533
  433loPI   C4A 6922  13.694   7.455   8.865  0.3300  0.0886 -0.0697
  433loPI   C5A 6923  13.295   7.165   8.577 -0.0714 -0.1264 -0.4138
  433loPI   C6A 6924  12.985   6.868   8.721 -0.1895 -0.0444 -0.1127
  433loPI   C1B 6925  14.025   7.983  10.158 -0.2957  0.2738 -0.0356
  433loPI   C2B 6926  14.136   7.996   9.773  0.0064  0.0333 -0.1660
  433loPI   C3B 6927  13.995   7.940   9.348 -0.2501  0.3601  0.0675
  433loPI   C4B 6928  14.053   7.937   8.929  0.0717  0.5795  0.2026
  434loPI    C1 6929   9.584   4.000  11.652  0.1473  0.0106  0.1317
  434loPI    C2 6930   9.537   3.635  11.808  0.1163  0.0068  0.1134
  434loPI    C3 6931   9.461   3.959  12.030  0.0091  0.0008  0.0863
  434loPI   PO4 6932   9.499   3.943  11.413 -0.0052  0.0341 -0.3948
  434loPI   GL1 6933   9.478   3.851  11.007 -0.2584 -0.0842  0.1199
  434loPI   GL2 6934   9.695   3.586  10.982  0.2514  0.6012  0.1304
  434loPI   C1A 6935   9.748   4.006  10.714  0.1205 -0.1611  0.0458
  434loPI   C2A 6936   9.885   3.962  10.369  0.1252 -0.1884  0.0292
  434loPI   C3A 6937   9.885   3.952   9.980  0.0604 -0.0033 -0.2130
  434loPI   C4A 6938   9.813   4.021   9.565 -0.0763  0.1318 -0.1642
  434loPI   C5A 6939   9.689   3.957   9.166  0.1022  0.0216 -0.3219
  434loPI   C6A 6940   9.786   4.103   8.781  0.0719  0.0180  0.3376
  434loPI   C1B 6941   9.845   3.500  10.563 -0.0736 -0.2419  0.3732
  434loPI   C2B 6942   9.951   3.432  10.128  0.0334  0.2157 -0.0646
  434loPI   C3B 6943  10.039   3.576   9.729  0.2012  0.2394  0.2120
  434loPI   C4B 6944   9.892   3.511   9.309 -0.1679  0.1852  0.1308
  435loPI    C1 6945   2.905  17.252  10.985  0.0108  0.0453 -0.1809
  435loPI    C2 6946   2.942  16.893  11.159 -0.0594  0.0157 -0.2261
  435loPI    C3 6947   3.179  17.196  11.271 -0.0399 -0.0289 -0.1464
  435loPI   PO4 6948   2.911  17.242  10.796  0.0373  0.0540 -0.2061
  435loPI   GL1 6949   3.173  17.401  10.462  0.1306  0.1046 -0.0094
  435loPI   GL2 6950   3.277  17.160  10.398 -0.1809 -0.0495  0.1078
  435loPI   C1A 6951   3.210  17.413  10.020  0.0805  0.2335  0.0846
  435loPI   C2A 6952   3.312  17.389   9.582 -0.2898 -0.1846  0.1236
  435loPI   C3A 6953   3.382  17.530   9.153 -0.1554 -0.0463 -0.2936
  435loPI   C4A 6954   3.474  17.540   8.707  0.0791  0.0501 -0.2102
  435loPI   C5A 6955   3.254  17.469   8.370  0.0284 -0.0959  0.0170
  435loPI   C6A 6956   2.893  17.230   8.426 -0.0443 -0.1745 -0.0271
  435loPI   C1B 6957   2.981  16.988  10.107 -0.0745  0.2483 -0.0929
  435loPI   C2B 6958   3.029  16.941   9.726 -0.0537  0.0544 -0.0452
  435loPI   C3B 6959   2.958  17.154   9.298  0.2074 -0.0964 -0.2955
  435loPI   C4B 6960   2.928  17.005   8.852  0.2824 -0.0292 -0.1886
  436loPI    C1 6961   6.006   1.096  11.344 -0.0588 -0.1230 -0.0194
  436loPI    C2 6962   6.226   1.091  11.678 -0.1597 -0.1847  0.0468
  436loPI    C3 6963   5.838   1.184  11.696 -0.0896  0.1514 -0.1004
  436loPI   PO4 6964   6.173   1.110  11.137 -0.1280 -0.4523  0.0006
  436loPI   GL1 6965   6.085   1.146  10.739 -0.1465 -0.0397 -0.2229
  436loPI   GL2 6966   5.791   0.950  10.716  0.0141  0.2954  0.0664
  436loPI   C1A 6967   6.173   1.257  10.322  0.3139 -0.1089 -0.2420
  436loPI   C2A 6968   6.263   1.250   9.913  0.1961 -0.0432 -0.3653
  436loPI   C3A 6969   6.240   1.220   9.561  0.0764 -0.0126  0.0678
  436loPI   C4A 6970   6.199   1.333   9.054  0.0274  0.0469 -0.0278
  436loPI   C5A 6971   6.239   1.551   8.730  0.0545 -0.0691 -0.0783
  436loPI   C6A 6972   6.391   2.005   8.630 -0.0960  0.0763  0.1997
  436loPI   C1B 6973   5.750   0.837  10.325  0.0849 -0.0334  0.2801
  436loPI   C2B 6974   5.899   0.783   9.927 -0.1095 -0.1968 -0.1613
  436loPI   C3B 6975   5.837   0.833   9.529 -0.0143  0.1810 -0.1453
  436loPI   C4B 6976   5.821   0.974   9.026  0.0066  0.2132  0.3637
  437loPI    C1 6977  14.806   0.597  11.195 -0.0684 -0.0299 -0.0395
  437loPI    C2 6978  14.600   0.270  11.093 -0.0362 -0.0497 -0.0414
  437loPI    C3 6979  14.810   0.276  11.433  0.0071 -0.0505 -0.0680
  437loPI   PO4 6980  14.841   0.727  10.943  0.1572  0.0456 -0.2532
  437loPI   GL1 6981  14.809   0.893  10.552 -0.1335  0.2123  0.0175
  437loPI   GL2 6982  14.507   0.963  10.540  0.1699 -0.2840 -0.1417
  437loPI   C1A 6983  15.082   1.030  10.266  0.0653  0.0952  0.0628
  437loPI   C2A 6984  15.154   0.896   9.926  0.0841  0.0169  0.0235
  437loPI   C3A 6985  15.138   0.986   9.408  0.0614 -0.0433 -0.0573
  437loPI   C4A 6986  15.173   0.965   9.064 -0.0780 -0.0584  0.1738
  437loPI   C5A 6987  15.182   1.165   8.649  0.1458 -0.1212 -0.0913
  437loPI   C6A 6988  15.611   1.393   8.457 -0.1986  0.0102  0.3548
  437loPI   C1B 6989  14.623   1.071  10.029 -0.1018 -0.3715 -0.1005
  437loPI   C2B 6990  14.716   1.064   9.615  0.0006 -0.0526  0.0017
  437loPI   C3B 6991  14.663   1.128   9.237 -0.0640 -0.2119  0.2224
  437loPI   C4B 6992  14.701   1.163   8.815  0.1977 -0.3242  0.0352
  438loPI    C1 6993  10.721  15.085  10.423  0.1514  0.5852 -0.0389
  438loPI    C2 6994  10.405  15.326  10.376 -0.1423  0.2182  0.0107
  438loPI    C3 6995  10.387  15.020  10.634  0.0866 -0.0834 -0.3209
  438loPI   PO4 6996  10.893  15.219  10.227  0.0506 -0.1318 -0.0197
  438loPI   GL1 6997  11.006  15.366   9.831  0.2796 -0.2442 -0.2274
  438loPI   GL2 6998  10.684  15.293   9.818  0.2072  0.0208  0.1428
  438loPI   C1A 6999  11.196  15.301   9.424 -0.0457 -0.1730  0.2650
  438loPI   C2A 7000  11.182  15.373   9.039  0.0815 -0.0085  0.0230
  438loPI   C3A 7001  11.155  15.471   8.650 -0.2899  0.0246  0.0684
  438loPI   C4A 7002  10.948  15.382   8.275 -0.2545  0.1360  0.0139
  438loPI   C5A 7003  10.645  15.338   7.930 -0.1644 -0.0444 -0.0047
  438loPI   C6A 7004  10.582  14.983   7.731  0.0544 -0.0500  0.0854
  438loPI   C1B 7005  10.560  15.406   9.463  0.0269  0.0030 -0.0022
  438loPI   C2B 7006  10.288  15.499   9.055 -0.0873 -0.1781 -0.2671
  438loPI   C3B 7007  10.072  15.606   8.776  0.0580  0.0184 -0.1704
  438loPI   C4B 7008   9.847  15.635   8.494  0.1513 -0.0864 -0.0872
  439loPI    C1 7009  10.762  12.464  10.232 -0.1731 -0.0127  0.0811
  439loPI    C2 7010  10.857  12.665  10.565  0.1863 -0.0246 -0.0100
  439loPI    C3 7011  10.729  12.287  10.589 -0.1124  0.0824  0.1343
  439loPI   PO4 7012  10.521  12.665  10.120  0.3357 -0.2335  0.2615
  439loPI   GL1 7013  10.492  12.883   9.781  0.0493  0.1703 -0.2434
  439loPI   GL2 7014  10.770  13.113   9.646 -0.0444 -0.0310 -0.1549
  439loPI   C1A 7015  10.512  12.945   9.252  0.0493  0.1043 -0.0715
  439loPI   C2A 7016  10.436  12.825   8.882 -0.1913 -0.3137  0.0059
  439loPI   C3A 7017  10.364  12.640   8.519  0.2884 -0.2176 -0.2218
  439loPI   C4A 7018  10.352  12.410   8.057  0.0588  0.0967 -0.0535
  439loPI   C5A 7019  10.273  11.940   8.037  0.0953 -0.3757  0.2423
  439loPI   C6A 7020  10.330  11.506   7.932 -0.0845  0.2018  0.0471
  439loPI   C1B 7021  11.026  13.059   9.249  0.0051  0.4655 -0.1207
  439loPI   C2B 7022  10.895  13.021   8.914  0.0855  0.2876 -0.1281
  439loPI   C3B 7023  10.643  13.032   8.493 -0.0831  0.0365  0.0811
  439loPI   C4B 7024  10.604  12.941   8.073  0.3370  0.0081  0.0492
  440loPI    C1 7025   9.597   1.741  11.029 -0.0854 -0.0434  0.0362
  440loPI    C2 7026   9.546   1.366  11.158 -0.1131 -0.0655 -0.0383
  440loPI    C3 7027   9.777   1.619  11.365 -0.1914 -0.0878  0.0774
  440loPI   PO4 7028   9.553   1.716  10.792  0.0850 -0.0765  0.0531
  440loPI   GL1 7029   9.272   1.899  10.535 -0.1987  0.1340 -0.2028
  440loPI   GL2 7030   9.349   2.275  10.335  0.1235  0.3746 -0.3008
  440loPI   C1A 7031   9.325   1.824  10.065  0.4267 -0.2148  0.1722
  440loPI   C2A 7032   9.410   1.886   9.577 -0.1627 -0.1245 -0.1186
  440loPI   C3A 7033   9.403   1.761   9.157  0.1606 -0.0696 -0.0130
  440loPI   C4A 7034   9.373   1.665   8.640 -0.1018 -0.0869 -0.0135
  440loPI   C5A 7035   9.720   1.602   8.377 -0.0288  0.2416  0.0547
  440loPI   C6A 7036   9.967   1.235   8.154 -0.0641  0.1293  0.2001
  440loPI   C1B 7037   9.294   2.325   9.851 -0.0256 -0.1959  0.0709
  440loPI   C2B 7038   9.180   2.310   9.465 -0.1857 -0.0289 -0.0380
  440loPI   C3B 7039   9.303   2.272   9.082 -0.0318 -0.1008  0.3141
  440loPI   C4B 7040   9.170   2.273   8.682  0.3274 -0.3784  0.0470
  441loPI    C1 7041   6.384   1.604  11.579 -0.0430  0.0429  0.0423
  441loPI    C2 7042   6.432   1.901  11.843  0.2385 -0.0424  0.0912
  441loPI    C3 7043   6.527   1.526  11.944 -0.2820 -0.1819  0.0900
  441loPI   PO4 7044   6.409   1.791  11.334 -0.0515  0.2030 -0.0377
  441loPI   GL1 7045   6.173   2.077  10.955  0.0316 -0.0909  0.5282
  441loPI   GL2 7046   6.471   2.022  10.734 -0.0191 -0.1745 -0.0741
  441loPI   C1A 7047   6.070   2.277  10.454 -0.3630  0.3188  0.0115
  441loPI   C2A 7048   5.940   2.227  10.094  0.0316  0.0033  0.2016
  441loPI   C3A 7049   5.892   2.259   9.710 -0.0811  0.2038 -0.1383
  441loPI   C4A 7050   5.995   2.271   9.302 -0.1536 -0.1022 -0.0524
  441loPI   C5A 7051   5.907   2.211   8.859 -0.0510 -0.1914  0.1436
  441loPI   C6A 7052   5.731   2.366   8.558  0.0401 -0.0794  0.0431
  441loPI   C1B 7053   6.515   2.140  10.359  0.1793  0.0670  0.2097
  441loPI   C2B 7054   6.455   2.202   9.921 -0.3774  0.0292  0.1372
  441loPI   C3B 7055   6.415   2.103   9.474 -0.2630  0.3565  0.0140
  441loPI   C4B 7056   6.634   2.091   9.130 -0.0934 -0.1023 -0.0212
  442loPI    C1 7057   5.594   1.927  11.272 -0.3351  0.1145 -0.0101
  442loPI    C2 7058   5.480   2.142  11.589  0.0445  0.2004  0.0734
  442loPI    C3 7059   5.670   1.794  11.642  0.0850  0.2018 -0.0601
  442loPI   PO4 7060   5.695   2.146  11.100  0.1872 -0.1447 -0.0221
  442loPI   GL1 7061   5.685   2.375  10.731 -0.1148  0.1908 -0.0377
  442loPI   GL2 7062   5.753   2.767  10.758 -0.0219 -0.0187  0.3626
  442loPI   C1A 7063   5.516   2.463  10.314 -0.0121  0.2766  0.3249
  442loPI   C2A 7064   5.462   2.356   9.829  0.0880  0.0583 -0.0797
  442loPI   C3A 7065   5.470   2.393   9.390  0.0155  0.3876 -0.3355
  442loPI   C4A 7066   5.463   2.458   8.998 -0.1104  0.0205 -0.1047
  442loPI   C5A 7067   5.384   2.706   8.575  0.0001  0.1897 -0.0045
  442loPI   C6A 7068   5.621   2.999   8.377  0.0217  0.1960  0.2051
  442loPI   C1B 7069   5.891   2.775  10.236 -0.0402 -0.2151  0.2304
  442loPI   C2B 7070   5.930   2.707   9.767 -0.0161 -0.1595 -0.1723
  442loPI   C3B 7071   5.897   2.752   9.381 -0.0771  0.0252 -0.0377
  442loPI   C4B 7072   6.025   2.817   9.046  0.0044 -0.2916 -0.1420
  443loPI    C1 7073  17.680   2.187  11.306 -0.2624  0.1192  0.0727
  443loPI    C2 7074  17.902   2.440  11.522 -0.1005  0.0863 -0.0528
  443loPI    C3 7075  17.515   2.389  11.609 -0.0823  0.2145  0.1089
  443loPI   PO4 7076  17.801   2.249  11.074 -0.0054 -0.1006  0.1099
  443loPI   GL1 7077  17.956   2.136  10.619 -0.1040 -0.1794 -0.1070
  443loPI   GL2 7078  18.147   2.251  10.732  0.2227  0.1976  0.1891
  443loPI   C1A 7079  18.204   1.967  10.255  0.0763 -0.1388  0.0703
  443loPI   C2A 7080  18.053   1.913   9.819  0.0498  0.2276 -0.1716
  443loPI   C3A 7081  18.227   1.977   9.481 -0.2129  0.0890  0.2725
  443loPI   C4A 7082  18.261   1.918   9.076 -0.0088 -0.0681  0.0926
  443loPI   C5A 7083  18.273   1.702   8.652  0.2099 -0.2381 -0.1676
  443loPI   C6A 7084  17.945   1.449   8.570  0.1033  0.1548 -0.3067
  443loPI   C1B 7085  18.145   2.459  10.307  0.0429 -0.1816 -0.1398
  443loPI   C2B 7086  18.048   2.409   9.841 -0.1742  0.0007  0.0215
  443loPI   C3B 7087  18.070   2.416   9.364 -0.0216 -0.2579  0.0928
  443loPI   C4B 7088  17.941   2.468   8.974 -0.2585  0.0204  0.0930
  444loPI    C1 7089  14.344  12.488  10.758  0.1300  0.0580 -0.1354
  444loPI    C2 7090  14.198  12.280  11.066  0.0585  0.4049  0.0704
  444loPI    C3 7091  14.510  12.138  10.859 -0.2165 -0.0786 -0.0277
  444loPI   PO4 7092  14.097  12.546  10.608 -0.1188  0.1586  0.1788
  444loPI   GL1 7093  14.184  12.587  10.263  0.0779 -0.0263 -0.1611
  444loPI   GL2 7094  13.889  12.705  10.105 -0.1723  0.0042  0.1515
  444loPI   C1A 7095  14.260  12.248   9.878 -0.2370 -0.1203 -0.0803
  444loPI   C2A 7096  14.388  12.133   9.534 -0.1115  0.1435  0.4083
  444loPI   C3A 7097  14.420  12.019   9.026 -0.2997  0.5373 -0.1022
  444loPI   C4A 7098  14.383  11.842   8.547 -0.1711 -0.3210 -0.2651
  444loPI   C5A 7099  14.726  11.624   8.250  0.0706  0.0322 -0.0601
  444loPI   C6A 7100  15.009  11.282   8.130  0.1429 -0.1728  0.0727
  444loPI   C1B 7101  14.147  12.724   9.681  0.0564  0.1256 -0.0779
  444loPI   C2B 7102  14.187  12.988   9.309  0.2176 -0.2054  0.0051
  444loPI   C3B 7103  14.363  12.867   8.900 -0.4564 -0.0005  0.0741
  444loPI   C4B 7104  14.598  12.722   8.523  0.2183 -0.1194  0.3041
  445loPI    C1 7105  13.122   0.224  10.861 -0.0331 -0.2032  0.0232
  445loPI    C2 7106  13.425   0.349  11.091 -0.0743  0.0270 -0.0450
  445loPI    C3 7107  13.128   0.133  11.250 -0.1577  0.2764  0.1436
  445loPI   PO4 7108  13.198   0.191  10.558 -0.0791  0.0486  0.2752
  445loPI   GL1 7109  13.477   0.322  10.304  0.1648  0.1560  0.1611
  445loPI   GL2 7110  13.391   0.045  10.109  0.2023  0.1221  0.0222
  445loPI   C1A 7111  13.405   0.562   9.930  0.0258 -0.2480  0.0664
  445loPI   C2A 7112  13.295   0.557   9.559 -0.0692  0.0624  0.0608
  445loPI   C3A 7113  13.458   0.590   9.208 -0.2740 -0.3723  0.3757
  445loPI   C4A 7114  13.480   0.585   8.707 -0.1566 -0.0077 -0.2152
  445loPI   C5A 7115  13.369   0.475   8.275  0.0340 -0.2602  0.2469
  445loPI   C6A 7116  13.175   0.549   7.890  0.2548  0.0164 -0.1955
  445loPI   C1B 7117  13.513   0.133   9.677  0.4070  0.0131 -0.0217
  445loPI   C2B 7118  13.535   0.087   9.230  0.3288 -0.1377  0.0109
  445loPI   C3B 7119  13.559   0.116   8.832  0.0021  0.0200 -0.0961
  445loPI   C4B 7120  13.729   0.139   8.409  0.0587 -0.2401  0.1235
  446loPI    C1 7121   9.002  17.267  10.687  0.0295  0.3896  0.4646
  446loPI    C2 7122   9.172  16.933  10.827 -0.2204  0.0786  0.0497
  446loPI    C3 7123   8.832  17.067  10.989 -0.1480  0.1051  0.1819
  446loPI   PO4 7124   9.054  17.242  10.384 -0.2592  0.1367  0.4600
  446loPI   GL1 7125   9.308  17.208   9.954  0.0638  0.2094 -0.0940
  446loPI   GL2 7126   9.123  16.971   9.815 -0.1162  0.2523 -0.1040
  446loPI   C1A 7127   9.387  17.462   9.625  0.2779  0.0841  0.2444
  446loPI   C2A 7128   9.390  17.527   9.207 -0.2865  0.0782 -0.2372
  446loPI   C3A 7129   9.293  17.571   8.787  0.1007  0.3909  0.0367
  446loPI   C4A 7130   9.404  17.595   8.320 -0.0049  0.2097 -0.0477
  446loPI   C5A 7131   9.595  17.363   7.913 -0.0832  0.0407  0.1357
  446loPI   C6A 7132   9.881  17.275   7.679  0.1549 -0.2216 -0.0466
  446loPI   C1B 7133   9.024  17.150   9.410  0.0244 -0.0272  0.2061
  446loPI   C2B 7134   8.882  17.174   9.051  0.2171  0.1866  0.0342
  446loPI   C3B 7135   8.959  17.239   8.621 -0.1888  0.0499  0.0540
  446loPI   C4B 7136   8.967  17.409   8.243  0.0804  0.0192  0.1985
  447loPI    C1 7137   1.980  10.685  11.139 -0.2105  0.0476 -0.0154
  447loPI    C2 7138   1.768  10.358  11.228 -0.0884 -0.0428 -0.0539
  447loPI    C3 7139   1.660  10.713  11.377 -0.0125 -0.1571  0.2813
  447loPI   PO4 7140   2.037  10.638  10.855  0.2688  0.1609 -0.1902
  447loPI   GL1 7141   1.872  10.904  10.511  0.0040  0.3009  0.1902
  447loPI   GL2 7142   1.687  10.644  10.340 -0.1027  0.2291  0.1019
  447loPI   C1A 7143   1.971  11.012   9.997 -0.3442  0.0021  0.0514
  447loPI   C2A 7144   1.927  10.921   9.507 -0.1319  0.0829 -0.0889
  447loPI   C3A 7145   1.968  11.030   9.127  0.0201  0.0596  0.2467
  447loPI   C4A 7146   2.036  10.875   8.718  0.0870  0.0192 -0.1520
  447loPI   C5A 7147   2.017  10.619   8.309  0.0801 -0.1440 -0.4064
  447loPI   C6A 7148   2.253  10.720   7.947 -0.1746  0.2592  0.1254
  447loPI   C1B 7149   1.664  10.571   9.964  0.0133  0.1300 -0.1212
  447loPI   C2B 7150   1.584  10.528   9.531  0.0374  0.0652 -0.1599
  447loPI   C3B 7151   1.725  10.580   9.127  0.0316  0.0909 -0.0485
  447loPI   C4B 7152   1.745  10.468   8.697  0.0648  0.2137 -0.2138
  448loPI    C1 7153   8.149  13.109  10.249  0.0471  0.0068  0.0731
  448loPI    C2 7154   8.460  13.191  10.488  0.1011 -0.0211  0.0127
  448loPI    C3 7155   8.098  13.127  10.645  0.1417 -0.0646  0.0888
  448loPI   PO4 7156   8.117  13.270  10.053 -0.0667 -0.0205  0.1027
  448loPI   GL1 7157   7.894  13.385   9.645 -0.1840  0.1708 -0.0215
  448loPI   GL2 7158   8.146  13.541   9.612  0.2025 -0.1293 -0.1525
  448loPI   C1A 7159   7.635  13.300   9.327 -0.0878  0.1952  0.2095
  448loPI   C2A 7160   7.735  13.292   8.855 -0.0726  0.1597  0.0115
  448loPI   C3A 7161   7.924  13.221   8.517 -0.1715 -0.1414  0.0423
  448loPI   C4A 7162   7.915  13.171   8.056  0.1789  0.0584 -0.0899
  448loPI   C5A 7163   8.079  13.070   7.728 -0.2906 -0.1439 -0.1256
  448loPI   C6A 7164   8.223  13.322   7.372  0.0818  0.2058 -0.0835
  448loPI   C1B 7165   8.055  13.597   9.162 -0.1257  0.0289  0.2706
  448loPI   C2B 7166   8.090  13.619   8.742  0.1490 -0.1754  0.1145
  448loPI   C3B 7167   8.315  13.631   8.401 -0.1607 -0.2323 -0.2752
  448loPI   C4B 7168   8.316  13.414   8.011  0.2426 -0.2299  0.3247
  449loPI    C1 7169  10.854   3.754  11.533 -0.1011  0.0395  0.2802
  449loPI    C2 7170  10.828   3.368  11.434  0.0132  0.1077 -0.0275
  449loPI    C3 7171  10.650   3.501  11.767 -0.0834 -0.1953  0.0459
  449loPI   PO4 7172  10.943   3.884  11.293 -0.1200 -0.1759 -0.2395
  449loPI   GL1 7173  11.104   3.813  10.854  0.2065 -0.2595 -0.0080
  449loPI   GL2 7174  11.206   3.951  10.655 -0.0654 -0.0437 -0.0119
  449loPI   C1A 7175  10.847   3.711  10.410 -0.1415 -0.2470  0.0279
  449loPI   C2A 7176  10.899   3.701   9.980  0.0667  0.0497  0.0976
  449loPI   C3A 7177  10.897   3.736   9.535 -0.2761 -0.1581  0.0648
  449loPI   C4A 7178  10.748   3.736   9.116  0.0615  0.2951 -0.2819
  449loPI   C5A 7179  10.529   3.862   8.761  0.0309 -0.1678  0.3517
  449loPI   C6A 7180  10.279   4.223   8.605  0.1605 -0.2171  0.0359
  449loPI   C1B 7181  11.196   4.065  10.194  0.0610  0.1996  0.2128
  449loPI   C2B 7182  11.171   4.100   9.843  0.1865 -0.0631 -0.2747
  449loPI   C3B 7183  11.318   4.097   9.398 -0.0606  0.0726  0.0185
  449loPI   C4B 7184  11.304   4.285   9.004  0.2051 -0.0559  0.1742
  450loPI    C1 7185   3.357  14.742  11.057 -0.0340 -0.0729  0.0795
  450loPI    C2 7186   3.498  15.115  11.025 -0.0901 -0.0629 -0.0552
  450loPI    C3 7187   3.616  14.882  11.328  0.1152 -0.0107 -0.0936
  450loPI   PO4 7188   3.521  14.636  10.836 -0.0664 -0.2362 -0.2570
  450loPI   GL1 7189   3.492  14.542  10.497  0.2026 -0.1434  0.1457
  450loPI   GL2 7190   3.582  14.398  10.294  0.2077 -0.0230 -0.1029
  450loPI   C1A 7191   3.533  14.939  10.188  0.0852  0.0370 -0.0358
  450loPI   C2A 7192   3.452  15.041   9.747 -0.0298  0.0838 -0.2446
  450loPI   C3A 7193   3.448  14.950   9.213 -0.2946 -0.1844  0.1712
  450loPI   C4A 7194   3.402  14.953   8.708  0.1608  0.0143 -0.1356
  450loPI   C5A 7195   3.324  14.662   8.395 -0.1497 -0.0522 -0.1510
  450loPI   C6A 7196   3.225  14.297   8.405  0.0338  0.0341  0.0168
  450loPI   C1B 7197   3.674  14.487   9.942  0.1869  0.1271 -0.2501
  450loPI   C2B 7198   3.683  14.478   9.544  0.1228 -0.0019  0.0427
  450loPI   C3B 7199   3.557  14.452   9.168 -0.5554 -0.0552 -0.0533
  450loPI   C4B 7200   3.482  14.449   8.845 -0.0391  0.0667  0.0004
  451loPI    C1 7201  15.051   2.619  11.252 -0.1581 -0.0341  0.0140
  451loPI    C2 7202  15.315   2.381  11.434  0.0043  0.0715 -0.0810
  451loPI    C3 7203  14.938   2.399  11.566  0.0129 -0.1704 -0.0187
  451loPI   PO4 7204  15.096   2.594  11.020  0.0467  0.0935 -0.0976
  451loPI   GL1 7205  14.881   2.406  10.633  0.0329  0.0181 -0.1081
  451loPI   GL2 7206  14.697   2.665  10.610  0.1537 -0.1893  0.1029
  451loPI   C1A 7207  14.780   2.373  10.145 -0.0358 -0.0727  0.3019
  451loPI   C2A 7208  14.758   2.422   9.718 -0.2092  0.1140 -0.2276
  451loPI   C3A 7209  14.736   2.414   9.287 -0.0815 -0.1383  0.0044
  451loPI   C4A 7210  14.785   2.537   8.862 -0.0773  0.0422 -0.1823
  451loPI   C5A 7211  15.029   2.615   8.527 -0.0535  0.2864 -0.0569
  451loPI   C6A 7212  15.372   2.844   8.673 -0.1391 -0.2833 -0.4344
  451loPI   C1B 7213  14.648   2.832  10.170 -0.0210  0.0309  0.0710
  451loPI   C2B 7214  14.620   2.933   9.665  0.0280 -0.0166  0.0702
  451loPI   C3B 7215  14.663   2.974   9.220 -0.0759 -0.2368  0.0296
  451loPI   C4B 7216  14.919   3.078   8.799 -0.0841 -0.1424  0.3816
  452loPI    C1 7217  14.280   5.038  11.471 -0.3315 -0.2402  0.1182
  452loPI    C2 7218  14.345   5.411  11.601  0.3051 -0.1844 -0.3143
  452loPI    C3 7219  14.357   5.104  11.858  0.0462  0.0598 -0.0019
  452loPI   PO4 7220  14.396   5.059  11.274 -0.1163 -0.1673 -0.1122
  452loPI   GL1 7221  14.249   5.058  10.835  0.1187  0.2518 -0.0599
  452loPI   GL2 7222  14.531   5.124  10.803 -0.2300 -0.2922 -0.1575
  452loPI   C1A 7223  14.268   4.980  10.402 -0.1863 -0.2427 -0.1368
  452loPI   C2A 7224  14.235   4.965   9.971  0.0597 -0.0305 -0.1486
  452loPI   C3A 7225  14.355   5.081   9.603  0.4123  0.2306 -0.1056
  452loPI   C4A 7226  14.298   5.048   9.198  0.2540  0.3019 -0.1107
  452loPI   C5A 7227  14.429   5.018   8.783 -0.1903 -0.0535 -0.0728
  452loPI   C6A 7228  14.567   4.988   8.420  0.0571  0.0463  0.1017
  452loPI   C1B 7229  14.641   5.342  10.323 -0.1803  0.0805 -0.0330
  452loPI   C2B 7230  14.609   5.414   9.901  0.3962 -0.3117  0.1563
  452loPI   C3B 7231  14.673   5.389   9.448  0.0626 -0.0533  0.2267
  452loPI   C4B 7232  14.629   5.425   8.989 -0.0945 -0.2263 -0.2171
  453loPI    C1 7233   7.456   6.020  11.284  0.0480  0.3902  0.2791
  453loPI    C2 7234   7.845   6.114  11.287  0.1046  0.1758  0.0371
  453loPI    C3 7235   7.720   5.775  11.459  0.0319  0.2162  0.0643
  453loPI   PO4 7236   7.355   6.115  11.064 -0.0816 -0.1000  0.1634
  453loPI   GL1 7237   7.592   6.121  10.747  0.0923  0.0090 -0.0541
  453loPI   GL2 7238   7.772   5.875  10.850  0.0765  0.1818 -0.3045
  453loPI   C1A 7239   7.507   6.293  10.361  0.0095  0.1080  0.1509
  453loPI   C2A 7240   7.496   6.188   9.969  0.2168  0.0892 -0.0628
  453loPI   C3A 7241   7.422   6.156   9.602 -0.0543  0.1303  0.1171
  453loPI   C4A 7242   7.425   6.196   9.139  0.1850 -0.2919  0.1588
  453loPI   C5A 7243   7.634   6.377   8.776  0.1194  0.1022  0.0711
  453loPI   C6A 7244   7.674   6.581   8.347  0.1504 -0.2029 -0.3183
  453loPI   C1B 7245   7.708   5.683  10.393 -0.4075 -0.1626  0.1943
  453loPI   C2B 7246   7.634   5.651   9.992  0.2471 -0.0053  0.0707
  453loPI   C3B 7247   7.557   5.690   9.529  0.0374 -0.0573  0.2244
  453loPI   C4B 7248   7.548   5.667   9.137 -0.2558  0.1045 -0.2446
  454loPI    C1 7249   7.672  17.397  10.946  0.0163 -0.0380 -0.1150
  454loPI    C2 7250   7.475  17.290  11.277  0.0108  0.0438 -0.0915
  454loPI    C3 7251   7.834  17.465  11.305  0.0620 -0.0537 -0.1325
  454loPI   PO4 7252   7.432  17.402  10.760 -0.2985  0.1589  0.1950
  454loPI   GL1 7253   7.489  17.452  10.316  0.4523  0.2452  0.0896
  454loPI   GL2 7254   7.158  17.367  10.258  0.2015  0.0648 -0.0675
  454loPI   C1A 7255   7.479  17.681  10.022 -0.0786 -0.0052 -0.0267
  454loPI   C2A 7256   7.406  17.613   9.589 -0.1970 -0.1365  0.2734
  454loPI   C3A 7257   7.305  17.659   9.162 -0.0409 -0.1325  0.0657
  454loPI   C4A 7258   7.378  17.705   8.708 -0.0381 -0.2142  0.1225
  454loPI   C5A 7259   7.503  17.439   8.343  0.0394 -0.0446  0.0548
  454loPI   C6A 7260   7.861  17.285   8.176 -0.2724 -0.2991 -0.0925
  454loPI   C1B 7261   7.114  17.271   9.858 -0.2492  0.1094  0.1994
  454loPI   C2B 7262   7.013  17.305   9.366 -0.3022  0.3086 -0.1612
  454loPI   C3B 7263   6.940  17.307   8.895 -0.3252 -0.1623 -0.1527
  454loPI   C4B 7264   7.023  17.376   8.525  0.1948 -0.3936  0.0456
  455loPI    C1 7265   9.476  14.957  10.430  0.2360 -0.0194 -0.0922
  455loPI    C2 7266   9.863  15.058  10.448  0.1908  0.1334  0.0574
  455loPI    C3 7267   9.658  14.990  10.784  0.0881  0.0470 -0.0216
  455loPI   PO4 7268   9.332  15.199  10.254 -0.0709  0.0976  0.1176
  455loPI   GL1 7269   9.357  15.433   9.878  0.1248  0.0601  0.0465
  455loPI   GL2 7270   9.171  15.233   9.744 -0.1474  0.1305  0.0615
  455loPI   C1A 7271   9.414  15.525   9.353  0.0785 -0.3044  0.0681
  455loPI   C2A 7272   9.387  15.596   8.907  0.2872  0.5836 -0.1125
  455loPI   C3A 7273   9.305  15.742   8.463  0.2331 -0.2071  0.1717
  455loPI   C4A 7274   9.257  16.030   8.109  0.1235  0.2158 -0.0791
  455loPI   C5A 7275   9.329  16.310   7.847 -0.0535  0.0426  0.0844
  455loPI   C6A 7276   9.487  16.574   7.603 -0.0868 -0.1863 -0.3905
  455loPI   C1B 7277   8.868  15.242   9.487 -0.0922 -0.0484 -0.1819
  455loPI   C2B 7278   8.665  15.370   9.087 -0.2421 -0.0189 -0.1256
  455loPI   C3B 7279   8.528  15.453   8.584 -0.0548  0.2380  0.2431
  455loPI   C4B 7280   8.561  15.375   8.188  0.0126  0.0066  0.4932
  456loPI    C1 7281   6.558   4.938  11.252  0.3096 -0.2350 -0.0848
  456loPI    C2 7282   6.878   4.802  11.450  0.1312 -0.0780  0.3208
  456loPI    C3 7283   6.692   5.133  11.574  0.0091  0.0209 -0.1111
  456loPI   PO4 7284   6.627   4.930  11.025 -0.1673  0.0953 -0.1422
  456loPI   GL1 7285   6.478   4.783  10.634  0.2139 -0.0880  0.4894
  456loPI   GL2 7286   6.525   4.441  10.620  0.1787 -0.0867  0.1835
  456loPI   C1A 7287   6.095   4.693  10.492 -0.1098  0.2183  0.0643
  456loPI   C2A 7288   5.855   4.553  10.123  0.2312 -0.0882 -0.3780
  456loPI   C3A 7289   5.814   4.616   9.706 -0.1462 -0.2694 -0.0255
  456loPI   C4A 7290   5.989   4.589   9.191  0.0673  0.1795 -0.0147
  456loPI   C5A 7291   6.030   4.558   8.711  0.1469  0.3008 -0.1357
  456loPI   C6A 7292   6.008   4.732   8.366  0.1376  0.2324 -0.2052
  456loPI   C1B 7293   6.390   4.475  10.118  0.0824 -0.0366 -0.1721
  456loPI   C2B 7294   6.343   4.483   9.674 -0.3234 -0.0093 -0.1839
  456loPI   C3B 7295   6.457   4.597   9.228  0.0399  0.5320  0.0156
  456loPI   C4B 7296   6.543   4.463   8.810  0.0387  0.0855 -0.3230
  457loPI    C1 7297  15.663  15.571  10.684  0.2095 -0.1241 -0.1032
  457loPI    C2 7298  15.860  15.825  10.921  0.1175 -0.2615  0.1234
  457loPI    C3 7299  15.575  15.590  11.073 -0.0416 -0.2509 -0.1516
  457loPI   PO4 7300  15.864  15.444  10.546  0.1866 -0.0169 -0.0178
  457loPI   GL1 7301  16.066  15.271  10.241  0.1313 -0.3405 -0.2212
  457loPI   GL2 7302  16.319  15.440  10.285 -0.1197 -0.1182  0.2409
  457loPI   C1A 7303  16.325  15.013  10.054  0.2628 -0.0505  0.1474
  457loPI   C2A 7304  16.473  15.040   9.655 -0.0913 -0.1702 -0.0677
  457loPI   C3A 7305  16.599  14.928   9.278 -0.0206  0.3212  0.0231
  457loPI   C4A 7306  16.534  14.864   8.891 -0.0375 -0.0088 -0.2937
  457loPI   C5A 7307  16.599  14.862   8.442  0.2756  0.0907  0.1741
  457loPI   C6A 7308  16.784  14.785   7.983 -0.1280 -0.0790  0.1029
  457loPI   C1B 7309  16.435  15.536   9.778  0.1221  0.0131 -0.2462
  457loPI   C2B 7310  16.489  15.486   9.397  0.0064 -0.3803  0.1235
  457loPI   C3B 7311  16.471  15.463   8.941  0.0980  0.2647 -0.0143
  457loPI   C4B 7312  16.499  15.421   8.500 -0.1266  0.2917  0.0784
  458loPI    C1 7313  12.843   2.224  11.528  0.2164  0.1588  0.0299
  458loPI    C2 7314  13.044   2.394  11.829  0.1004  0.0834  0.1509
  458loPI    C3 7315  12.833   2.060  11.893 -0.0285  0.1379  0.0151
  458loPI   PO4 7316  12.999   2.187  11.291  0.0150 -0.0126 -0.1359
  458loPI   GL1 7317  12.960   2.393  10.829 -0.0349 -0.2083  0.1112
  458loPI   GL2 7318  12.906   2.088  10.638  0.1265 -0.0784 -0.0549
  458loPI   C1A 7319  12.914   2.535  10.352 -0.3592  0.0998  0.0188
  458loPI   C2A 7320  12.950   2.558   9.931  0.4550 -0.0703 -0.1560
  458loPI   C3A 7321  13.006   2.544   9.590 -0.1042  0.0181  0.1166
  458loPI   C4A 7322  12.945   2.681   9.199  0.1127 -0.1455 -0.1731
  458loPI   C5A 7323  13.120   2.666   8.909 -0.2376  0.0183 -0.0558
  458loPI   C6A 7324  13.444   2.978   8.773  0.3107  0.1872  0.2980
  458loPI   C1B 7325  13.028   1.963  10.224  0.0708  0.1072  0.0303
  458loPI   C2B 7326  13.053   2.053   9.803 -0.4393  0.0230  0.2311
  458loPI   C3B 7327  13.087   2.051   9.432 -0.1192 -0.0369  0.2582
  458loPI   C4B 7328  13.101   2.219   8.918  0.2660  0.3106 -0.1608
  459loPI    C1 7329   6.934  10.616  10.849 -0.0362 -0.0732 -0.0124
  459loPI    C2 7330   7.177  10.854  11.059 -0.1408  0.1056 -0.0915
  459loPI    C3 7331   6.789  10.944  11.026 -0.1948 -0.1124 -0.0682
  459loPI   PO4 7332   7.066  10.616  10.639 -0.1449  0.1562 -0.1378
  459loPI   GL1 7333   7.336  10.581  10.318 -0.0923 -0.2351  0.0941
  459loPI   GL2 7334   7.323  10.313  10.248  0.0805  0.0543  0.1294
  459loPI   C1A 7335   7.244  10.800   9.931  0.1365  0.0267 -0.1836
  459loPI   C2A 7336   7.281  10.892   9.494  0.0324  0.0049 -0.1354
  459loPI   C3A 7337   7.338  10.975   9.090  0.1028  0.1045  0.2817
  459loPI   C4A 7338   7.286  10.938   8.711  0.1911  0.1056  0.0391
  459loPI   C5A 7339   7.304  10.702   8.303  0.5072  0.1431  0.1041
  459loPI   C6A 7340   7.391  10.895   7.908 -0.0722 -0.1458 -0.2235
  459loPI   C1B 7341   7.244  10.276   9.812 -0.0051 -0.1957 -0.1805
  459loPI   C2B 7342   6.942  10.180   9.541  0.1987 -0.1787 -0.1614
  459loPI   C3B 7343   6.941  10.081   9.074 -0.0732  0.0108  0.0848
  459loPI   C4B 7344   6.934   9.938   8.651 -0.2185  0.1214 -0.1257
  460loPI    C1 7345   9.744  11.324  10.566 -0.0284  0.0760 -0.1079
  460loPI    C2 7346   9.452  11.144  10.772 -0.0244  0.2355  0.0402
  460loPI    C3 7347   9.821  11.167  10.926  0.1387 -0.2081 -0.2642
  460loPI   PO4 7348   9.790  11.209  10.400  0.1484  0.3374 -0.3223
  460loPI   GL1 7349   9.781  11.186  10.061  0.1147 -0.1922  0.0626
  460loPI   GL2 7350   9.664  10.772  10.056  0.0262  0.0017 -0.0023
  460loPI   C1A 7351   9.478  11.084   9.700 -0.0634 -0.0571 -0.0756
  460loPI   C2A 7352   9.587  11.104   9.273  0.0870 -0.2606 -0.1602
  460loPI   C3A 7353   9.513  11.090   8.854  0.0919  0.1682 -0.0636
  460loPI   C4A 7354   9.537  11.413   8.473 -0.0592  0.0605  0.0370
  460loPI   C5A 7355   9.586  11.264   8.120 -0.1588 -0.0162 -0.1540
  460loPI   C6A 7356   9.748  11.409   7.715  0.1360  0.3079  0.0068
  460loPI   C1B 7357   9.684  10.624   9.639 -0.0728  0.1337 -0.1621
  460loPI   C2B 7358   9.677  10.591   9.197 -0.3049 -0.1990  0.0560
  460loPI   C3B 7359   9.614  10.550   8.800 -0.3764 -0.2008 -0.2851
  460loPI   C4B 7360   9.466  10.838   8.338  0.0257  0.0775  0.2049
  461loPI    C1 7361  15.154   5.423  11.297 -0.1118  0.0900 -0.1368
  461loPI    C2 7362  15.457   5.571  11.512 -0.0208 -0.0729 -0.1518
  461loPI    C3 7363  15.195   5.320  11.681 -0.0162 -0.1097 -0.1988
  461loPI   PO4 7364  15.345   5.252  11.065 -0.0620  0.0321  0.0324
  461loPI   GL1 7365  15.601   5.173  10.781 -0.1224  0.1481 -0.1214
  461loPI   GL2 7366  15.886   5.129  10.703  0.2268  0.0944  0.1776
  461loPI   C1A 7367  15.610   5.079  10.284  0.1429 -0.2826  0.0985
  461loPI   C2A 7368  15.655   4.952   9.897 -0.1003  0.1065  0.0386
  461loPI   C3A 7369  15.643   5.129   9.482  0.1177  0.0003  0.0394
  461loPI   C4A 7370  15.593   5.081   9.043  0.0682 -0.2360  0.1586
  461loPI   C5A 7371  15.642   5.372   8.786  0.0072 -0.0143 -0.2636
  461loPI   C6A 7372  15.971   5.570   8.680  0.0220  0.2914 -0.0541
  461loPI   C1B 7373  16.044   4.870  10.346  0.0939 -0.1462  0.0732
  461loPI   C2B 7374  16.207   4.968   9.993  0.3201 -0.0348 -0.0568
  461loPI   C3B 7375  16.088   4.992   9.574 -0.2214 -0.1789 -0.1446
  461loPI   C4B 7376  16.103   4.915   9.189 -0.1717  0.1357  0.2299
  462loPI    C1 7377  17.651   6.939  11.264  0.0701 -0.3169 -0.1931
  462loPI    C2 7378  17.835   6.666  11.490 -0.2553 -0.1950  0.2322
  462loPI    C3 7379  17.449   6.751  11.553 -0.1747  0.3226  0.0710
  462loPI   PO4 7380  17.757   6.899  11.071 -0.2803 -0.0325 -0.3557
  462loPI   GL1 7381  17.999   6.821  10.596  0.2331 -0.3607  0.0758
  462loPI   GL2 7382  17.963   7.197  10.658  0.1228 -0.2339  0.0392
  462loPI   C1A 7383  18.171   6.737  10.288  0.0497 -0.0253 -0.2016
  462loPI   C2A 7384  18.098   6.790   9.884 -0.2005 -0.3185  0.0995
  462loPI   C3A 7385  17.971   6.800   9.460  0.2612 -0.0980 -0.1396
  462loPI   C4A 7386  17.964   6.834   9.033 -0.4227 -0.1382  0.0574
  462loPI   C5A 7387  17.857   6.903   8.711 -0.1593  0.1159  0.1515
  462loPI   C6A 7388  17.784   6.521   8.399  0.1704  0.1669 -0.0581
  462loPI   C1B 7389  17.991   7.263  10.210  0.0567 -0.0099 -0.1412
  462loPI   C2B 7390  17.870   7.368   9.834 -0.0570  0.1565 -0.0619
  462loPI   C3B 7391  17.938   7.276   9.491  0.1725 -0.1970  0.2612
  462loPI   C4B 7392  17.835   7.301   9.031 -0.0077 -0.0203  0.0531
  463loPI    C1 7393   0.828   1.202  11.415  0.1844 -0.1574  0.0506
  463loPI    C2 7394   0.989   1.460  11.675  0.0461  0.0592 -0.0760
  463loPI    C3 7395   0.636   1.289  11.755 -0.0737  0.2485 -0.1905
  463loPI   PO4 7396   0.777   1.417  11.060  0.1027 -0.1786  0.1887
  463loPI   GL1 7397   0.987   1.796  10.812 -0.2678  0.2598 -0.2951
  463loPI   GL2 7398   0.896   2.094  10.915 -0.0133  0.1478  0.0526
  463loPI   C1A 7399   0.985   1.774  10.346  0.0930  0.1892  0.1300
  463loPI   C2A 7400   0.831   1.831   9.883  0.0816  0.0159 -0.3121
  463loPI   C3A 7401   0.906   1.772   9.417 -0.1784 -0.2226 -0.1937
  463loPI   C4A 7402   0.946   1.672   8.964  0.1598 -0.2915  0.1378
  463loPI   C5A 7403   1.129   1.497   8.555  0.2636  0.1052  0.0740
  463loPI   C6A 7404   1.035   1.158   8.354 -0.1139  0.1058  0.1081
  463loPI   C1B 7405   0.915   2.237  10.446  0.4199  0.0551 -0.1721
  463loPI   C2B 7406   0.849   2.272  10.081 -0.0785  0.2451  0.2035
  463loPI   C3B 7407   0.815   2.359   9.621 -0.0376  0.4994  0.1970
  463loPI   C4B 7408   0.748   2.362   9.145  0.2057  0.3644 -0.0454
  464loPI    C1 7409  13.161   0.821  10.968  0.2218 -0.0873  0.1440
  464loPI    C2 7410  12.905   0.578  11.156  0.2721 -0.2366  0.0208
  464loPI    C3 7411  13.213   0.736  11.356  0.0720 -0.0368  0.1762
  464loPI   PO4 7412  13.277   0.688  10.728  0.0180  0.0088 -0.1428
  464loPI   GL1 7413  13.256   0.902  10.322  0.0966  0.1748  0.2297
  464loPI   GL2 7414  12.982   0.654  10.239  0.2224  0.0136 -0.0430
  464loPI   C1A 7415  13.275   1.073   9.945  0.1230  0.1556 -0.0718
  464loPI   C2A 7416  13.382   1.029   9.515 -0.0214 -0.0259  0.0549
  464loPI   C3A 7417  13.342   1.074   9.138 -0.1526 -0.0066 -0.0324
  464loPI   C4A 7418  13.445   1.111   8.666 -0.3177  0.1575  0.0696
  464loPI   C5A 7419  13.443   1.127   8.244 -0.2273  0.0666 -0.1004
  464loPI   C6A 7420  13.089   1.071   7.882  0.0197  0.1759  0.2533
  464loPI   C1B 7421  12.856   0.701   9.838  0.2003 -0.2406  0.0182
  464loPI   C2B 7422  12.942   0.796   9.326  0.2137 -0.0421  0.3051
  464loPI   C3B 7423  13.058   0.738   8.910  0.1497 -0.0476  0.1516
  464loPI   C4B 7424  13.013   0.802   8.413  0.2659 -0.0267 -0.0618
  465loPI    C1 7425   5.231   6.415  11.162 -0.1043  0.0442  0.1999
  465loPI    C2 7426   4.972   6.435  11.466 -0.2548 -0.2611  0.0957
  465loPI    C3 7427   5.266   6.163  11.471  0.1448  0.1610  0.2696
  465loPI   PO4 7428   5.117   6.422  10.921 -0.1244  0.1842 -0.1199
  465loPI   GL1 7429   5.115   6.475  10.552 -0.2178  0.2503 -0.0390
  465loPI   GL2 7430   5.393   6.607  10.478  0.1274 -0.1070  0.0108
  465loPI   C1A 7431   5.120   6.347  10.047 -0.1608 -0.1351 -0.3091
  465loPI   C2A 7432   5.084   6.358   9.598 -0.1142  0.0289 -0.2328
  465loPI   C3A 7433   5.055   6.221   9.172 -0.0345 -0.0891 -0.0381
  465loPI   C4A 7434   5.018   6.265   8.727  0.0515  0.1787  0.2479
  465loPI   C5A 7435   4.693   6.318   8.436 -0.0731  0.1965 -0.1617
  465loPI   C6A 7436   4.357   6.209   8.135  0.3847 -0.0680  0.0474
  465loPI   C1B 7437   5.451   6.710  10.058  0.5086  0.1065 -0.2547
  465loPI   C2B 7438   5.429   6.664   9.683  0.1483  0.1515 -0.0007
  465loPI   C3B 7439   5.348   6.608   9.239 -0.1581 -0.0413  0.0876
  465loPI   C4B 7440   5.388   6.584   8.880 -0.4552  0.0179  0.0371
  466loPI    C1 7441   5.120   3.569  11.142 -0.0554 -0.0161  0.0328
  466loPI    C2 7442   5.160   3.301  11.436 -0.1790  0.1627  0.2147
  466loPI    C3 7443   5.101   3.687  11.523  0.0587  0.2613 -0.0453
  466loPI   PO4 7444   5.256   3.497  10.937 -0.2295 -0.1608 -0.2123
  466loPI   GL1 7445   5.167   3.290  10.567 -0.0413  0.1154 -0.0082
  466loPI   GL2 7446   4.938   3.460  10.506 -0.3993 -0.0812 -0.3832
  466loPI   C1A 7447   5.270   3.366  10.150  0.0125 -0.1834 -0.0153
  466loPI   C2A 7448   5.294   3.362   9.727  0.1172  0.2680  0.2621
  466loPI   C3A 7449   5.327   3.417   9.214  0.0500 -0.2166 -0.1738
  466loPI   C4A 7450   5.502   3.325   8.744  0.2843 -0.0718  0.0506
  466loPI   C5A 7451   5.325   3.324   8.389  0.2132 -0.1433  0.1753
  466loPI   C6A 7452   5.326   3.524   7.941 -0.2393  0.0345  0.2013
  466loPI   C1B 7453   4.761   3.525   9.981 -0.1835 -0.1738  0.1230
  466loPI   C2B 7454   4.842   3.485   9.564  0.0808 -0.0029  0.2342
  466loPI   C3B 7455   4.874   3.572   9.052 -0.0740 -0.0369 -0.1009
  466loPI   C4B 7456   4.924   3.486   8.622 -0.3841 -0.3031 -0.1644
  467loPI    C1 7457   1.907  17.187  11.041  0.0172  0.0471  0.0161
  467loPI    C2 7458   2.061  16.939  11.315  0.1210 -0.1167 -0.1872
  467loPI    C3 7459   1.919  16.793  10.972 -0.3650  0.0457 -0.0633
  467loPI   PO4 7460   2.232  17.404  10.999 -0.0243 -0.1349  0.0532
  467loPI   GL1 7461   2.442  17.551  10.677 -0.1410 -0.1174 -0.1777
  467loPI   GL2 7462   2.744  17.650  10.587  0.0051  0.1736  0.0476
  467loPI   C1A 7463   2.296  17.711  10.298 -0.2276  0.2454 -0.2031
  467loPI   C2A 7464   2.322  17.555   9.878 -0.2497 -0.1431 -0.3291
  467loPI   C3A 7465   2.323  17.664   9.433 -0.2812  0.1329 -0.4338
  467loPI   C4A 7466   2.471  17.710   9.062  0.1767 -0.1364  0.0725
  467loPI   C5A 7467   2.615  17.863   8.683 -0.0344  0.1543 -0.0184
  467loPI   C6A 7468   2.852  17.775   8.410  0.0618 -0.3345 -0.1061
  467loPI   C1B 7469   2.713  17.451  10.138 -0.0823  0.0246  0.2294
  467loPI   C2B 7470   2.836  17.577   9.752  0.0441  0.2302 -0.1594
  467loPI   C3B 7471   2.855  17.611   9.324 -0.1844  0.0405 -0.0036
  467loPI   C4B 7472   2.951  17.529   8.898  0.2961  0.0249 -0.0659
  468loPI    C1 7473   0.303  10.031  10.990 -0.2066  0.1274 -0.2830
  468loPI    C2 7474  -0.053   9.961  11.159 -0.1039  0.1598 -0.0486
  468loPI    C3 7475   0.283   9.861  11.352  0.0130  0.0050 -0.3261
  468loPI   PO4 7476   0.286   9.911  10.759  0.3429 -0.1230  0.0245
  468loPI   GL1 7477  -0.063   9.652  10.583 -0.0393  0.1343 -0.0743
  468loPI   GL2 7478  -0.227   9.835  10.450 -0.0739 -0.3137  0.0010
  468loPI   C1A 7479   0.163   9.381  10.223 -0.0248 -0.1776  0.3983
  468loPI   C2A 7480   0.288   9.081   9.911 -0.2399  0.0890  0.2740
  468loPI   C3A 7481   0.141   9.129   9.561 -0.1857 -0.1112 -0.0642
  468loPI   C4A 7482   0.098   9.108   9.177 -0.1697 -0.1825  0.1170
  468loPI   C5A 7483   0.200   9.054   8.742 -0.0615  0.3167  0.0622
  468loPI   C6A 7484   0.158   9.111   8.256 -0.0691 -0.1179 -0.1098
  468loPI   C1B 7485  -0.049   9.776   9.980  0.0666 -0.0417  0.1684
  468loPI   C2B 7486   0.018   9.609   9.641 -0.2378  0.0984 -0.0115
  468loPI   C3B 7487  -0.034   9.638   9.183 -0.0040  0.0759  0.0156
  468loPI   C4B 7488   0.038   9.483   8.763 -0.1758  0.0525  0.1711
  469loPI    C1 7489  12.877   4.762  11.508  0.2613  0.0382  0.1273
  469loPI    C2 7490  12.995   4.951  11.840  0.0096  0.0999  0.1842
  469loPI    C3 7491  12.633   4.783  11.824 -0.0360  0.2191 -0.1090
  469loPI   PO4 7492  12.937   4.914  11.306  0.1188 -0.0886 -0.1619
  469loPI   GL1 7493  12.732   4.823  10.958 -0.0278 -0.2778  0.1517
  469loPI   GL2 7494  12.460   5.026  11.029  0.3029  0.2605 -0.0830
  469loPI   C1A 7495  12.845   4.914  10.516  0.1445 -0.0025 -0.3335
  469loPI   C2A 7496  12.882   5.000  10.106  0.0691 -0.1590  0.2527
  469loPI   C3A 7497  12.910   4.873   9.698  0.1761 -0.2026 -0.0292
  469loPI   C4A 7498  12.927   4.990   9.227 -0.3376  0.0995 -0.1439
  469loPI   C5A 7499  12.834   5.293   8.940  0.0521 -0.0295  0.3656
  469loPI   C6A 7500  12.761   5.730   8.868  0.0900  0.0298 -0.3934
  469loPI   C1B 7501  12.318   5.137  10.635  0.0507  0.0308  0.2135
  469loPI   C2B 7502  12.258   5.158  10.229 -0.3396  0.3950 -0.1762
  469loPI   C3B 7503  12.416   5.101   9.780  0.0957  0.0509 -0.0266
  469loPI   C4B 7504  12.419   5.192   9.295  0.0220 -0.0633 -0.2800
  470loPI    C1 7505   0.508  11.984  11.019  0.1010  0.0131  0.1748
  470loPI    C2 7506   0.465  12.311  11.246  0.0396 -0.0324  0.2290
  470loPI    C3 7507   0.804  12.252  11.043 -0.1293  0.3085 -0.1669
  470loPI   PO4 7508   0.261  11.927  10.832  0.0491 -0.1082 -0.0635
  470loPI   GL1 7509   0.249  12.304  10.693  0.3235  0.0912  0.0879
  470loPI   GL2 7510   0.571  12.346  10.576 -0.1301 -0.0574  0.0417
  470loPI   C1A 7511   0.225  12.552  10.226 -0.0237 -0.1862  0.2712
  470loPI   C2A 7512   0.343  12.529   9.788  0.2320  0.0884 -0.1566
  470loPI   C3A 7513   0.262  12.581   9.379  0.2815 -0.1667 -0.1422
  470loPI   C4A 7514   0.302  12.492   8.986 -0.1941  0.0645 -0.2380
  470loPI   C5A 7515   0.361  12.264   8.579  0.2179  0.0499  0.1896
  470loPI   C6A 7516   0.349  12.204   8.197  0.2089 -0.0989 -0.2168
  470loPI   C1B 7517   0.759  12.409  10.109 -0.2424 -0.1716 -0.2158
  470loPI   C2B 7518   0.894  12.444   9.637 -0.1084 -0.2412  0.0312
  470loPI   C3B 7519   0.819  12.405   9.309 -0.1601 -0.0812 -0.1314
  470loPI   C4B 7520   0.748  12.264   8.866 -0.0105  0.1225 -0.1696
  471loPI    C1 7521  15.777   6.173  11.513 -0.0583  0.0238 -0.3027
  471loPI    C2 7522  15.611   6.537  11.490 -0.1192  0.0159 -0.0248
  471loPI    C3 7523  15.636   6.350  11.843  0.1136 -0.1566 -0.1297
  471loPI   PO4 7524  15.685   6.026  11.359 -0.0552 -0.1266 -0.0525
  471loPI   GL1 7525  15.515   5.984  10.909  0.1392  0.0008  0.1057
  471loPI   GL2 7526  15.379   5.683  10.832 -0.1056 -0.0549  0.0788
  471loPI   C1A 7527  15.519   6.189  10.497  0.1458  0.3451 -0.0341
  471loPI   C2A 7528  15.472   6.141  10.062 -0.1431  0.1070 -0.0795
  471loPI   C3A 7529  15.350   6.181   9.596  0.2000  0.3606 -0.0262
  471loPI   C4A 7530  15.330   6.116   9.207 -0.3323  0.0229  0.0410
  471loPI   C5A 7531  15.281   6.166   8.782 -0.0223  0.1039 -0.0021
  471loPI   C6A 7532  15.540   5.830   8.546 -0.1997  0.3029 -0.0350
  471loPI   C1B 7533  15.502   5.572  10.434 -0.2581 -0.0916 -0.1557
  471loPI   C2B 7534  15.513   5.628  10.005  0.0242  0.2584 -0.1926
  471loPI   C3B 7535  15.463   5.638   9.611  0.0799  0.0438  0.0085
  471loPI   C4B 7536  15.479   5.651   9.135  0.0967  0.4636 -0.0610
  472loPI    C1 7537   5.960   7.567  11.355  0.0111 -0.1074  0.1401
  472loPI    C2 7538   6.132   7.271  11.561  0.0257 -0.0286  0.2424
  472loPI    C3 7539   5.733   7.301  11.549  0.0146 -0.2431 -0.0396
  472loPI   PO4 7540   6.105   7.540  11.079  0.1368  0.2357 -0.1776
  472loPI   GL1 7541   6.008   7.557  10.715 -0.2262  0.0276 -0.1097
  472loPI   GL2 7542   5.702   7.637  10.548  0.0943 -0.4302  0.1994
  472loPI   C1A 7543   6.105   7.477  10.326 -0.0049 -0.0729  0.0895
  472loPI   C2A 7544   6.186   7.371   9.896 -0.1185 -0.1849  0.1988
  472loPI   C3A 7545   6.174   7.292   9.458  0.0075 -0.2278 -0.1800
  472loPI   C4A 7546   6.210   7.277   9.019  0.0548 -0.0052  0.0649
  472loPI   C5A 7547   6.034   7.361   8.698 -0.2993  0.2476 -0.3900
  472loPI   C6A 7548   5.677   7.526   8.403 -0.1698  0.0031  0.4552
  472loPI   C1B 7549   5.743   7.727  10.097 -0.0616  0.3511 -0.0504
  472loPI   C2B 7550   5.646   7.510   9.774  0.0559 -0.2489 -0.0996
  472loPI   C3B 7551   5.725   7.531   9.340 -0.1486 -0.0948  0.2100
  472loPI   C4B 7552   5.628   7.601   8.881  0.2747  0.1638 -0.0663
  473loPI    C1 7553  11.644   8.845  11.090 -0.1588  0.1291 -0.2092
  473loPI    C2 7554  11.481   9.210  11.120  0.2565  0.3107 -0.0901
  473loPI    C3 7555  11.623   9.026  11.446 -0.1346 -0.0521 -0.1146
  473loPI   PO4 7556  11.818   8.862  10.856  0.0918 -0.1347 -0.2440
  473loPI   GL1 7557  11.870   8.506  10.592  0.2468 -0.1831 -0.0556
  473loPI   GL2 7558  12.157   8.418  10.597 -0.0351 -0.2326  0.1359
  473loPI   C1A 7559  12.024   8.538  10.058 -0.0427 -0.1523 -0.1143
  473loPI   C2A 7560  11.924   8.454   9.614 -0.1247  0.2756 -0.3137
  473loPI   C3A 7561  12.010   8.598   9.250  0.0525 -0.0366 -0.1473
  473loPI   C4A 7562  12.047   8.452   8.790 -0.2882 -0.2219  0.2351
  473loPI   C5A 7563  12.002   8.359   8.380  0.0016 -0.2914  0.0012
  473loPI   C6A 7564  11.647   8.014   8.512  0.3874  0.2155 -0.0843
  473loPI   C1B 7565  12.450   8.341  10.214 -0.0397 -0.0391 -0.1420
  473loPI   C2B 7566  12.551   8.377   9.796 -0.2911  0.1216 -0.2490
  473loPI   C3B 7567  12.586   8.303   9.319  0.5118  0.2583 -0.1677
  473loPI   C4B 7568  12.495   8.239   8.879 -0.0890 -0.1923  0.0491
  474POPI    C1 7569   5.251  13.445  10.830 -0.0018 -0.0598 -0.0984
  474POPI    C2 7570   5.253  13.292  11.199 -0.0548  0.0743 -0.0419
  474POPI    C3 7571   5.341  13.678  11.142 -0.6277  0.2050 -0.1010
  474POPI   PO4 7572   5.438  13.278  10.626 -0.0986  0.0390 -0.0696
  474POPI   GL1 7573   5.592  13.438  10.266 -0.2701 -0.0890  0.2582
  474POPI   GL2 7574   5.953  13.476  10.179  0.1131 -0.0332 -0.4544
  474POPI   C1A 7575   5.678  13.780   9.830  0.0527  0.1638  0.0842
  474POPI   D2A 7576   5.648  13.881   9.386  0.0537  0.2586 -0.1731
  474POPI   C3A 7577   5.724  13.651   8.928 -0.0808  0.2792  0.2323
  474POPI   C4A 7578   5.629  13.651   8.575 -0.0540 -0.2550  0.1061
  474POPI   C1B 7579   5.900  13.341   9.723 -0.1908 -0.2122  0.0036
  474POPI   C2B 7580   5.739  13.223   9.327 -0.0747 -0.0525 -0.3394
  474POPI   C3B 7581   5.577  13.123   8.888 -0.1729  0.2280 -0.1147
  474POPI   C4B 7582   5.343  13.121   8.549 -0.1346 -0.0424  0.1320
  475POPI    C1 7583   1.483   1.225  11.612 -0.2757  0.1378 -0.0901
  475POPI    C2 7584   1.477   1.619  11.680 -0.2234  0.1114  0.0706
  475POPI    C3 7585   1.538   1.364  11.983  0.0890 -0.0051 -0.0865
  475POPI   PO4 7586   1.318   1.235  11.336  0.0996  0.0296 -0.0151
  475POPI   GL1 7587   1.272   1.375  10.931 -0.2689  0.0326  0.0618
  475POPI   GL2 7588   1.550   1.629  10.780  0.0822  0.0171  0.0618
  475POPI   C1A 7589   1.200   1.360  10.507  0.3005 -0.0683 -0.0878
  475POPI   D2A 7590   1.071   1.352  10.060 -0.1705  0.1812  0.0501
  475POPI   C3A 7591   1.034   1.350   9.639 -0.1748  0.3179  0.1058
  475POPI   C4A 7592   0.996   1.213   9.175  0.0829 -0.1401 -0.0848
  475POPI   C1B 7593   1.537   1.653  10.231  0.2011 -0.2115 -0.3979
  475POPI   C2B 7594   1.436   1.663   9.841 -0.1112 -0.1175  0.2074
  475POPI   C3B 7595   1.395   1.646   9.430 -0.0083  0.0182 -0.0130
  475POPI   C4B 7596   1.386   1.540   9.010 -0.2984 -0.1092 -0.3628
  476POPI    C1 7597   6.531   7.762  11.214 -0.0333 -0.1475  0.0805
  476POPI    C2 7598   6.776   7.783  11.529 -0.1029 -0.1101  0.1325
  476POPI    C3 7599   6.380   7.788  11.584 -0.1176  0.2715  0.0222
  476POPI   PO4 7600   6.728   7.654  11.053 -0.0742  0.2294  0.1539
  476POPI   GL1 7601   6.859   7.429  10.682  0.0225  0.2272 -0.0961
  476POPI   GL2 7602   6.550   7.575  10.618 -0.0365  0.1709 -0.1335
  476POPI   C1A 7603   7.094   7.402  10.352 -0.0242 -0.1277  0.0371
  476POPI   D2A 7604   7.205   7.158   9.990 -0.0322  0.0932 -0.2834
  476POPI   C3A 7605   7.229   7.111   9.546  0.0377 -0.3828  0.1078
  476POPI   C4A 7606   7.134   7.191   9.090 -0.0260 -0.0041 -0.1843
  476POPI   C1B 7607   6.592   7.339  10.234 -0.0918 -0.0734 -0.1393
  476POPI   C2B 7608   6.698   7.271   9.786  0.1673  0.0260  0.0565
  476POPI   C3B 7609   6.690   7.278   9.268 -0.0932 -0.1568  0.0918
  476POPI   C4B 7610   6.686   7.217   8.769  0.1145 -0.3748  0.1542
  477POPI    C1 7611   4.074   4.131  10.940  0.1372  0.0829  0.0111
  477POPI    C2 7612   4.095   4.410  10.654  0.1863 -0.1718 -0.2385
  477POPI    C3 7613   4.155   4.511  11.036  0.0181  0.1914 -0.3030
  477POPI   PO4 7614   4.109   3.946  10.836 -0.2057 -0.0493 -0.0050
  477POPI   GL1 7615   3.968   3.940  10.423  0.0310  0.2615  0.2750
  477POPI   GL2 7616   3.828   4.159  10.282  0.2100 -0.0274 -0.1555
  477POPI   C1A 7617   4.247   3.780  10.135 -0.3316 -0.0862 -0.0711
  477POPI   D2A 7618   4.371   3.612   9.699  0.1061  0.2866 -0.0996
  477POPI   C3A 7619   4.382   3.650   9.228 -0.0386 -0.2311  0.1804
  477POPI   C4A 7620   4.429   3.652   8.812 -0.1956  0.0558  0.0387
  477POPI   C1B 7621   3.757   3.804   9.935 -0.2901  0.0058 -0.1278
  477POPI   C2B 7622   3.728   3.707   9.534  0.4601  0.1138 -0.2509
  477POPI   C3B 7623   3.808   3.777   9.210 -0.1573 -0.2195  0.0155
  477POPI   C4B 7624   4.011   3.901   8.755 -0.1450  0.3170 -0.0609
  478POPI    C1 7625   7.737   9.296  11.143 -0.1454  0.0019 -0.0919
  478POPI    C2 7626   7.794   9.646  11.329  0.2233 -0.0770 -0.0486
  478POPI    C3 7627   7.499   9.403  11.446  0.2218  0.0376  0.1917
  478POPI   PO4 7628   7.777   9.330  10.828  0.4220  0.2034 -0.2435
  478POPI   GL1 7629   7.977   9.409  10.479 -0.2172 -0.2767  0.0310
  478POPI   GL2 7630   8.224   9.260  10.342  0.1265  0.0167 -0.1451
  478POPI   C1A 7631   8.046   9.691  10.162 -0.0080 -0.1063  0.0236
  478POPI   D2A 7632   8.133   9.766   9.789  0.0093  0.0685 -0.1382
  478POPI   C3A 7633   8.045   9.769   9.377 -0.0826  0.0941 -0.0294
  478POPI   C4A 7634   7.825   9.593   8.984 -0.1113 -0.2763 -0.1356
  478POPI   C1B 7635   8.197   9.249   9.934  0.1185 -0.0627 -0.0061
  478POPI   C2B 7636   8.193   9.221   9.524 -0.0696 -0.1856 -0.1082
  478POPI   C3B 7637   8.130   9.223   9.127 -0.2543 -0.4202  0.1830
  478POPI   C4B 7638   8.219   9.404   8.771  0.2284 -0.3425 -0.0704
  479POPI    C1 7639  12.933   4.280  11.567  0.0121  0.1763  0.0070
  479POPI    C2 7640  13.191   4.124  11.829 -0.0109  0.0861 -0.0234
  479POPI    C3 7641  13.003   4.467  11.914  0.1816  0.1971 -0.0375
  479POPI   PO4 7642  13.003   4.240  11.350 -0.1972 -0.0714 -0.0422
  479POPI   GL1 7643  13.126   4.548  11.009  0.2019  0.1852  0.1063
  479POPI   GL2 7644  12.907   4.366  10.877  0.1577 -0.2578 -0.2568
  479POPI   C1A 7645  13.298   4.779  10.666  0.0775  0.0639  0.1625
  479POPI   D2A 7646  13.314   4.823  10.237 -0.1227  0.0432  0.4261
  479POPI   C3A 7647  13.355   4.727   9.807  0.0469 -0.0337 -0.0655
  479POPI   C4A 7648  13.539   4.823   9.417 -0.2587  0.3618  0.1340
  479POPI   C1B 7649  12.888   4.405  10.434  0.0372  0.1470  0.1040
  479POPI   C2B 7650  12.952   4.376   9.948 -0.1076 -0.2317  0.0410
  479POPI   C3B 7651  12.940   4.377   9.551  0.2040 -0.0279 -0.0848
  479POPI   C4B 7652  13.142   4.577   9.174  0.0013 -0.2039 -0.1639
  480POPI    C1 7653  12.525   8.399  10.911 -0.3045  0.0865 -0.0037
  480POPI    C2 7654  12.367   8.762  10.961  0.1391  0.2669  0.1336
  480POPI    C3 7655  12.479   8.547  11.279 -0.0824  0.0236  0.0507
  480POPI   PO4 7656  12.733   8.515  10.707  0.0468 -0.2635 -0.1747
  480POPI   GL1 7657  12.855   8.615  10.328 -0.0582  0.0884 -0.0001
  480POPI   GL2 7658  12.921   8.839  10.151 -0.0074  0.0189 -0.1853
  480POPI   C1A 7659  12.945   8.325  10.128  0.0369 -0.0522 -0.0469
  480POPI   D2A 7660  13.088   8.266   9.721  0.1341 -0.1536 -0.1348
  480POPI   C3A 7661  13.035   8.133   9.293  0.2831 -0.3022  0.1232
  480POPI   C4A 7662  12.962   8.148   8.875 -0.1239  0.1067 -0.0557
  480POPI   C1B 7663  12.906   8.679   9.665  0.2807 -0.0180  0.2897
  480POPI   C2B 7664  12.935   8.669   9.237  0.1255 -0.1364 -0.1092
  480POPI   C3B 7665  12.889   8.679   8.846 -0.1956  0.0615 -0.2389
  480POPI   C4B 7666  12.870   8.922   8.470  0.2768  0.1620  0.3479
  481POPI    C1 7667   9.116  10.516  10.868 -0.1049  0.1387 -0.1115
  481POPI    C2 7668   9.166  10.786  11.159 -0.0298  0.3317 -0.3007
  481POPI    C3 7669   8.798  10.691  11.035 -0.0758  0.0555  0.0325
  481POPI   PO4 7670   9.244  10.668  10.622  0.2825 -0.1177 -0.1412
  481POPI   GL1 7671   9.306  10.558  10.298  0.1719  0.0260  0.0327
  481POPI   GL2 7672   9.431  10.358  10.299  0.0009  0.3571  0.1235
  481POPI   C1A 7673   9.004  10.315  10.128 -0.2473  0.0003  0.0600
  481POPI   D2A 7674   8.970   9.961   9.846 -0.2979  0.1282 -0.1756
  481POPI   C3A 7675   8.943   9.861   9.323  0.0384  0.1360 -0.0734
  481POPI   C4A 7676   8.838   9.950   8.914 -0.1949  0.1649 -0.0005
  481POPI   C1B 7677   9.423  10.246   9.884  0.1568  0.0158  0.0914
  481POPI   C2B 7678   9.337  10.201   9.523  0.0974 -0.0253 -0.1080
  481POPI   C3B 7679   9.283  10.212   9.094  0.1705 -0.2251  0.1882
  481POPI   C4B 7680   9.249  10.156   8.655 -0.2171  0.3489 -0.1431
  482POPI    C1 7681   9.128   4.879  11.566 -0.1943 -0.2456 -0.0933
  482POPI    C2 7682   8.921   5.193  11.430  0.1191 -0.1297 -0.3160
  482POPI    C3 7683   8.749   4.933  11.680 -0.1388  0.2286 -0.1115
  482POPI   PO4 7684   9.268   4.797  11.338  0.1862 -0.0492 -0.2144
  482POPI   GL1 7685   9.427   4.736  10.934 -0.1340  0.2019 -0.0914
  482POPI   GL2 7686   9.652   4.522  10.830 -0.2700 -0.0129  0.0565
  482POPI   C1A 7687   9.248   4.668  10.543  0.1324  0.0331 -0.0771
  482POPI   D2A 7688   9.261   4.556  10.165 -0.0102  0.1336 -0.1548
  482POPI   C3A 7689   9.184   4.641   9.707 -0.2449 -0.4347  0.0791
  482POPI   C4A 7690   9.288   4.649   9.203 -0.1700 -0.0677 -0.0213
  482POPI   C1B 7691   9.736   4.409  10.364 -0.2535 -0.2921 -0.1464
  482POPI   C2B 7692   9.761   4.423  10.071  0.0068 -0.0217  0.0430
  482POPI   C3B 7693   9.727   4.516   9.572  0.1282 -0.1681 -0.0298
  482POPI   C4B 7694   9.767   4.691   9.014  0.0243 -0.0998 -0.1809
  483POPI    C1 7695  15.241   3.758  11.671 -0.1268 -0.2092 -0.3600
  483POPI    C2 7696  15.000   3.439  11.676 -0.0165 -0.2928  0.1165
  483POPI    C3 7697  15.141   3.588  12.019  0.3760 -0.0650 -0.1364
  483POPI   PO4 7698  15.247   3.966  11.390  0.5020 -0.0794 -0.0017
  483POPI   GL1 7699  15.271   3.999  10.925  0.1176 -0.0974  0.0890
  483POPI   GL2 7700  15.524   4.171  10.793 -0.0409  0.3123  0.2070
  483POPI   C1A 7701  15.505   3.720  10.577  0.1738  0.2656 -0.2430
  483POPI   D2A 7702  15.439   3.693  10.092 -0.2398  0.3019 -0.1246
  483POPI   C3A 7703  15.365   3.654   9.589  0.0840  0.4539 -0.0477
  483POPI   C4A 7704  15.428   3.695   9.164  0.2449 -0.0654 -0.0012
  483POPI   C1B 7705  15.401   4.149  10.331  0.1289  0.3405 -0.0080
  483POPI   C2B 7706  15.360   4.183   9.840  0.0151  0.1409 -0.1034
  483POPI   C3B 7707  15.407   4.165   9.446 -0.2287  0.0890 -0.0165
  483POPI   C4B 7708  15.427   4.270   8.970 -0.0518  0.0130  0.0279
  484POPI    C1 7709   7.825   6.584  11.559 -0.2554 -0.0111  0.0731
  484POPI    C2 7710   7.681   6.949  11.641  0.2536  0.2678 -0.2241
  484POPI    C3 7711   7.977   6.796  11.862  0.0681  0.0459 -0.1249
  484POPI   PO4 7712   7.835   6.608  11.230 -0.1819  0.2508  0.0336
  484POPI   GL1 7713   7.973   6.893  10.833  0.1004 -0.1064 -0.3083
  484POPI   GL2 7714   8.307   6.710  10.823  0.2009  0.3148  0.2007
  484POPI   C1A 7715   7.780   6.819  10.535  0.1287  0.0156 -0.0576
  484POPI   D2A 7716   7.845   6.538  10.146 -0.2631 -0.1517 -0.1554
  484POPI   C3A 7717   7.789   6.514   9.703  0.2380  0.3009 -0.0044
  484POPI   C4A 7718   7.815   6.480   9.272 -0.0242 -0.2146 -0.2179
  484POPI   C1B 7719   8.234   6.817  10.394  0.3447  0.0340 -0.0026
  484POPI   C2B 7720   8.216   6.862   9.933  0.0447  0.0482  0.1631
  484POPI   C3B 7721   8.147   6.772   9.501 -0.0990 -0.0511 -0.0105
  484POPI   C4B 7722   8.117   6.879   9.142 -0.1300  0.3973  0.0799
  485POPI    C1 7723  15.445   9.942  11.125  0.1872  0.2363  0.0589
  485POPI    C2 7724  15.316  10.307  11.226  0.1238  0.2050  0.0924
  485POPI    C3 7725  15.559  10.105  11.472  0.1373  0.2136  0.0861
  485POPI   PO4 7726  15.284   9.836  10.978 -0.3813  0.0025 -0.0752
  485POPI   GL1 7727  15.237   9.749  10.539 -0.0554 -0.0062  0.1505
  485POPI   GL2 7728  15.275  10.075  10.347 -0.2144 -0.1144 -0.2011
  485POPI   C1A 7729  15.012   9.595  10.220  0.2415 -0.0307  0.0037
  485POPI   D2A 7730  15.079   9.560   9.718 -0.2213 -0.0477  0.2102
  485POPI   C3A 7731  15.050   9.372   9.361  0.1242 -0.0972 -0.0490
  485POPI   C4A 7732  15.041   9.539   8.949  0.2204  0.3642 -0.1902
  485POPI   C1B 7733  15.337   9.916   9.959  0.1528 -0.0351 -0.0886
  485POPI   C2B 7734  15.411   9.932   9.510  0.0418 -0.3224  0.0042
  485POPI   C3B 7735  15.401   9.914   9.047 -0.2568  0.1449 -0.0115
  485POPI   C4B 7736  15.351   9.948   8.648  0.0714  0.0161  0.1949
  486POPI    C1 7737   5.690   5.021  11.130  0.0603  0.1469 -0.3025
  486POPI    C2 7738   5.373   4.854  11.308  0.1667  0.0405 -0.2107
  486POPI    C3 7739   5.651   5.040  11.528  0.3395 -0.1607 -0.2554
  486POPI   PO4 7740   5.646   5.085  10.838  0.1236  0.0529  0.2682
  486POPI   GL1 7741   5.675   4.988  10.420 -0.3468  0.0262  0.0093
  486POPI   GL2 7742   5.764   5.276  10.364 -0.1702  0.0089 -0.3777
  486POPI   C1A 7743   5.423   4.815   9.969  0.1709  0.1101  0.0227
  486POPI   D2A 7744   5.456   4.892   9.488  0.0347 -0.1145 -0.1638
  486POPI   C3A 7745   5.434   4.785   9.026 -0.0740  0.0354 -0.1911
  486POPI   C4A 7746   5.556   4.802   8.610 -0.0732  0.1100 -0.0177
  486POPI   C1B 7747   5.772   5.322   9.969  0.1562  0.0497 -0.1892
  486POPI   C2B 7748   5.784   5.187   9.570  0.3744 -0.0459 -0.0624
  486POPI   C3B 7749   5.859   5.067   9.185 -0.2547 -0.0925  0.1960
  486POPI   C4B 7750   5.850   5.161   8.747  0.0517  0.1323  0.1145
  487POPI    C1 7751  12.179   4.840  11.669  0.0169 -0.0626  0.2515
  487POPI    C2 7752  11.961   4.576  11.876 -0.1556 -0.1346 -0.0174
  487POPI    C3 7753  11.931   4.966  11.957  0.1403 -0.1955  0.4182
  487POPI   PO4 7754  12.199   4.842  11.450  0.0594  0.1293  0.2711
  487POPI   GL1 7755  12.168   4.629  11.051  0.2823 -0.0213 -0.2332
  487POPI   GL2 7756  11.981   4.817  10.919 -0.0057  0.2493 -0.2181
  487POPI   C1A 7757  12.401   4.531  10.672 -0.1096 -0.0117 -0.1560
  487POPI   D2A 7758  12.478   4.637  10.190  0.1829 -0.0615  0.0347
  487POPI   C3A 7759  12.458   4.560   9.778 -0.1341 -0.1612 -0.0346
  487POPI   C4A 7760  12.567   4.671   9.362 -0.0211  0.3868 -0.0263
  487POPI   C1B 7761  12.012   4.788  10.430 -0.0259 -0.0790  0.0054
  487POPI   C2B 7762  12.024   4.801   9.935  0.0677 -0.0395  0.2173
  487POPI   C3B 7763  12.106   4.787   9.498  0.2724  0.1316  0.0062
  487POPI   C4B 7764  12.219   4.837   9.079 -0.2723 -0.0685  0.0716
  488POPI    C1 7765  11.357   3.534  11.235 -0.1046 -0.1095  0.0692
  488POPI    C2 7766  11.456   3.757  11.551 -0.0445  0.0270 -0.0448
  488POPI    C3 7767  11.286   3.399  11.604  0.0171  0.0244  0.1425
  488POPI   PO4 7768  11.586   3.546  11.059 -0.1101  0.2127 -0.1808
  488POPI   GL1 7769  11.697   3.813  10.736  0.1553 -0.2450  0.1699
  488POPI   GL2 7770  12.026   3.621  10.901  0.1837 -0.0736  0.1855
  488POPI   C1A 7771  11.565   3.773  10.251  0.1161 -0.0066  0.0182
  488POPI   D2A 7772  11.655   4.005   9.916 -0.1299 -0.0617  0.1371
  488POPI   C3A 7773  11.781   3.851   9.514  0.2590 -0.0672  0.0988
  488POPI   C4A 7774  11.780   4.004   9.041 -0.0436 -0.2765  0.3569
  488POPI   C1B 7775  12.170   3.723  10.546  0.0611  0.1502 -0.1277
  488POPI   C2B 7776  12.094   3.760  10.155  0.0291  0.0554  0.1315
  488POPI   C3B 7777  12.224   3.686   9.717 -0.0371 -0.2648  0.0982
  488POPI   C4B 7778  12.279   3.741   9.324  0.0350 -0.0377 -0.3076
  489POPI    C1 7779   3.881  16.753  11.071  0.0883  0.1816 -0.0150
  489POPI    C2 7780   3.728  17.011  11.336 -0.1423 -0.0133  0.0445
  489POPI    C3 7781   4.109  16.892  11.369 -0.1777 -0.0608  0.3093
  489POPI   PO4 7782   3.892  16.848  10.867  0.0527 -0.0930 -0.5690
  489POPI   GL1 7783   3.976  16.855  10.476 -0.2133  0.0280  0.0121
  489POPI   GL2 7784   3.752  17.071  10.442 -0.0392 -0.0114  0.0673
  489POPI   C1A 7785   3.930  16.758   9.957  0.0545  0.3573  0.0332
  489POPI   D2A 7786   4.066  16.691   9.539  0.0688  0.0028  0.4369
  489POPI   C3A 7787   3.940  16.802   9.097  0.2340  0.2044  0.0766
  489POPI   C4A 7788   4.035  17.017   8.682 -0.0912  0.1789  0.1424
  489POPI   C1B 7789   3.702  17.240   9.969 -0.0909  0.2972  0.1418
  489POPI   C2B 7790   3.821  17.308   9.469 -0.0200  0.0535 -0.0574
  489POPI   C3B 7791   3.847  17.408   9.031  0.0148  0.2477  0.0193
  489POPI   C4B 7792   3.972  17.479   8.659  0.0676  0.0416 -0.1932
  490POPI    C1 7793  16.664   1.389  10.951  0.0628 -0.0411 -0.0339
  490POPI    C2 7794  17.018   1.548  11.049  0.1031 -0.3145  0.2829
  490POPI    C3 7795  16.679   1.716  11.181  0.1285 -0.2663  0.2875
  490POPI   PO4 7796  16.705   1.072  10.960  0.1617  0.0976 -0.2053
  490POPI   GL1 7797  16.679   0.784  10.596  0.3236 -0.0017  0.0689
  490POPI   GL2 7798  16.965   0.994  10.567  0.1147 -0.0420  0.1186
  490POPI   C1A 7799  16.564   0.923  10.221 -0.1866 -0.3433 -0.2282
  490POPI   D2A 7800  16.550   1.006   9.850  0.2070  0.0562 -0.0644
  490POPI   C3A 7801  16.587   1.061   9.480  0.0954  0.1644 -0.2874
  490POPI   C4A 7802  16.682   0.979   9.028  0.1766 -0.1560  0.0452
  490POPI   C1B 7803  17.071   0.800  10.121 -0.0182  0.1520  0.2056
  490POPI   C2B 7804  16.979   0.770   9.651 -0.2065 -0.2042  0.4560
  490POPI   C3B 7805  17.128   0.884   9.282 -0.1084  0.0395 -0.1428
  490POPI   C4B 7806  17.205   0.802   8.893  0.0464 -0.0562  0.4203
  491POPI    C1 7807  11.534   8.206  11.194 -0.0646 -0.1526 -0.1663
  491POPI    C2 7808  11.698   8.460  11.457 -0.0166 -0.1410 -0.2074
  491POPI    C3 7809  11.354   8.276  11.545  0.0236 -0.1735 -0.1164
  491POPI   PO4 7810  11.518   8.391  10.951  0.1322  0.2016 -0.1485
  491POPI   GL1 7811  11.352   8.399  10.519  0.1785  0.2134 -0.0409
  491POPI   GL2 7812  11.514   8.111  10.558  0.0408  0.0255  0.0871
  491POPI   C1A 7813  11.597   8.374  10.140 -0.0195  0.1078 -0.0682
  491POPI   D2A 7814  11.734   8.115   9.919 -0.0565  0.1232  0.0970
  491POPI   C3A 7815  11.660   8.104   9.362  0.0203 -0.3058 -0.0438
  491POPI   C4A 7816  11.664   8.228   8.953 -0.0010 -0.2260 -0.0521
  491POPI   C1B 7817  11.903   8.016  10.402 -0.1185 -0.0057 -0.0803
  491POPI   C2B 7818  12.158   7.882  10.168  0.2671  0.2115  0.0864
  491POPI   C3B 7819  12.223   7.974   9.706  0.0460 -0.0480 -0.1520
  491POPI   C4B 7820  12.130   8.087   9.227 -0.0058 -0.0258 -0.0827
  492POPI    C1 7821   2.372   4.267  11.256  0.0653  0.0117  0.0605
  492POPI    C2 7822   2.468   4.351  11.635  0.2216  0.1062  0.0006
  492POPI    C3 7823   2.752   4.348  11.352  0.1059  0.0347 -0.1154
  492POPI   PO4 7824   2.223   3.992  11.166  0.1799  0.0888 -0.1488
  492POPI   GL1 7825   2.145   3.814  10.769 -0.0209  0.4188  0.1292
  492POPI   GL2 7826   2.407   3.729  10.707 -0.1237 -0.0784 -0.0993
  492POPI   C1A 7827   1.956   3.866  10.420 -0.1164  0.4438  0.1554
  492POPI   D2A 7828   1.860   3.970   9.994 -0.2413  0.3354  0.0554
  492POPI   C3A 7829   1.951   3.856   9.561  0.0067 -0.1670 -0.0910
  492POPI   C4A 7830   2.066   3.810   9.153 -0.0705  0.3585  0.1829
  492POPI   C1B 7831   2.378   3.769  10.206 -0.0497  0.1266 -0.1061
  492POPI   C2B 7832   2.395   3.648   9.861  0.0364 -0.2905  0.1311
  492POPI   C3B 7833   2.454   3.644   9.447 -0.1885  0.0677 -0.1930
  492POPI   C4B 7834   2.505   3.762   8.943 -0.2527 -0.2022 -0.1579
  493POPI    C1 7835   5.312   2.685  11.528 -0.0195  0.0823 -0.0396
  493POPI    C2 7836   5.496   3.003  11.687  0.1120  0.0570 -0.1394
  493POPI    C3 7837   5.148   2.877  11.839  0.1931  0.0842  0.0737
  493POPI   PO4 7838   5.205   2.731  11.259  0.2065 -0.2640  0.1436
  493POPI   GL1 7839   5.071   2.617  10.874  0.2941  0.3999 -0.2309
  493POPI   GL2 7840   5.273   2.848  10.756 -0.0385  0.2460 -0.2634
  493POPI   C1A 7841   5.006   2.566  10.432  0.0787 -0.0432  0.1896
  493POPI   D2A 7842   4.886   2.517  10.054 -0.0138  0.1654  0.1470
  493POPI   C3A 7843   5.038   2.546   9.693  0.1598  0.2144 -0.0233
  493POPI   C4A 7844   5.041   2.514   9.254  0.0207  0.2720  0.0415
  493POPI   C1B 7845   5.369   2.911  10.329 -0.1151 -0.1332 -0.0269
  493POPI   C2B 7846   5.388   2.834   9.900 -0.0338 -0.2771 -0.0338
  493POPI   C3B 7847   5.394   2.875   9.476 -0.0512  0.2227  0.2098
  493POPI   C4B 7848   5.517   2.946   9.110  0.0984 -0.1259  0.3327
  494POPI    C1 7849  17.704   8.297  11.172  0.1727  0.1143 -0.1989
  494POPI    C2 7850  17.876   8.561  11.418  0.1520  0.2597 -0.3391
  494POPI    C3 7851  17.608   8.301  11.560  0.0489  0.4233 -0.2298
  494POPI   PO4 7852  17.946   8.250  10.925 -0.2844 -0.3629 -0.0294
  494POPI   GL1 7853  18.123   8.114  10.530  0.2052  0.0619 -0.2388
  494POPI   GL2 7854  18.097   8.515  10.373  0.1199  0.3737 -0.2053
  494POPI   C1A 7855  18.212   8.015  10.123 -0.2345 -0.2000  0.0516
  494POPI   D2A 7856  18.224   8.121   9.640  0.0808  0.0799 -0.0645
  494POPI   C3A 7857  18.148   8.107   9.176  0.0422 -0.0468 -0.0887
  494POPI   C4A 7858  18.106   8.038   8.810  0.2637 -0.0636 -0.0637
  494POPI   C1B 7859  18.079   8.585   9.876  0.0552  0.0811 -0.1733
  494POPI   C2B 7860  18.084   8.659   9.373 -0.1030 -0.1926  0.0852
  494POPI   C3B 7861  18.088   8.635   8.929 -0.0628  0.0010 -0.0869
  494POPI   C4B 7862  17.863   8.514   8.535  0.0790  0.1335  0.0095
  495POPI    C1 7863   6.208   9.380  11.259 -0.1462  0.0504  0.0146
  495POPI    C2 7864   6.204   9.778  11.306  0.1187  0.0220  0.3083
  495POPI    C3 7865   6.212   9.538  11.627  0.0625 -0.2195  0.1322
  495POPI   PO4 7866   5.980   9.321  11.041 -0.0449  0.1779  0.0480
  495POPI   GL1 7867   6.044   9.266  10.523  0.0718  0.0983  0.1520
  495POPI   GL2 7868   5.699   9.214  10.471  0.1774 -0.1665 -0.0406
  495POPI   C1A 7869   6.144   9.388  10.184  0.1280 -0.0666 -0.1688
  495POPI   D2A 7870   6.135   9.510   9.734  0.0076  0.0176 -0.1222
  495POPI   C3A 7871   6.301   9.328   9.416  0.0324  0.0550 -0.1218
  495POPI   C4A 7872   6.264   9.254   8.970 -0.0760 -0.0931  0.0233
  495POPI   C1B 7873   5.789   9.020  10.097 -0.0841  0.0769 -0.1474
  495POPI   C2B 7874   5.807   9.075   9.639 -0.1505 -0.0945  0.2015
  495POPI   C3B 7875   5.896   8.944   9.253 -0.1324 -0.3301  0.1431
  495POPI   C4B 7876   5.746   8.802   8.932  0.1253  0.0464 -0.1973
  496POPI    C1 7877   3.753   0.753  11.433  0.0761  0.0559  0.0355
  496POPI    C2 7878   3.895   0.513  11.719  0.1432 -0.1573 -0.1730
  496POPI    C3 7879   3.503   0.587  11.697  0.1766  0.1694  0.2038
  496POPI   PO4 7880   3.821   0.653  11.227  0.0537 -0.0286 -0.0997
  496POPI   GL1 7881   3.816   0.707  10.805 -0.2005 -0.0725  0.0484
  496POPI   GL2 7882   3.475   0.794  10.689  0.0128  0.0728  0.0978
  496POPI   C1A 7883   3.908   0.775  10.322 -0.2147 -0.5005 -0.1145
  496POPI   D2A 7884   4.131   0.799   9.927 -0.1555 -0.1996  0.3569
  496POPI   C3A 7885   3.973   0.873   9.600 -0.2945  0.4182  0.0520
  496POPI   C4A 7886   4.000   0.930   9.131 -0.2510 -0.1883  0.0366
  496POPI   C1B 7887   3.447   0.951  10.297 -0.2017  0.0214 -0.3135
  496POPI   C2B 7888   3.421   0.984   9.875  0.0785 -0.2151  0.0714
  496POPI   C3B 7889   3.471   1.030   9.449 -0.2595  0.1948 -0.1407
  496POPI   C4B 7890   3.512   1.126   8.942  0.0015 -0.3550  0.1174
  497POPI    C1 7891   4.915  14.488  10.795 -0.0250  0.1973 -0.0478
  497POPI    C2 7892   4.751  14.318  11.118 -0.0060  0.1208 -0.0780
  497POPI    C3 7893   5.140  14.267  11.042 -0.0544 -0.0378 -0.2270
  497POPI   PO4 7894   4.739  14.759  10.651  0.0078  0.0630  0.0060
  497POPI   GL1 7895   4.619  14.933  10.290  0.0901  0.0103  0.0579
  497POPI   GL2 7896   4.399  15.232  10.239 -0.2319  0.2582  0.3577
  497POPI   C1A 7897   4.875  14.950   9.783  0.0265  0.2827 -0.4280
  497POPI   D2A 7898   4.829  15.029   9.311 -0.0013  0.1536 -0.1378
  497POPI   C3A 7899   4.677  15.167   8.972  0.1637  0.3737  0.1020
  497POPI   C4A 7900   4.683  15.239   8.567 -0.1135 -0.1869  0.0442
  497POPI   C1B 7901   4.288  15.204   9.790  0.1627  0.0733 -0.0449
  497POPI   C2B 7902   4.287  15.239   9.322  0.0153 -0.2271  0.0631
  497POPI   C3B 7903   4.208  15.172   8.801 -0.0488 -0.1006  0.0595
  497POPI   C4B 7904   4.283  15.154   8.314  0.1481 -0.0003 -0.0132
  498POPI    C1 7905   2.944  11.531  10.739  0.1117 -0.0332  0.1392
  498POPI    C2 7906   2.725  11.477  11.070 -0.2581 -0.0264 -0.0981
  498POPI    C3 7907   3.125  11.469  11.090 -0.2766 -0.0709  0.3380
  498POPI   PO4 7908   2.886  11.404  10.567  0.2368 -0.1709 -0.0803
  498POPI   GL1 7909   3.030  11.509  10.239 -0.1769  0.0747  0.2873
  498POPI   GL2 7910   2.644  11.522  10.125  0.1053 -0.0683  0.2660
  498POPI   C1A 7911   2.996  11.174   9.952 -0.0784  0.3109 -0.2700
  498POPI   D2A 7912   2.993  11.114   9.472  0.0642 -0.2314  0.1816
  498POPI   C3A 7913   2.957  11.177   9.012  0.3303  0.1581 -0.0817
  498POPI   C4A 7914   2.886  11.282   8.641  0.1264 -0.2094 -0.0707
  498POPI   C1B 7915   2.670  11.480   9.696 -0.0721  0.0271 -0.1792
  498POPI   C2B 7916   2.585  11.404   9.299 -0.0129  0.0874  0.1768
  498POPI   C3B 7917   2.351  11.458   8.944 -0.3078 -0.0974 -0.0149
  498POPI   C4B 7918   2.285  11.387   8.549 -0.3670  0.3685 -0.3553
  499POPI    C1 7919   9.847  12.093  10.620  0.1099  0.0742 -0.0414
  499POPI    C2 7920  10.189  12.198  10.800  0.0434 -0.0676  0.1706
  499POPI    C3 7921   9.870  12.095  11.019 -0.0730 -0.1357 -0.0277
  499POPI   PO4 7922   9.922  11.905  10.453  0.1500 -0.1491  0.2407
  499POPI   GL1 7923   9.903  11.832   9.992  0.1439  0.1619  0.1277
  499POPI   GL2 7924   9.875  12.114   9.785 -0.1063  0.0792  0.1905
  499POPI   C1A 7925   9.790  11.457   9.645  0.1654  0.1657 -0.3246
  499POPI   D2A 7926   9.978  11.030   9.543 -0.0195  0.0369 -0.0031
  499POPI   C3A 7927  10.007  10.948   9.022  0.2195 -0.0579 -0.1691
  499POPI   C4A 7928   9.906  10.890   8.601  0.0055 -0.0859  0.0470
  499POPI   C1B 7929   9.980  11.837   9.470  0.0920 -0.0861 -0.0103
  499POPI   C2B 7930   9.825  11.966   9.072 -0.2160 -0.1728 -0.1599
  499POPI   C3B 7931   9.723  11.837   8.687  0.1299  0.1476 -0.1485
  499POPI   C4B 7932   9.781  11.766   8.187  0.1528 -0.1305 -0.3253
  500POPI    C1 7933   7.603  14.021  10.275 -0.1783  0.2165  0.0546
  500POPI    C2 7934   7.920  13.977  10.515  0.0900  0.0463 -0.3208
  500POPI    C3 7935   7.569  13.812  10.614  0.1588  0.0979  0.0193
  500POPI   PO4 7936   7.682  14.055  10.022 -0.1640 -0.3267  0.1312
  500POPI   GL1 7937   7.536  13.851   9.574 -0.2787  0.1284  0.0116
  500POPI   GL2 7938   7.243  13.909   9.725  0.0320  0.0773 -0.0290
  500POPI   C1A 7939   7.550  13.736   9.148 -0.0166  0.0152 -0.1653
  500POPI   D2A 7940   7.505  13.710   8.742  0.3632 -0.1752 -0.1148
  500POPI   C3A 7941   7.747  13.748   8.413  0.0875  0.3151  0.0703
  500POPI   C4A 7942   7.908  13.707   7.964 -0.3144  0.0380  0.2193
  500POPI   C1B 7943   7.028  13.851   9.282  0.1452 -0.1608  0.0323
  500POPI   C2B 7944   7.017  13.906   8.850 -0.0562  0.1370  0.0360
  500POPI   C3B 7945   7.131  13.906   8.436  0.1763 -0.0775 -0.1348
  500POPI   C4B 7946   6.829  14.041   8.238  0.1498 -0.0801 -0.1592
  501POPI    C1 7947   9.501  12.119  10.287  0.0160 -0.0083 -0.0534
  501POPI    C2 7948   9.226  12.337  10.479  0.0720 -0.0959  0.1286
  501POPI    C3 7949   9.149  11.956  10.385  0.1195 -0.1116  0.1534
  501POPI   PO4 7950   9.582  12.276  10.148 -0.0358 -0.0464 -0.1682
  501POPI   GL1 7951   9.349  12.308   9.773 -0.0845  0.0844  0.0545
  501POPI   GL2 7952   9.142  12.094   9.890 -0.3590 -0.0467 -0.1060
  501POPI   C1A 7953   9.152  12.394   9.422 -0.1193  0.1513 -0.1000
  501POPI   D2A 7954   8.986  12.504   8.979  0.0210 -0.4193 -0.2059
  501POPI   C3A 7955   9.090  12.312   8.720  0.2202 -0.1518 -0.1240
  501POPI   C4A 7956   8.932  12.288   8.340  0.3587 -0.1396  0.3490
  501POPI   C1B 7957   8.991  11.868   9.613  0.1413 -0.1445 -0.1566
  501POPI   C2B 7958   8.798  12.015   9.301  0.0632 -0.1795  0.0106
  501POPI   C3B 7959   8.779  11.936   8.860  0.0698 -0.1605  0.0974
  501POPI   C4B 7960   8.585  11.925   8.479  0.0360 -0.0011  0.0930
  502POPI    C1 7961   4.550   4.165  11.022 -0.1402 -0.1830  0.0671
  502POPI    C2 7962   4.669   4.343  11.360 -0.0001 -0.0554 -0.0479
  502POPI    C3 7963   4.781   3.967  11.281  0.0726 -0.0414 -0.0122
  502POPI   PO4 7964   4.628   4.351  10.873  0.1847 -0.0002 -0.2907
  502POPI   GL1 7965   4.907   4.459  10.560 -0.1124 -0.1172 -0.0179
  502POPI   GL2 7966   5.182   4.242  10.523 -0.2458 -0.0827  0.0916
  502POPI   C1A 7967   4.720   4.580  10.106  0.2397  0.0766  0.1298
  502POPI   D2A 7968   4.517   4.724   9.793  0.1003 -0.2748 -0.0829
  502POPI   C3A 7969   4.523   4.508   9.476 -0.0251  0.1249 -0.3647
  502POPI   C4A 7970   4.640   4.540   8.941  0.0721  0.3106  0.1644
  502POPI   C1B 7971   5.172   4.289  10.070  0.1118  0.1080  0.0962
  502POPI   C2B 7972   5.058   4.481   9.663 -0.1718  0.0066  0.2664
  502POPI   C3B 7973   4.979   4.441   9.252  0.0485  0.2275 -0.0600
  502POPI   C4B 7974   5.121   4.344   8.812  0.0585  0.1310  0.1788
  503POPI    C1 7975   7.354  14.716  10.637 -0.2170  0.0761 -0.0279
  503POPI    C2 7976   7.094  14.516  10.867 -0.0614 -0.0559  0.0347
  503POPI    C3 7977   7.244  14.866  10.992 -0.1456 -0.0198  0.0352
  503POPI   PO4 7978   7.228  14.698  10.430  0.2228 -0.0197 -0.0217
  503POPI   GL1 7979   7.230  14.789   9.926 -0.3830 -0.0701 -0.0237
  503POPI   GL2 7980   6.936  14.802  10.053 -0.2272  0.3045 -0.0622
  503POPI   C1A 7981   7.281  14.858   9.547 -0.0681 -0.0017 -0.0188
  503POPI   D2A 7982   7.216  15.003   9.108  0.1249  0.2510  0.3323
  503POPI   C3A 7983   7.096  15.031   8.577 -0.1194 -0.0474 -0.1367
  503POPI   C4A 7984   6.976  14.935   8.128 -0.1429 -0.1870 -0.1402
  503POPI   C1B 7985   6.853  14.981   9.611  0.0388  0.1278  0.1376
  503POPI   C2B 7986   6.736  14.992   9.244 -0.0525  0.1089  0.2187
  503POPI   C3B 7987   6.693  15.135   8.877 -0.0478  0.2040 -0.1511
  503POPI   C4B 7988   6.613  15.212   8.504 -0.0801 -0.3159  0.3018
  504POPI    C1 7989   9.349  16.830  10.354 -0.1549  0.0870  0.0052
  504POPI    C2 7990   9.626  17.110  10.283 -0.0045 -0.0349  0.1041
  504POPI    C3 7991   9.653  16.881  10.610 -0.2367 -0.0313  0.1272
  504POPI   PO4 7992   9.396  16.637  10.144  0.2411 -0.0031  0.0275
  504POPI   GL1 7993   9.348  16.477   9.824 -0.0555 -0.0344  0.3789
  504POPI   GL2 7994   9.127  16.512   9.703 -0.0264 -0.0267  0.3405
  504POPI   C1A 7995   9.613  16.470   9.447  0.1182 -0.1860 -0.1343
  504POPI   D2A 7996   9.800  16.604   9.038 -0.0833  0.0794 -0.0519
  504POPI   C3A 7997   9.501  16.517   8.757  0.0999 -0.0913  0.1863
  504POPI   C4A 7998   9.405  16.542   8.335  0.1534 -0.2287  0.0527
  504POPI   C1B 7999   9.082  16.587   9.225  0.0666 -0.1645 -0.1565
  504POPI   C2B 8000   9.011  16.719   8.881 -0.2947  0.0213  0.1255
  504POPI   C3B 8001   8.964  16.748   8.486  0.2640 -0.2406  0.0962
  504POPI   C4B 8002   8.767  16.886   8.142  0.0778  0.0715 -0.1501
  505POPI    C1 8003   2.748   2.921  11.515  0.2933  0.0964 -0.0037
  505POPI    C2 8004   2.577   3.024  11.862  0.3179  0.1430 -0.0054
  505POPI    C3 8005   2.550   2.647  11.729  0.1116  0.1777 -0.0655
  505POPI   PO4 8006   2.637   3.074  11.260 -0.0061  0.2367 -0.2072
  505POPI   GL1 8007   2.743   3.046  10.833  0.2218 -0.1864  0.0397
  505POPI   GL2 8008   2.486   3.245  10.782 -0.0074 -0.0500  0.1314
  505POPI   C1A 8009   2.673   2.780  10.530  0.2701 -0.2191  0.1020
  505POPI   D2A 8010   2.699   2.689  10.109 -0.1479  0.1231  0.5297
  505POPI   C3A 8011   2.600   2.646   9.658 -0.1973  0.1371 -0.2744
  505POPI   C4A 8012   2.482   2.585   9.123  0.1833  0.3696  0.2481
  505POPI   C1B 8013   2.652   3.352  10.300 -0.2064 -0.2030  0.0664
  505POPI   C2B 8014   2.663   3.178   9.928  0.0341 -0.0305 -0.1215
  505POPI   C3B 8015   2.497   3.135   9.447 -0.0997  0.1468  0.1440
  505POPI   C4B 8016   2.535   3.231   8.961  0.0620  0.0252 -0.1462
  506POPI    C1 8017  13.270   8.378  11.036  0.2538  0.3457  0.1006
  506POPI    C2 8018  12.991   8.653  11.119 -0.0149  0.1324 -0.0770
  506POPI    C3 8019  13.113   8.399  11.403 -0.0172  0.2119 -0.0047
  506POPI   PO4 8020  13.263   8.335  10.773  0.3531  0.0445  0.1401
  506POPI   GL1 8021  13.492   8.173  10.466  0.0287  0.3486 -0.3116
  506POPI   GL2 8022  13.293   7.901  10.444  0.0282  0.0862  0.3408
  506POPI   C1A 8023  13.523   8.107   9.967  0.0869  0.3435 -0.1285
  506POPI   D2A 8024  13.533   8.090   9.470  0.2283  0.1926 -0.0098
  506POPI   C3A 8025  13.569   8.037   9.027 -0.1524 -0.1429  0.1346
  506POPI   C4A 8026  13.403   7.930   8.657  0.0613 -0.0334  0.4680
  506POPI   C1B 8027  13.194   7.704  10.085 -0.1435  0.1850 -0.0296
  506POPI   C2B 8028  13.190   7.699   9.608 -0.2556  0.0321 -0.0568
  506POPI   C3B 8029  13.177   7.692   9.188  0.1420  0.0170  0.0295
  506POPI   C4B 8030  13.086   7.605   8.764 -0.0651 -0.0171  0.0446
  507POPI    C1 8031   4.148   5.063  10.949  0.1567  0.0204 -0.0101
  507POPI    C2 8032   4.082   4.901  11.309  0.0569 -0.2479 -0.1473
  507POPI    C3 8033   4.140   5.295  11.275 -0.1341 -0.1925  0.1383
  507POPI   PO4 8034   3.963   4.914  10.826 -0.4034  0.0429  0.2341
  507POPI   GL1 8035   3.753   4.733  10.509 -0.3368 -0.3097  0.2373
  507POPI   GL2 8036   3.593   4.635  10.331  0.0208  0.0264  0.0596
  507POPI   C1A 8037   4.170   4.818  10.232  0.1788  0.1774  0.0072
  507POPI   D2A 8038   4.452   5.160  10.018 -0.0255 -0.0928  0.2682
  507POPI   C3A 8039   4.412   5.159   9.595  0.0315 -0.0914  0.0939
  507POPI   C4A 8040   4.451   5.057   9.120  0.0513 -0.0173 -0.0243
  507POPI   C1B 8041   3.821   4.624   9.917 -0.0699  0.1123 -0.0696
  507POPI   C2B 8042   4.084   4.744   9.599  0.1139  0.2996 -0.2347
  507POPI   C3B 8043   4.154   4.674   9.196  0.0975 -0.2703  0.0452
  507POPI   C4B 8044   4.136   4.642   8.835  0.1645 -0.0772  0.0902
  508POPI    C1 8045  16.240   8.059  11.152  0.1630 -0.0828 -0.0966
  508POPI    C2 8046  16.357   8.025  11.533  0.2305 -0.0379 -0.1132
  508POPI    C3 8047  16.063   7.793  11.393  0.0819  0.0712  0.0150
  508POPI   PO4 8048  16.405   8.052  11.002 -0.0724  0.1240  0.1870
  508POPI   GL1 8049  16.592   7.933  10.536  0.0103 -0.1682  0.0079
  508POPI   GL2 8050  16.431   8.268  10.512  0.1619  0.0740 -0.0429
  508POPI   C1A 8051  16.429   7.792  10.144 -0.4167  0.0570  0.1412
  508POPI   D2A 8052  16.410   7.662   9.851 -0.1625  0.0371 -0.2559
  508POPI   C3A 8053  16.394   7.694   9.448 -0.0879  0.2334 -0.0129
  508POPI   C4A 8054  16.445   7.797   9.066 -0.0930  0.1984 -0.0445
  508POPI   C1B 8055  16.284   8.218  10.106  0.1124 -0.3646  0.1373
  508POPI   C2B 8056  16.307   8.178   9.655 -0.0041 -0.0897  0.0215
  508POPI   C3B 8057  16.320   8.235   9.289 -0.2907  0.1680  0.1461
  508POPI   C4B 8058  16.271   8.327   8.797  0.0829 -0.1546  0.1911
  509POPI    C1 8059   2.420  11.389  10.671  0.2888 -0.0683 -0.0455
  509POPI    C2 8060   2.310  11.101  10.416 -0.0959  0.1230 -0.1026
  509POPI    C3 8061   2.179  11.094  10.794  0.2260  0.0058  0.0103
  509POPI   PO4 8062   2.352  11.653  10.553 -0.1836 -0.0247  0.0183
  509POPI   GL1 8063   2.369  12.085  10.336 -0.0015 -0.0218  0.0526
  509POPI   GL2 8064   2.131  12.100  10.368 -0.1323 -0.3983  0.2205
  509POPI   C1A 8065   2.407  11.924   9.835 -0.1089  0.0298  0.0711
  509POPI   D2A 8066   2.475  11.865   9.425  0.3200 -0.0121  0.0533
  509POPI   C3A 8067   2.201  11.953   9.119 -0.1615 -0.2270 -0.4338
  509POPI   C4A 8068   2.241  11.908   8.660 -0.0582  0.2716  0.0276
  509POPI   C1B 8069   1.945  12.025  10.026  0.0363  0.1655 -0.0642
  509POPI   C2B 8070   1.833  12.094   9.649  0.0557 -0.2791 -0.0172
  509POPI   C3B 8071   1.759  12.127   9.203  0.3113 -0.1538 -0.2145
  509POPI   C4B 8072   1.786  12.064   8.764 -0.1092  0.1735  0.0036
  510POPI    C1 8073   4.090   0.299  11.020 -0.1879  0.2310  0.0690
  510POPI    C2 8074   4.270   0.011  11.231 -0.2337  0.0566 -0.1269
  510POPI    C3 8075   4.251   0.383  11.376  0.1720  0.0506 -0.0457
  510POPI   PO4 8076   3.948   0.155  10.852  0.1465  0.1066 -0.2482
  510POPI   GL1 8077   3.920   0.257  10.422  0.3601 -0.2003 -0.1373
  510POPI   GL2 8078   3.592   0.350  10.479 -0.1247  0.2698  0.1885
  510POPI   C1A 8079   4.119   0.341  10.060 -0.0039  0.1726  0.1790
  510POPI   D2A 8080   4.086   0.374   9.624  0.0665 -0.0701 -0.3157
  510POPI   C3A 8081   4.153   0.445   9.183 -0.0603 -0.0863 -0.0501
  510POPI   C4A 8082   4.210   0.510   8.689 -0.1986  0.1918 -0.4136
  510POPI   C1B 8083   3.581   0.509  10.066 -0.1809  0.1616 -0.0010
  510POPI   C2B 8084   3.617   0.515   9.673  0.2601  0.0175 -0.1302
  510POPI   C3B 8085   3.649   0.592   9.277  0.1228 -0.0837 -0.3084
  510POPI   C4B 8086   3.689   0.621   8.860  0.0283  0.1405  0.1761
  511POPI    C1 8087  12.970   5.494  11.600  0.1201 -0.0014 -0.1216
  511POPI    C2 8088  13.290   5.500  11.839 -0.0409  0.0592  0.0965
  511POPI    C3 8089  13.024   5.798  11.854 -0.1266 -0.0081 -0.0578
  511POPI   PO4 8090  13.026   5.440  11.347 -0.3163  0.1143  0.1347
  511POPI   GL1 8091  12.911   5.307  10.905  0.2688  0.0657 -0.1900
  511POPI   GL2 8092  13.203   5.188  10.983  0.1890  0.0585 -0.0120
  511POPI   C1A 8093  12.709   5.481  10.569 -0.2497 -0.1502  0.0024
  511POPI   D2A 8094  12.671   5.542  10.206 -0.0656  0.1229 -0.1617
  511POPI   C3A 8095  12.794   5.387   9.856 -0.0509 -0.0530 -0.1155
  511POPI   C4A 8096  12.834   5.431   9.436 -0.3672  0.0954 -0.0161
  511POPI   C1B 8097  13.220   5.272  10.543 -0.0005  0.0837 -0.0730
  511POPI   C2B 8098  13.252   5.348  10.079  0.1607 -0.1135  0.1683
  511POPI   C3B 8099  13.275   5.220   9.685  0.3716 -0.1929 -0.0506
  511POPI   C4B 8100  13.348   5.304   9.247  0.0023 -0.3065  0.1211
  512POPI    C1 8101   6.880   6.928  11.278 -0.0656 -0.0922  0.0670
  512POPI    C2 8102   7.169   7.014  11.541  0.0204 -0.3126  0.0467
  512POPI    C3 8103   6.835   6.830  11.663 -0.0612 -0.1638  0.0496
  512POPI   PO4 8104   6.997   6.834  11.085 -0.0171  0.0942 -0.0765
  512POPI   GL1 8105   6.858   6.953  10.636 -0.1571  0.1691 -0.2905
  512POPI   GL2 8106   6.933   6.610  10.628 -0.1498  0.0680  0.2544
  512POPI   C1A 8107   6.798   6.930  10.195 -0.0760  0.0759 -0.0154
  512POPI   D2A 8108   6.817   6.784   9.779  0.0969  0.0742  0.0087
  512POPI   C3A 8109   6.838   6.826   9.363 -0.1110  0.0270  0.3637
  512POPI   C4A 8110   6.793   6.774   8.921  0.0089 -0.1294 -0.1703
  512POPI   C1B 8111   6.879   6.418  10.208 -0.0009  0.0733 -0.0217
  512POPI   C2B 8112   6.949   6.308   9.787 -0.0981 -0.0565  0.1695
  512POPI   C3B 8113   6.926   6.310   9.290 -0.0328 -0.0084 -0.0092
  512POPI   C4B 8114   7.010   6.243   8.834  0.2028  0.0992 -0.0541
  513POPI    C1 8115   2.601  13.035  11.086  0.0118  0.0906 -0.2915
  513POPI    C2 8116   2.285  13.280  11.101 -0.1155 -0.0833 -0.0812
  513POPI    C3 8117   2.274  12.927  11.290  0.1559 -0.1483 -0.1827
  513POPI   PO4 8118   2.592  13.017  10.802  0.1001 -0.1064  0.0342
  513POPI   GL1 8119   2.594  13.398  10.424 -0.1115  0.1270 -0.0683
  513POPI   GL2 8120   2.828  13.565  10.353 -0.2795  0.1020  0.0788
  513POPI   C1A 8121   2.547  13.283  10.007 -0.1745 -0.2600  0.0463
  513POPI   D2A 8122   2.431  13.243   9.551 -0.1132  0.3560  0.2017
  513POPI   C3A 8123   2.411  13.337   9.141 -0.2644 -0.3235  0.0448
  513POPI   C4A 8124   2.238  13.283   8.779  0.3812 -0.2082  0.1981
  513POPI   C1B 8125   2.780  13.750  10.000  0.2111  0.1162 -0.0143
  513POPI   C2B 8126   2.801  13.690   9.508 -0.0458 -0.1334  0.2077
  513POPI   C3B 8127   2.778  13.698   9.111  0.0870  0.0411  0.3440
  513POPI   C4B 8128   2.703  13.685   8.788  0.1841  0.2269  0.0221
  514POPI    C1 8129   2.764  10.092  11.105  0.0381 -0.0321  0.1470
  514POPI    C2 8130   3.125  10.185  11.249  0.0214 -0.1149  0.2429
  514POPI    C3 8131   2.987   9.811  11.281  0.0230 -0.1380 -0.0003
  514POPI   PO4 8132   2.739  10.112  10.852  0.0756  0.0182 -0.3742
  514POPI   GL1 8133   2.413  10.087  10.528  0.0163  0.1889  0.2052
  514POPI   GL2 8134   2.476   9.821  10.475 -0.1467 -0.0070 -0.0681
  514POPI   C1A 8135   2.439  10.091  10.101  0.3650 -0.0427  0.0534
  514POPI   D2A 8136   2.389  10.060   9.717 -0.0946 -0.2972  0.1664
  514POPI   C3A 8137   2.268   9.929   9.366  0.3632 -0.1768 -0.0418
  514POPI   C4A 8138   2.217   9.789   8.984 -0.0502 -0.0539 -0.2069
  514POPI   C1B 8139   2.837   9.888  10.284  0.1759 -0.2271  0.0352
  514POPI   C2B 8140   2.867   9.921   9.882  0.2291 -0.2310 -0.2785
  514POPI   C3B 8141   2.784   9.835   9.486 -0.0749  0.1076 -0.2123
  514POPI   C4B 8142   2.701   9.694   9.056  0.2467 -0.1409  0.0037
  515POPI    C1 8143   1.886  12.300  10.957  0.0825 -0.1047 -0.2690
  515POPI    C2 8144   2.185  12.035  10.927  0.0144 -0.2077 -0.0549
  515POPI    C3 8145   2.246  12.386  11.110 -0.0107 -0.2536  0.0426
  515POPI   PO4 8146   1.863  12.378  10.776 -0.2023  0.0804  0.2432
  515POPI   GL1 8147   1.670  12.297  10.425 -0.2445 -0.2180 -0.1340
  515POPI   GL2 8148   1.402  12.453  10.345  0.1472 -0.2923 -0.0928
  515POPI   C1A 8149   1.786  12.647  10.104 -0.0063  0.0498 -0.1255
  515POPI   D2A 8150   1.658  12.559   9.738  0.1092  0.1190 -0.0274
  515POPI   C3A 8151   1.623  12.572   9.346 -0.3599  0.2467 -0.1102
  515POPI   C4A 8152   1.642  12.563   8.926  0.2052  0.0934 -0.0728
  515POPI   C1B 8153   1.440  12.192   9.992 -0.0590 -0.1870 -0.1899
  515POPI   C2B 8154   1.346  12.224   9.508 -0.3336 -0.0531  0.0783
  515POPI   C3B 8155   1.226  12.212   9.044  0.3136  0.5374  0.1051
  515POPI   C4B 8156   1.332  12.202   8.616 -0.0388 -0.1958 -0.2361
  516POPI    C1 8157  15.095  15.848  10.430 -0.0276  0.0188  0.1684
  516POPI    C2 8158  14.886  16.134  10.243  0.0734  0.1130  0.1986
  516POPI    C3 8159  14.725  15.940  10.554  0.0461  0.2144  0.2483
  516POPI   PO4 8160  15.340  15.860  10.317  0.0062 -0.2639  0.1773
  516POPI   GL1 8161  15.319  15.827   9.874 -0.0148  0.1734  0.1070
  516POPI   GL2 8162  15.497  15.567   9.709  0.0917  0.1185 -0.3949
  516POPI   C1A 8163  15.258  16.021   9.464 -0.1144  0.1211  0.0887
  516POPI   D2A 8164  15.253  16.141   9.034  0.1241 -0.0287 -0.1133
  516POPI   C3A 8165  15.298  16.171   8.627 -0.0251 -0.0595  0.2392
  516POPI   C4A 8166  15.290  16.150   8.264  0.0395 -0.3152 -0.3051
  516POPI   C1B 8167  15.527  15.602   9.306 -0.1194 -0.1793 -0.0701
  516POPI   C2B 8168  15.404  15.669   9.007 -0.2955 -0.0639  0.1572
  516POPI   C3B 8169  15.426  15.690   8.574  0.2073  0.1101 -0.0049
  516POPI   C4B 8170  15.510  15.651   8.202 -0.1114 -0.1417  0.0847
  517POPI    C1 8171  12.656   3.162  11.457 -0.1069 -0.1527  0.1560
  517POPI    C2 8172  12.734   3.449  11.724  0.0504  0.0491 -0.1025
  517POPI    C3 8173  12.356   3.336  11.657 -0.0093  0.1657  0.0317
  517POPI   PO4 8174  12.789   3.207  11.294 -0.1946 -0.0608  0.0233
  517POPI   GL1 8175  12.686   3.153  10.884 -0.2525  0.0674  0.0754
  517POPI   GL2 8176  12.954   2.925  10.868  0.0523  0.2277  0.1178
  517POPI   C1A 8177  12.645   3.460  10.567 -0.0948  0.3703 -0.1349
  517POPI   D2A 8178  12.591   3.671  10.203 -0.0487  0.0847 -0.4284
  517POPI   C3A 8179  12.730   3.550   9.857  0.0112 -0.2450  0.3120
  517POPI   C4A 8180  12.741   3.596   9.493 -0.1006 -0.1844 -0.3302
  517POPI   C1B 8181  12.886   3.066  10.406  0.1768  0.2948 -0.2706
  517POPI   C2B 8182  12.855   3.095  10.000  0.2032 -0.1266  0.1270
  517POPI   C3B 8183  12.895   3.089   9.613 -0.1076  0.0960 -0.1575
  517POPI   C4B 8184  12.966   3.200   9.188  0.2023 -0.0843  0.2766
  518POPI    C1 8185   7.260  10.167  10.724  0.1635 -0.1778  0.1406
  518POPI    C2 8186   7.227  10.326  11.090  0.2224  0.1316  0.0145
  518POPI    C3 8187   7.546  10.103  10.996  0.0654 -0.1949  0.2403
  518POPI   PO4 8188   7.093   9.988  10.709 -0.0982  0.2074  0.0765
  518POPI   GL1 8189   6.865   9.701  10.572  0.2104  0.0852 -0.0898
  518POPI   GL2 8190   7.029   9.486  10.622 -0.0681 -0.1244  0.0433
  518POPI   C1A 8191   6.726   9.390  10.221  0.3552 -0.0183 -0.3013
  518POPI   D2A 8192   6.631   9.295   9.809  0.0336 -0.4016 -0.1192
  518POPI   C3A 8193   6.767   9.096   9.561 -0.2410 -0.2195 -0.1783
  518POPI   C4A 8194   6.763   9.182   9.140 -0.1566  0.1253 -0.1349
  518POPI   C1B 8195   7.278   9.283  10.342  0.1711  0.1584  0.0115
  518POPI   C2B 8196   7.248   9.161   9.861  0.0002  0.1417 -0.1338
  518POPI   C3B 8197   7.226   8.977   9.588  0.0374  0.1273 -0.1507
  518POPI   C4B 8198   7.229   9.022   9.178  0.0904 -0.1866  0.0174
  519POPI    C1 8199   5.523  15.865  10.849 -0.0004  0.1276 -0.0312
  519POPI    C2 8200   5.389  16.045  11.181 -0.0136  0.1862 -0.0682
  519POPI    C3 8201   5.775  15.946  11.149 -0.0794 -0.1426  0.1116
  519POPI   PO4 8202   5.471  15.980  10.591  0.1913 -0.0501  0.0608
  519POPI   GL1 8203   5.118  16.117  10.344 -0.0972  0.2354  0.0680
  519POPI   GL2 8204   5.387  16.195  10.205  0.1376  0.0435  0.1177
  519POPI   C1A 8205   5.047  15.901  10.009 -0.2886  0.0927 -0.1103
  519POPI   D2A 8206   4.918  15.918   9.631 -0.1915 -0.0337  0.0789
  519POPI   C3A 8207   5.055  15.929   9.260 -0.1449  0.1677 -0.0201
  519POPI   C4A 8208   5.125  15.948   8.762 -0.0476 -0.2090  0.0616
  519POPI   C1B 8209   5.429  16.177   9.829 -0.1054  0.2258  0.0935
  519POPI   C2B 8210   5.431  16.237   9.359  0.1274 -0.0228 -0.2345
  519POPI   C3B 8211   5.410  16.310   9.016  0.2385 -0.2553 -0.0234
  519POPI   C4B 8212   5.326  16.473   8.679  0.1809 -0.0274 -0.1658
  520POPI    C1 8213  12.464   6.981  11.560  0.0668  0.0136 -0.0502
  520POPI    C2 8214  12.362   7.261  11.827  0.1955  0.1220 -0.1134
  520POPI    C3 8215  12.218   6.890  11.861  0.2066  0.1366  0.1035
  520POPI   PO4 8216  12.428   7.195  11.308  0.4213  0.0653  0.2983
  520POPI   GL1 8217  12.269   7.087  10.872 -0.0605 -0.1233 -0.0724
  520POPI   GL2 8218  12.547   7.018  10.713 -0.1271  0.2707  0.0545
  520POPI   C1A 8219  12.109   7.146  10.467 -0.2613  0.3374  0.4627
  520POPI   D2A 8220  11.901   7.214  10.007  0.0403 -0.1111  0.3413
  520POPI   C3A 8221  11.827   7.099   9.617 -0.0624 -0.0722  0.0013
  520POPI   C4A 8222  11.860   7.123   9.140 -0.0344  0.1894 -0.2904
  520POPI   C1B 8223  12.481   6.947  10.220  0.2388  0.0182 -0.3201
  520POPI   C2B 8224  12.415   6.993   9.789 -0.1659 -0.2308 -0.1022
  520POPI   C3B 8225  12.395   6.986   9.327  0.3796 -0.0947  0.1046
  520POPI   C4B 8226  12.391   7.011   8.829  0.1145 -0.0820 -0.0687
  521POPI    C1 8227  16.529   6.626  11.092 -0.0896  0.2221  0.1903
  521POPI    C2 8228  16.564   6.431  11.440  0.2004 -0.1589 -0.0446
  521POPI    C3 8229  16.259   6.349  11.194 -0.0153  0.1241  0.1215
  521POPI   PO4 8230  16.701   6.560  10.953  0.1341  0.0965 -0.0961
  521POPI   GL1 8231  17.066   6.552  10.676  0.2163 -0.3694  0.3770
  521POPI   GL2 8232  16.868   6.284  10.607  0.1407 -0.0299  0.0621
  521POPI   C1A 8233  17.248   6.641  10.339 -0.0544  0.0152 -0.0293
  521POPI   D2A 8234  17.189   6.527   9.922 -0.1262  0.0657  0.0482
  521POPI   C3A 8235  17.091   6.454   9.451 -0.3496 -0.0415  0.0366
  521POPI   C4A 8236  17.065   6.577   9.037  0.1880  0.1160 -0.0617
  521POPI   C1B 8237  16.761   6.284  10.148 -0.0374 -0.0920  0.0824
  521POPI   C2B 8238  16.813   6.171   9.800 -0.1024  0.1761 -0.0466
  521POPI   C3B 8239  16.769   6.106   9.403  0.1027  0.1331  0.1481
  521POPI   C4B 8240  16.769   6.216   8.951  0.2431 -0.0359  0.2410
  522POPI    C1 8241   2.285   6.519  11.147  0.0367  0.2832  0.0493
  522POPI    C2 8242   2.063   6.759  11.378 -0.1001  0.1996  0.0057
  522POPI    C3 8243   2.167   6.395  11.509 -0.0247  0.2220  0.0085
  522POPI   PO4 8244   2.443   6.798  11.036 -0.2657  0.0854  0.0248
  522POPI   GL1 8245   2.640   7.042  10.654  0.0848 -0.1942  0.1551
  522POPI   GL2 8246   2.708   6.683  10.548  0.2460 -0.1618 -0.0082
  522POPI   C1A 8247   2.684   7.055  10.230 -0.1864 -0.2900  0.2831
  522POPI   D2A 8248   2.527   7.066   9.877 -0.0100 -0.0378  0.0177
  522POPI   C3A 8249   2.526   7.060   9.446  0.1470 -0.2156  0.0611
  522POPI   C4A 8250   2.489   6.978   8.964  0.2209  0.0033  0.0176
  522POPI   C1B 8251   2.777   6.572  10.124  0.0434  0.1360 -0.0150
  522POPI   C2B 8252   2.663   6.588   9.741 -0.2196  0.2790 -0.1109
  522POPI   C3B 8253   2.645   6.524   9.284 -0.0135 -0.1455 -0.2365
  522POPI   C4B 8254   2.634   6.528   8.883  0.1869 -0.0281  0.2249
  523POPI    C1 8255   4.300  12.472  10.960 -0.0784 -0.1908 -0.2815
  523POPI    C2 8256   4.386  12.140  11.166 -0.0816 -0.0327 -0.0211
  523POPI    C3 8257   4.030  12.316  11.210 -0.0954 -0.0170 -0.1895
  523POPI   PO4 8258   4.372  12.384  10.680 -0.0599 -0.0169  0.1883
  523POPI   GL1 8259   4.597  12.553  10.386  0.1024 -0.1524 -0.2482
  523POPI   GL2 8260   4.939  12.695  10.309 -0.2078  0.0739 -0.2533
  523POPI   C1A 8261   4.723  12.271  10.076 -0.1752 -0.1365 -0.0031
  523POPI   D2A 8262   4.774  12.095   9.598 -0.0183  0.0561 -0.0474
  523POPI   C3A 8263   4.582  12.009   9.133  0.0875  0.1041  0.1209
  523POPI   C4A 8264   4.549  12.148   8.728 -0.1119 -0.0908  0.1284
  523POPI   C1B 8265   5.099  12.599   9.901  0.0749 -0.0713 -0.0801
  523POPI   C2B 8266   5.054  12.481   9.453  0.0556 -0.0775  0.1175
  523POPI   C3B 8267   4.981  12.337   8.971  0.0331  0.0968  0.0765
  523POPI   C4B 8268   4.883  12.398   8.445  0.0231 -0.0956 -0.2223
  524DPPI    C1 8269   4.255   5.642  10.977 -0.1151  0.0711 -0.5713
  524DPPI    C2 8270   4.021   5.965  10.949 -0.0231  0.2068  0.0656
  524DPPI    C3 8271   4.388   5.998  11.104  0.0887 -0.1609 -0.1116
  524DPPI   PO4 8272   4.227   5.532  10.756 -0.1635 -0.0371 -0.2923
  524DPPI   GL1 8273   4.301   5.597  10.339  0.1035 -0.2582  0.0768
  524DPPI   GL2 8274   4.484   5.854  10.523  0.0265 -0.1939  0.2194
  524DPPI   C1A 8275   4.324   5.669   9.907 -0.1762  0.0321 -0.0065
  524DPPI   C2A 8276   4.302   5.635   9.485  0.0364 -0.1278 -0.4819
  524DPPI   C3A 8277   4.286   5.528   9.097  0.1093 -0.0427  0.3276
  524DPPI   C4A 8278   4.411   5.455   8.672  0.0743 -0.1283 -0.0111
  524DPPI   C1B 8279   4.675   6.050  10.170  0.1659  0.0928 -0.0750
  524DPPI   C2B 8280   4.636   5.995   9.736 -0.0571  0.0699  0.1643
  524DPPI   C3B 8281   4.669   5.914   9.334 -0.0668 -0.0039  0.1567
  524DPPI   C4B 8282   4.707   5.836   8.894 -0.1167 -0.1626 -0.0656
  525DPPI    C1 8283  17.159   6.656  11.143 -0.1090  0.2258  0.1506
  525DPPI    C2 8284  16.931   6.771  11.451 -0.0113 -0.0224  0.3190
  525DPPI    C3 8285  17.072   6.397  11.436  0.0471  0.0097  0.0089
  525DPPI   PO4 8286  17.216   6.906  10.969 -0.1201  0.0779  0.0774
  525DPPI   GL1 8287  16.949   7.004  10.589 -0.0730  0.1926 -0.2474
  525DPPI   GL2 8288  16.654   6.832  10.564  0.3102  0.1303 -0.1015
  525DPPI   C1A 8289  17.072   7.076  10.217  0.2453 -0.1270 -0.0962
  525DPPI   C2A 8290  17.070   7.039   9.771 -0.0039  0.4440  0.2876
  525DPPI   C3A 8291  16.978   6.972   9.375  0.2015 -0.1660  0.2429
  525DPPI   C4A 8292  17.050   7.103   9.009 -0.0279 -0.2686  0.0395
  525DPPI   C1B 8293  16.721   6.761  10.095  0.1417 -0.0815 -0.0234
  525DPPI   C2B 8294  16.662   6.622   9.675  0.1303  0.2029  0.1004
  525DPPI   C3B 8295  16.580   6.600   9.322 -0.1177  0.2031  0.0366
  525DPPI   C4B 8296  16.614   6.815   8.955 -0.3063 -0.3233 -0.0148
  526DPPI    C1 8297   6.742  16.341  11.224  0.1858  0.1303  0.2254
  526DPPI    C2 8298   6.669  16.105  11.540  0.0606 -0.0041  0.0981
  526DPPI    C3 8299   6.477  16.455  11.502  0.0266 -0.0184  0.1370
  526DPPI   PO4 8300   6.775  16.183  11.045  0.3047 -0.1498  0.0065
  526DPPI   GL1 8301   6.656  16.186  10.583 -0.2443 -0.0178 -0.1223
  526DPPI   GL2 8302   6.740  16.323  10.440 -0.1266  0.6596  0.0223
  526DPPI   C1A 8303   6.757  15.816  10.217  0.0029  0.0333  0.0783
  526DPPI   C2A 8304   6.577  15.882   9.840  0.0183  0.0666 -0.1044
  526DPPI   C3A 8305   6.482  15.884   9.536  0.0614 -0.3649  0.1354
  526DPPI   C4A 8306   6.361  15.971   9.125 -0.3336  0.1217  0.2229
  526DPPI   C1B 8307   6.880  16.226  10.003 -0.2462  0.0294 -0.1545
  526DPPI   C2B 8308   6.809  16.398   9.627 -0.1522  0.0251 -0.0117
  526DPPI   C3B 8309   6.783  16.431   9.232 -0.3825 -0.0842  0.1812
  526DPPI   C4B 8310   6.770  16.531   8.876  0.1674  0.1508  0.1307
  527DPPI    C1 8311   8.877  16.806  10.236 -0.0363  0.1693  0.0635
  527DPPI    C2 8312   8.879  16.604  10.581  0.0121  0.2427  0.1064
  527DPPI    C3 8313   8.639  16.920  10.536 -0.2517  0.0243 -0.0500
  527DPPI   PO4 8314   8.822  16.615  10.045  0.3211  0.1552  0.3094
  527DPPI   GL1 8315   8.628  16.686   9.788  0.1364 -0.1883  0.0492
  527DPPI   GL2 8316   8.317  16.524   9.709 -0.3588  0.1822 -0.1557
  527DPPI   C1A 8317   8.659  16.818   9.409  0.2423 -0.0240 -0.1182
  527DPPI   C2A 8318   8.522  16.843   8.984 -0.1216 -0.1080 -0.0550
  527DPPI   C3A 8319   8.532  16.937   8.657 -0.1210  0.0148 -0.1182
  527DPPI   C4A 8320   8.228  16.852   8.223 -0.0827 -0.2145 -0.3893
  527DPPI   C1B 8321   8.211  16.595   9.300 -0.0289  0.1241  0.2549
  527DPPI   C2B 8322   8.096  16.594   8.834 -0.0262 -0.0585  0.0861
  527DPPI   C3B 8323   7.902  16.530   8.498  0.0110 -0.2656  0.2820
  527DPPI   C4B 8324   7.933  16.510   8.002 -0.0056 -0.0785  0.0389
  528DPPI    C1 8325  12.798   7.703  11.106 -0.1053  0.0271  0.0907
  528DPPI    C2 8326  12.860   7.886  10.756  0.3217 -0.3865 -0.0607
  528DPPI    C3 8327  12.885   8.093  11.097  0.1827 -0.0400 -0.2556
  528DPPI   PO4 8328  12.664   7.482  10.951 -0.3291  0.0962 -0.1925
  528DPPI   GL1 8329  12.907   7.296  10.700 -0.0404 -0.3370 -0.0191
  528DPPI   GL2 8330  13.099   7.439  10.781 -0.0664  0.0245 -0.1265
  528DPPI   C1A 8331  12.868   7.335  10.281  0.0679 -0.0643  0.0152
  528DPPI   C2A 8332  12.756   7.344   9.853 -0.1277 -0.1372 -0.0898
  528DPPI   C3A 8333  12.804   7.387   9.448  0.0500 -0.1502 -0.0252
  528DPPI   C4A 8334  12.729   7.299   9.038 -0.0350 -0.0603  0.0973
  528DPPI   C1B 8335  13.405   7.284  10.431 -0.1871 -0.2899  0.2216
  528DPPI   C2B 8336  13.351   7.220   9.948 -0.1181 -0.0368  0.2359
  528DPPI   C3B 8337  13.260   7.153   9.519 -0.0042 -0.2057 -0.0688
  528DPPI   C4B 8338  13.225   7.211   9.093 -0.2039  0.0716  0.0870
  529DPPI    C1 8339   4.413  17.285  11.149  0.0077  0.0233  0.0603
  529DPPI    C2 8340   4.712  17.229  10.889 -0.0082  0.0327  0.0400
  529DPPI    C3 8341   4.776  17.177  11.280 -0.0332 -0.1705  0.0181
  529DPPI   PO4 8342   4.196  17.269  10.967 -0.0750  0.4067 -0.0677
  529DPPI   GL1 8343   4.006  17.470  10.639  0.0260 -0.2061  0.0853
  529DPPI   GL2 8344   3.652  17.592  10.601  0.0435  0.1052 -0.2686
  529DPPI   C1A 8345   4.290  17.632  10.322  0.1707 -0.2114  0.1878
  529DPPI   C2A 8346   4.271  17.661   9.844  0.1297 -0.2523  0.2628
  529DPPI   C3A 8347   4.227  17.657   9.456 -0.0165 -0.1926 -0.1077
  529DPPI   C4A 8348   4.291  17.666   9.081 -0.0328  0.1145 -0.0034
  529DPPI   C1B 8349   3.602  17.688  10.207 -0.0793 -0.1428  0.1978
  529DPPI   C2B 8350   3.725  17.765   9.718  0.0084 -0.3510 -0.0172
  529DPPI   C3B 8351   3.786  17.845   9.294  0.0180 -0.2025 -0.0373
  529DPPI   C4B 8352   3.826  17.906   8.848  0.1554  0.2472 -0.0617
  530DPPI    C1 8353   0.749   7.578  11.120  0.4296 -0.1216  0.0594
  530DPPI    C2 8354   0.782   7.300  11.405  0.0388 -0.1009  0.1299
  530DPPI    C3 8355   0.516   7.597  11.445  0.1791  0.0622 -0.1264
  530DPPI   PO4 8356   0.767   7.433  10.917  0.0846 -0.1917  0.0911
  530DPPI   GL1 8357   1.023   7.502  10.502  0.1623 -0.0459  0.0648
  530DPPI   GL2 8358   1.276   7.334  10.567  0.2308 -0.0324 -0.1258
  530DPPI   C1A 8359   1.144   7.456  10.008  0.2055  0.1368  0.0740
  530DPPI   C2A 8360   1.071   7.510   9.535 -0.2154  0.2697  0.1973
  530DPPI   C3A 8361   1.045   7.411   9.149  0.3998 -0.0713  0.1585
  530DPPI   C4A 8362   1.057   7.281   8.686 -0.2865 -0.0664  0.2761
  530DPPI   C1B 8363   1.594   7.293  10.299 -0.0683 -0.0036 -0.1914
  530DPPI   C2B 8364   1.657   7.381   9.829  0.1225  0.1444  0.2178
  530DPPI   C3B 8365   1.527   7.300   9.481 -0.1783  0.2623 -0.0670
  530DPPI   C4B 8366   1.537   7.212   9.014 -0.0051  0.4212 -0.0724
  531DPPI    C1 8367   1.916   9.732  10.835  0.0419 -0.2630 -0.0369
  531DPPI    C2 8368   1.963   9.845  11.216  0.0867 -0.1748 -0.0682
  531DPPI    C3 8369   1.815   9.483  11.131  0.2940 -0.2851  0.0325
  531DPPI   PO4 8370   2.051   9.744  10.749  0.1318 -0.1104  0.2207
  531DPPI   GL1 8371   2.000   9.840  10.334 -0.2727 -0.1540  0.1091
  531DPPI   GL2 8372   1.959  10.219  10.195  0.1281 -0.0242 -0.2772
  531DPPI   C1A 8373   2.030   9.709   9.960  0.3007  0.0085 -0.0442
  531DPPI   C2A 8374   1.953   9.512   9.558 -0.1002  0.0417 -0.2536
  531DPPI   C3A 8375   1.871   9.511   9.201  0.1497  0.0266  0.3919
  531DPPI   C4A 8376   1.871   9.479   8.763  0.0342  0.0284 -0.0143
  531DPPI   C1B 8377   1.874  10.095   9.730  0.1145  0.0936 -0.3533
  531DPPI   C2B 8378   1.776  10.024   9.379  0.2815 -0.0664 -0.1654
  531DPPI   C3B 8379   1.748  10.018   8.975  0.3729 -0.1300  0.0262
  531DPPI   C4B 8380   1.602   9.978   8.527  0.3943 -0.2452 -0.3542
  532DPPI    C1 8381  15.817   0.924  11.023 -0.1345  0.0006  0.0219
  532DPPI    C2 8382  15.987   0.751  11.340 -0.1557  0.2207  0.1552
  532DPPI    C3 8383  15.604   0.864  11.356 -0.1816  0.1532  0.0201
  532DPPI   PO4 8384  15.829   0.749  10.823 -0.2143  0.0113  0.2443
  532DPPI   GL1 8385  15.981   0.729  10.510  0.1806 -0.1868 -0.0745
  532DPPI   GL2 8386  16.211   0.568  10.428 -0.0214 -0.0329  0.2925
  532DPPI   C1A 8387  16.025   1.093  10.280 -0.0103 -0.0149 -0.0077
  532DPPI   C2A 8388  15.979   1.146   9.846 -0.1149 -0.0165  0.0641
  532DPPI   C3A 8389  16.077   1.170   9.391  0.0140 -0.0195  0.0745
  532DPPI   C4A 8390  16.044   1.151   8.947  0.1917  0.1170 -0.1707
  532DPPI   C1B 8391  16.147   0.605   9.976  0.0244  0.0506 -0.1128
  532DPPI   C2B 8392  16.110   0.743   9.590  0.1263  0.2200 -0.1911
  532DPPI   C3B 8393  16.279   0.728   9.185 -0.0064 -0.1847  0.1874
  532DPPI   C4B 8394  16.242   0.785   8.709  0.1222  0.1780 -0.0073
  533DPPI    C1 8395   7.746  14.568  10.343 -0.1636  0.2372 -0.0583
  533DPPI    C2 8396   8.089  14.772  10.317 -0.1111  0.1226 -0.2946
  533DPPI    C3 8397   8.061  14.459  10.564 -0.0174  0.0790 -0.3389
  533DPPI   PO4 8398   7.662  14.539   9.988 -0.1113 -0.0464 -0.0387
  533DPPI   GL1 8399   7.656  14.508   9.586 -0.0428 -0.0929  0.4385
  533DPPI   GL2 8400   7.433  14.362   9.616 -0.1448  0.2195 -0.2444
  533DPPI   C1A 8401   7.569  14.617   9.128  0.1839 -0.1662 -0.1401
  533DPPI   C2A 8402   7.537  14.716   8.680  0.0848 -0.0237 -0.1716
  533DPPI   C3A 8403   7.573  14.982   8.309  0.1187  0.1627 -0.0672
  533DPPI   C4A 8404   7.836  14.863   7.833 -0.1874 -0.3435  0.0426
  533DPPI   C1B 8405   7.403  14.190   9.285  0.2551 -0.4862 -0.2655
  533DPPI   C2B 8406   7.412  14.193   8.794 -0.2095  0.0147 -0.0502
  533DPPI   C3B 8407   7.596  14.204   8.493 -0.0089 -0.0987  0.0516
  533DPPI   C4B 8408   7.543  14.108   8.050  0.2033 -0.1100  0.0345
  534DPPI    C1 8409   6.037  12.682  10.535 -0.6487 -0.2109  0.1341
  534DPPI    C2 8410   5.931  13.018  10.346 -0.0304 -0.1451 -0.1198
  534DPPI    C3 8411   5.974  13.017  10.744  0.1867  0.1425 -0.1393
  534DPPI   PO4 8412   5.950  12.511  10.354  0.0662  0.0691 -0.2954
  534DPPI   GL1 8413   5.567  12.574  10.200  0.0596  0.2801  0.2917
  534DPPI   GL2 8414   5.467  12.845  10.384  0.0447 -0.0200  0.2404
  534DPPI   C1A 8415   5.641  12.382   9.822  0.0070  0.0465 -0.2045
  534DPPI   C2A 8416   5.611  12.372   9.418  0.3362  0.1534  0.0542
  534DPPI   C3A 8417   5.485  12.304   8.947  0.1081  0.3799  0.1707
  534DPPI   C4A 8418   5.364  12.328   8.577  0.0819  0.0086 -0.0644
  534DPPI   C1B 8419   5.577  13.005   9.960 -0.0862 -0.1802 -0.1834
  534DPPI   C2B 8420   5.381  12.888   9.687 -0.2542 -0.0647  0.2151
  534DPPI   C3B 8421   5.310  12.862   9.240  0.0092  0.2541  0.0481
  534DPPI   C4B 8422   5.178  12.762   8.813  0.3041 -0.0817 -0.2593
  535DPPI    C1 8423   7.537  11.249  10.989 -0.3118  0.1283  0.0642
  535DPPI    C2 8424   7.810  11.517  10.871 -0.0142 -0.1190  0.1773
  535DPPI    C3 8425   7.461  11.640  11.023  0.0807  0.2027  0.1418
  535DPPI   PO4 8426   7.573  11.084  10.798  0.1463  0.0082 -0.0830
  535DPPI   GL1 8427   7.530  11.010  10.342  0.1209 -0.1908 -0.0122
  535DPPI   GL2 8428   7.732  10.967  10.083 -0.3443  0.0563  0.2421
  535DPPI   C1A 8429   7.282  11.276  10.038 -0.2544  0.0168  0.2434
  535DPPI   C2A 8430   7.265  11.388   9.608  0.1841  0.3680 -0.2353
  535DPPI   C3A 8431   7.170  11.427   9.143  0.0743 -0.0110  0.1486
  535DPPI   C4A 8432   7.297  11.465   8.808  0.1616 -0.0939 -0.0073
  535DPPI   C1B 8433   7.720  11.172   9.778  0.1807 -0.1727  0.0503
  535DPPI   C2B 8434   7.721  11.027   9.393 -0.3722  0.1758 -0.2483
  535DPPI   C3B 8435   7.828  10.797   8.932  0.1971  0.2934 -0.3157
  535DPPI   C4B 8436   7.751  10.759   8.531 -0.1299  0.2877 -0.0215
  536DPPI    C1 8437   3.793   2.681  11.436 -0.0933  0.1639  0.1769
  536DPPI    C2 8438   4.187   2.679  11.366 -0.1226  0.0227  0.0083
  536DPPI    C3 8439   4.048   2.776  11.729  0.0739 -0.0631  0.1078
  536DPPI   PO4 8440   3.689   2.520  11.228 -0.1149  0.3518 -0.0754
  536DPPI   GL1 8441   3.788   2.334  10.743 -0.3193 -0.0463  0.1396
  536DPPI   GL2 8442   4.079   2.469  10.481  0.2464  0.1276 -0.2458
  536DPPI   C1A 8443   3.611   2.442  10.349  0.0745  0.0065 -0.1606
  536DPPI   C2A 8444   3.648   2.479   9.910  0.0890  0.1940 -0.1272
  536DPPI   C3A 8445   3.584   2.371   9.528  0.0836 -0.1037 -0.0485
  536DPPI   C4A 8446   3.672   2.449   9.054 -0.2716 -0.1047 -0.1125
  536DPPI   C1B 8447   4.086   2.329  10.157  0.2261 -0.2227  0.1011
  536DPPI   C2B 8448   4.084   2.306   9.622 -0.0127  0.0125  0.0192
  536DPPI   C3B 8449   4.158   2.384   9.260 -0.0839 -0.0664  0.0838
  536DPPI   C4B 8450   4.240   2.221   8.788 -0.2266  0.1116 -0.1276
  537DPPI    C1 8451   5.903  10.186  10.895  0.0203 -0.2098 -0.1588
  537DPPI    C2 8452   6.134  10.243  11.217  0.0131 -0.0075 -0.1876
  537DPPI    C3 8453   5.804  10.018  11.244  0.1209 -0.1579 -0.1046
  537DPPI   PO4 8454   6.189  10.157  10.710  0.0855  0.1405 -0.2617
  537DPPI   GL1 8455   6.146  10.452  10.386 -0.1951  0.1156 -0.0015
  537DPPI   GL2 8456   6.410  10.296  10.206  0.1856  0.0163  0.1794
  537DPPI   C1A 8457   5.973  10.413   9.998  0.2809  0.2995 -0.2175
  537DPPI   C2A 8458   5.986  10.352   9.587  0.0769  0.1257  0.1869
  537DPPI   C3A 8459   5.940  10.236   9.108 -0.1458 -0.1034 -0.0344
  537DPPI   C4A 8460   5.994  10.239   8.629  0.0128  0.0802  0.2215
  537DPPI   C1B 8461   6.411  10.335   9.819 -0.1786  0.1371  0.1021
  537DPPI   C2B 8462   6.467  10.251   9.384 -0.0692  0.0371 -0.1692
  537DPPI   C3B 8463   6.461  10.102   8.965  0.3271 -0.0623 -0.0105
  537DPPI   C4B 8464   6.453  10.051   8.529  0.4064  0.3490 -0.1268
  538DPPI    C1 8465  17.422  11.273  10.504  0.3691  0.2972  0.1857
  538DPPI    C2 8466  17.118  11.532  10.515 -0.0149 -0.1420  0.2356
  538DPPI    C3 8467  17.340  11.470  10.842 -0.0176  0.0092  0.2668
  538DPPI   PO4 8468  17.270  11.005  10.511  0.1683  0.2933 -0.1909
  538DPPI   GL1 8469  17.216  10.753  10.248  0.1494  0.1307 -0.1661
  538DPPI   GL2 8470  17.520  10.570  10.353  0.2035  0.0784 -0.1188
  538DPPI   C1A 8471  17.523  10.757   9.887  0.0038 -0.1205  0.2205
  538DPPI   C2A 8472  17.516  10.705   9.527  0.0705 -0.1390 -0.2727
  538DPPI   C3A 8473  17.566  10.682   9.207  0.1202 -0.1836  0.1312
  538DPPI   C4A 8474  17.452  10.637   8.724  0.1806 -0.1816 -0.5023
  538DPPI   C1B 8475  17.614  10.265  10.093 -0.1722  0.0796 -0.0168
  538DPPI   C2B 8476  17.569  10.197   9.750 -0.1416 -0.1610  0.2011
  538DPPI   C3B 8477  17.598  10.145   9.336 -0.2601 -0.0204  0.0075
  538DPPI   C4B 8478  17.594  10.102   8.893 -0.2809  0.3443 -0.2448
  539DPPI    C1 8479  15.733   4.885  11.172  0.1898 -0.0692  0.0297
  539DPPI    C2 8480  15.856   4.708  11.509  0.2053 -0.0694  0.0240
  539DPPI    C3 8481  15.763   5.096  11.510  0.0551 -0.1050  0.0647
  539DPPI   PO4 8482  15.520   4.736  10.994  0.0570 -0.0423 -0.0967
  539DPPI   GL1 8483  15.586   4.656  10.564  0.0832  0.3035 -0.1137
  539DPPI   GL2 8484  15.891   4.475  10.652  0.0760 -0.1084 -0.1242
  539DPPI   C1A 8485  15.270   4.676  10.221 -0.1096  0.1973 -0.0201
  539DPPI   C2A 8486  15.224   4.662   9.764 -0.0321 -0.2414  0.1011
  539DPPI   C3A 8487  15.249   4.747   9.357 -0.3932  0.1319 -0.0429
  539DPPI   C4A 8488  15.292   4.711   8.908  0.0312 -0.0656 -0.1465
  539DPPI   C1B 8489  15.794   4.482  10.165  0.1923  0.1907  0.4581
  539DPPI   C2B 8490  15.706   4.512   9.662 -0.1036  0.1784 -0.2112
  539DPPI   C3B 8491  15.780   4.557   9.225  0.1240  0.1947  0.2257
  539DPPI   C4B 8492  15.774   4.645   8.835 -0.0912 -0.0201 -0.2587
  540DPPI    C1 8493  16.452  14.678  10.833 -0.1305 -0.0579  0.0816
  540DPPI    C2 8494  16.544  14.476  11.165 -0.3102 -0.0447  0.1406
  540DPPI    C3 8495  16.477  14.869  11.183  0.2029  0.0568 -0.0010
  540DPPI   PO4 8496  16.282  14.489  10.700 -0.4001  0.0136  0.1286
  540DPPI   GL1 8497  16.408  14.210  10.532  0.2761 -0.2056  0.0718
  540DPPI   GL2 8498  16.395  13.859  10.488  0.0109 -0.1903 -0.0471
  540DPPI   C1A 8499  16.310  14.202  10.096  0.3450  0.0478  0.0176
  540DPPI   C2A 8500  16.176  14.071   9.725  0.2026 -0.0165  0.3081
  540DPPI   C3A 8501  16.174  13.992   9.359  0.2031  0.1418  0.0622
  540DPPI   C4A 8502  16.356  13.971   8.982 -0.0150  0.2150 -0.3402
  540DPPI   C1B 8503  16.355  13.659  10.075 -0.0050  0.1511  0.2397
  540DPPI   C2B 8504  16.339  13.592   9.693  0.0112 -0.0685 -0.1015
  540DPPI   C3B 8505  16.307  13.497   9.233  0.0171 -0.0017  0.0442
  540DPPI   C4B 8506  16.333  13.511   8.686  0.0158  0.1331 -0.4183
  541DPPI    C1 8507   3.853  11.381  10.588  0.3281 -0.1031  0.1155
  541DPPI    C2 8508   3.939  11.413  10.978  0.1382  0.2346  0.1332
  541DPPI    C3 8509   3.564  11.336  10.861  0.1957  0.1286  0.0156
  541DPPI   PO4 8510   3.888  11.632  10.502 -0.1883  0.0441  0.0851
  541DPPI   GL1 8511   3.794  11.797  10.200  0.0068  0.3942 -0.1939
  541DPPI   GL2 8512   3.549  11.562  10.112 -0.1512 -0.1802  0.1045
  541DPPI   C1A 8513   3.893  12.027   9.761 -0.2225  0.0560 -0.0151
  541DPPI   C2A 8514   3.831  12.090   9.334  0.0874 -0.0244 -0.0671
  541DPPI   C3A 8515   3.658  11.953   8.936 -0.1905 -0.0529  0.2838
  541DPPI   C4A 8516   3.670  11.824   8.441 -0.2264  0.2023  0.0068
  541DPPI   C1B 8517   3.293  11.523   9.671  0.1021  0.4484  0.0921
  541DPPI   C2B 8518   3.317  11.471   9.267 -0.0512 -0.0286  0.0237
  541DPPI   C3B 8519   3.338  11.559   8.804 -0.0593 -0.3855  0.0127
  541DPPI   C4B 8520   3.149  11.656   8.324  0.0048  0.2320 -0.0148
  542DPPI    C1 8521   2.415  14.258  11.030 -0.0368 -0.2235 -0.1700
  542DPPI    C2 8522   2.535  14.231  11.410  0.1454  0.1904 -0.1927
  542DPPI    C3 8523   2.224  14.014  11.283  0.2715 -0.1799  0.1113
  542DPPI   PO4 8524   2.574  14.287  10.851  0.0361  0.0517 -0.2074
  542DPPI   GL1 8525   2.515  14.423  10.421 -0.0324 -0.3223 -0.0701
  542DPPI   GL2 8526   2.623  14.130  10.314 -0.0020 -0.2743  0.2841
  542DPPI   C1A 8527   2.628  14.585  10.034 -0.1919  0.1448 -0.1028
  542DPPI   C2A 8528   2.626  14.663   9.605  0.0139 -0.0552 -0.1957
  542DPPI   C3A 8529   2.560  14.794   9.202 -0.1013 -0.3320  0.3468
  542DPPI   C4A 8530   2.531  14.756   8.722  0.0539 -0.0921  0.1602
  542DPPI   C1B 8531   2.655  14.203   9.770  0.1663  0.2327  0.3710
  542DPPI   C2B 8532   2.631  14.190   9.417  0.0668  0.2220 -0.2027
  542DPPI   C3B 8533   2.669  14.213   9.005 -0.2883 -0.4848  0.0200
  542DPPI   C4B 8534   2.681  14.164   8.566 -0.0794  0.1313  0.0559
  543DPPI    C1 8535  15.364  13.984  10.904  0.0361  0.0309 -0.1060
  543DPPI    C2 8536  15.565  13.639  10.911 -0.0305 -0.0049  0.1073
  543DPPI    C3 8537  15.189  13.654  11.046 -0.0385  0.1446  0.0702
  543DPPI   PO4 8538  15.478  14.111  10.639 -0.1003 -0.2257 -0.0466
  543DPPI   GL1 8539  15.415  13.939  10.196  0.0497  0.2452  0.1636
  543DPPI   GL2 8540  15.438  13.642  10.235 -0.1884 -0.2537  0.1505
  543DPPI   C1A 8541  15.352  13.815   9.717 -0.0518  0.2553 -0.0464
  543DPPI   C2A 8542  15.402  13.686   9.255  0.0948  0.0058 -0.1424
  543DPPI   C3A 8543  15.420  13.767   8.752  0.0466 -0.2458  0.0594
  543DPPI   C4A 8544  15.617  13.879   8.331 -0.3770 -0.2933 -0.0954
  543DPPI   C1B 8545  15.387  13.350   9.958 -0.1541 -0.2100  0.1253
  543DPPI   C2B 8546  15.491  13.286   9.635 -0.0670 -0.1316 -0.1854
  543DPPI   C3B 8547  15.464  13.199   9.255 -0.0513 -0.0527  0.2546
  543DPPI   C4B 8548  15.519  13.253   8.736 -0.1183 -0.0462 -0.1381
  544DPPI    C1 8549   0.171  16.605  10.999  0.0746 -0.0662  0.0914
  544DPPI    C2 8550  -0.034  16.710  11.327 -0.0941  0.3481 -0.1394
  544DPPI    C3 8551   0.353  16.612  11.356 -0.2133 -0.0387  0.2408
  544DPPI   PO4 8552   0.049  16.707  10.786  0.2596  0.0401 -0.3719
  544DPPI   GL1 8553   0.155  16.875  10.404 -0.1224  0.2452 -0.1586
  544DPPI   GL2 8554  -0.132  16.957  10.335 -0.0607  0.0116 -0.2895
  544DPPI   C1A 8555   0.158  16.977   9.931  0.0032  0.0745 -0.1153
  544DPPI   C2A 8556   0.215  16.944   9.464 -0.1150  0.0813 -0.1186
  544DPPI   C3A 8557   0.203  16.907   9.010 -0.0337  0.0290 -0.1117
  544DPPI   C4A 8558   0.169  16.721   8.654 -0.1126  0.0898 -0.0473
  544DPPI   C1B 8559  -0.340  17.120   9.929  0.1287 -0.3041 -0.1197
  544DPPI   C2B 8560  -0.292  17.045   9.573 -0.0337 -0.2512 -0.0882
  544DPPI   C3B 8561  -0.281  17.059   9.100  0.2818 -0.1366 -0.2326
  544DPPI   C4B 8562  -0.276  16.877   8.713  0.1565  0.3578 -0.3001
  545DPPI    C1 8563  13.334  11.286  10.673  0.1157  0.1443  0.1540
  545DPPI    C2 8564  13.223  11.643  10.531 -0.0080 -0.0095 -0.1441
  545DPPI    C3 8565  13.026  11.480  10.838  0.1398  0.2404  0.0874
  545DPPI   PO4 8566  13.349  11.144  10.458  0.0036 -0.0176  0.0949
  545DPPI   GL1 8567  13.252  11.360  10.064  0.4402 -0.0940 -0.0538
  545DPPI   GL2 8568  13.157  10.958  10.066  0.2135 -0.1644  0.2491
  545DPPI   C1A 8569  13.258  11.318   9.706 -0.0623  0.1109  0.1767
  545DPPI   C2A 8570  13.219  11.159   9.330 -0.0830 -0.2843 -0.0806
  545DPPI   C3A 8571  13.235  10.992   8.965 -0.0789  0.1936 -0.3850
  545DPPI   C4A 8572  13.377  10.874   8.577  0.2541 -0.0645 -0.1801
  545DPPI   C1B 8573  13.083  10.705   9.771  0.1463 -0.3055  0.0097
  545DPPI   C2B 8574  13.104  10.641   9.359 -0.0162  0.1624 -0.2666
  545DPPI   C3B 8575  12.918  10.577   8.838  0.3618 -0.3924  0.0262
  545DPPI   C4B 8576  12.869  10.800   8.436 -0.1919  0.1072  0.2280
  546DPPI    C1 8577   4.189   7.025  11.057  0.0130 -0.0351  0.2180
  546DPPI    C2 8578   4.121   6.964  11.446 -0.2228 -0.3771  0.1270
  546DPPI    C3 8579   3.834   6.887  11.178 -0.1149  0.0021 -0.1047
  546DPPI   PO4 8580   4.435   6.917  11.039  0.1411 -0.0276  0.0535
  546DPPI   GL1 8581   4.687   6.773  10.707 -0.2288 -0.1655  0.3215
  546DPPI   GL2 8582   4.509   7.049  10.511  0.0097 -0.0411 -0.2828
  546DPPI   C1A 8583   4.654   6.573  10.279  0.2507 -0.0267 -0.0135
  546DPPI   C2A 8584   4.575   6.529   9.834  0.0873 -0.0980 -0.0536
  546DPPI   C3A 8585   4.582   6.380   9.411 -0.0840 -0.2281  0.3358
  546DPPI   C4A 8586   4.641   6.384   8.981 -0.1388 -0.3822  0.0753
  546DPPI   C1B 8587   4.554   7.015   9.991  0.2871 -0.1658 -0.1484
  546DPPI   C2B 8588   4.465   6.991   9.557 -0.0282 -0.2256  0.0735
  546DPPI   C3B 8589   4.408   6.874   9.079  0.1380  0.2578  0.0606
  546DPPI   C4B 8590   4.461   6.958   8.571  0.1893  0.1111 -0.2722
  547DPPI    C1 8591   3.918   9.588  11.201 -0.1302  0.1204 -0.0247
  547DPPI    C2 8592   4.007   9.903  11.430  0.1525 -0.0061  0.0448
  547DPPI    C3 8593   4.020   9.535  11.585  0.1687 -0.0788 -0.1278
  547DPPI   PO4 8594   4.091   9.608  10.966  0.0492  0.1238 -0.0953
  547DPPI   GL1 8595   4.175   9.415  10.595 -0.0110  0.0890  0.1291
  547DPPI   GL2 8596   4.430   9.348  10.459  0.1649 -0.2949 -0.2649
  547DPPI   C1A 8597   3.909   9.496  10.232 -0.0193  0.0955  0.0040
  547DPPI   C2A 8598   3.779   9.591   9.875 -0.0923  0.1248 -0.0084
  547DPPI   C3A 8599   3.795   9.583   9.427  0.0638  0.1079  0.1120
  547DPPI   C4A 8600   4.015   9.575   8.946  0.2046  0.0333  0.2764
  547DPPI   C1B 8601   4.326   9.336  10.083  0.0204  0.1016  0.3466
  547DPPI   C2B 8602   4.174   9.316   9.633 -0.1011  0.0055 -0.0748
  547DPPI   C3B 8603   4.144   9.174   9.179  0.1478 -0.0398  0.0682
  547DPPI   C4B 8604   4.344   9.249   8.796 -0.2268  0.0293 -0.0140
  548DPPI    C1 8605   6.428  10.761  10.605 -0.2267 -0.0153 -0.0926
  548DPPI    C2 8606   6.430  10.530  10.932 -0.2022 -0.0002 -0.0820
  548DPPI    C3 8607   6.085  10.682  10.796 -0.1684  0.2919  0.1474
  548DPPI   PO4 8608   6.619  10.971  10.556 -0.0084 -0.0678 -0.1684
  548DPPI   GL1 8609   6.845  10.837  10.229 -0.0042 -0.0811 -0.1267
  548DPPI   GL2 8610   6.855  10.524  10.142  0.0957 -0.1306 -0.0789
  548DPPI   C1A 8611   6.842  11.060   9.823 -0.4488  0.3266 -0.1105
  548DPPI   C2A 8612   6.813  11.093   9.460  0.0508  0.3371 -0.0686
  548DPPI   C3A 8613   6.854  11.084   8.918 -0.2993  0.1435  0.0454
  548DPPI   C4A 8614   6.849  10.861   8.508 -0.0804 -0.0036  0.3806
  548DPPI   C1B 8615   6.793  10.596   9.713 -0.0285 -0.1616 -0.1497
  548DPPI   C2B 8616   6.798  10.593   9.235 -0.0028  0.1059  0.2673
  548DPPI   C3B 8617   6.942  10.451   8.760  0.1058 -0.0005 -0.0018
  548DPPI   C4B 8618   6.751  10.402   8.360 -0.2690  0.2616 -0.1221
  549DPPI    C1 8619   3.091  12.196  11.101 -0.1273 -0.1425 -0.0426
  549DPPI    C2 8620   2.948  11.877  11.295  0.1158 -0.1516  0.1271
  549DPPI    C3 8621   3.043  12.209  11.498 -0.0577  0.0018 -0.0381
  549DPPI   PO4 8622   3.116  12.069  10.858 -0.0029 -0.2245 -0.1079
  549DPPI   GL1 8623   2.985  12.313  10.456  0.0521 -0.2268 -0.1480
  549DPPI   GL2 8624   2.932  11.982  10.388 -0.0784 -0.0303 -0.2025
  549DPPI   C1A 8625   2.855  12.344  10.044 -0.3163 -0.1988  0.0012
  549DPPI   C2A 8626   2.766  12.224   9.666  0.1619  0.1050  0.1376
  549DPPI   C3A 8627   2.733  12.294   9.254 -0.0817  0.2382 -0.2003
  549DPPI   C4A 8628   2.553  12.332   8.856 -0.1729 -0.1115  0.4171
  549DPPI   C1B 8629   2.954  11.857   9.896  0.1277  0.0018 -0.2581
  549DPPI   C2B 8630   2.924  11.751   9.417 -0.1036  0.2106 -0.2638
  549DPPI   C3B 8631   2.728  11.780   9.023  0.2416 -0.1284 -0.0363
  549DPPI   C4B 8632   2.727  11.744   8.553 -0.0236 -0.0591 -0.1862
  550DPPI    C1 8633  11.036   6.689  11.464 -0.0804  0.1179  0.0920
  550DPPI    C2 8634  11.395   6.563  11.588 -0.1028 -0.1186 -0.0763
  550DPPI    C3 8635  11.364   6.902  11.378  0.0184 -0.0831 -0.0374
  550DPPI   PO4 8636  11.003   6.467  11.263  0.2767 -0.0253 -0.1289
  550DPPI   GL1 8637  10.783   6.269  10.830  0.2022 -0.3819 -0.1754
  550DPPI   GL2 8638  10.496   6.386  10.737 -0.0447  0.0844  0.3002
  550DPPI   C1A 8639  10.795   6.051  10.449 -0.2607 -0.1425  0.1379
  550DPPI   C2A 8640  10.805   6.007   9.991  0.0412 -0.0780 -0.0205
  550DPPI   C3A 8641  10.726   6.071   9.533 -0.0335  0.1441 -0.4778
  550DPPI   C4A 8642  10.696   6.077   9.084 -0.1770  0.1633 -0.0664
  550DPPI   C1B 8643  10.289   6.098  10.401 -0.0931 -0.2557 -0.0780
  550DPPI   C2B 8644  10.366   5.720  10.230  0.0777 -0.1768 -0.0557
  550DPPI   C3B 8645  10.374   5.697   9.830  0.1033 -0.2167 -0.4329
  550DPPI   C4B 8646  10.301   5.723   9.453  0.1321 -0.1308 -0.0652
  551DPPI    C1 8647   1.986  15.702  10.890  0.1025  0.0190 -0.0198
  551DPPI    C2 8648   1.777  15.368  10.955  0.0828  0.0751  0.2165
  551DPPI    C3 8649   1.588  15.720  10.929  0.0855  0.0515 -0.1985
  551DPPI   PO4 8650   2.214  15.586  10.662  0.0092  0.2710 -0.0995
  551DPPI   GL1 8651   2.196  15.343  10.222 -0.2652  0.1011 -0.1876
  551DPPI   GL2 8652   2.361  15.212  10.351 -0.1335 -0.1189 -0.1825
  551DPPI   C1A 8653   2.015  15.490   9.850 -0.0556  0.3639 -0.0571
  551DPPI   C2A 8654   2.088  15.501   9.451 -0.0959  0.1131 -0.0856
  551DPPI   C3A 8655   1.972  15.418   8.986 -0.0366  0.0103 -0.1819
  551DPPI   C4A 8656   1.969  15.486   8.574 -0.0708  0.3062  0.0327
  551DPPI   C1B 8657   2.463  15.031   9.954  0.1250  0.1324 -0.2977
  551DPPI   C2B 8658   2.454  15.152   9.578  0.2692  0.1677  0.1349
  551DPPI   C3B 8659   2.464  15.355   9.194  0.1292 -0.1050 -0.0270
  551DPPI   C4B 8660   2.342  15.256   8.764 -0.3369 -0.1733  0.1771
  552DPPI    C1 8661  13.182   7.388  11.334 -0.0380 -0.0170 -0.0006
  552DPPI    C2 8662  12.830   7.370  11.523  0.0357 -0.3149  0.1147
  552DPPI    C3 8663  13.168   7.421  11.732  0.0564  0.0632 -0.0034
  552DPPI   PO4 8664  13.212   7.171  11.204 -0.0490  0.1898 -0.1855
  552DPPI   GL1 8665  13.195   6.892  10.843  0.0310 -0.1336 -0.1042
  552DPPI   GL2 8666  13.414   6.683  10.748 -0.2071  0.0612  0.0922
  552DPPI   C1A 8667  12.978   6.864  10.447 -0.0070 -0.2138  0.2233
  552DPPI   C2A 8668  12.936   6.918   9.989  0.2979  0.1384  0.4456
  552DPPI   C3A 8669  12.869   6.871   9.565  0.1815 -0.1069 -0.1803
  552DPPI   C4A 8670  12.914   6.808   9.227  0.2899  0.0997 -0.1362
  552DPPI   C1B 8671  13.426   6.732  10.234 -0.2174 -0.1226  0.2756
  552DPPI   C2B 8672  13.392   6.750   9.725 -0.1025 -0.2324 -0.1289
  552DPPI   C3B 8673  13.380   6.673   9.372  0.3099  0.1485  0.2170
  552DPPI   C4B 8674  13.384   6.639   8.979 -0.0151 -0.0152 -0.2326
  553DPPI    C1 8675   3.219  10.897  11.029  0.0427 -0.3482 -0.0013
  553DPPI    C2 8676   2.914  11.047  11.239 -0.0419 -0.0397 -0.3356
  553DPPI    C3 8677   2.940  10.653  11.178 -0.3129 -0.0792 -0.2116
  553DPPI   PO4 8678   3.194  11.016  10.799 -0.0850  0.0142 -0.1663
  553DPPI   GL1 8679   3.397  11.123  10.371  0.1971  0.0295  0.1368
  553DPPI   GL2 8680   3.434  10.819  10.402  0.0270  0.0624 -0.0076
  553DPPI   C1A 8681   3.509  11.066   9.930 -0.2633 -0.0225 -0.3214
  553DPPI   C2A 8682   3.499  11.029   9.531 -0.0135  0.0067 -0.0157
  553DPPI   C3A 8683   3.458  10.969   9.103 -0.0504 -0.0661  0.1659
  553DPPI   C4A 8684   3.286  10.980   8.711 -0.2632  0.0052  0.0422
  553DPPI   C1B 8685   3.218  10.677  10.071 -0.2355  0.1187 -0.0898
  553DPPI   C2B 8686   3.132  10.691   9.724 -0.2018  0.2425 -0.0158
  553DPPI   C3B 8687   3.069  10.656   9.359  0.1750 -0.0610 -0.0951
  553DPPI   C4B 8688   2.920  10.658   8.917 -0.2833 -0.0154  0.1934
  554PYPI    C1 8689   5.325  15.285  10.958  0.2516 -0.2462  0.1303
  554PYPI    C2 8690   5.332  15.505  11.292 -0.0515  0.0997 -0.0830
  554PYPI    C3 8691   5.667  15.451  11.080  0.1231 -0.0455  0.2221
  554PYPI   PO4 8692   5.148  15.415  10.726  0.1022 -0.3191  0.1273
  554PYPI   GL1 8693   4.957  15.199  10.488  0.0651  0.1890 -0.1439
  554PYPI   GL2 8694   5.175  14.936  10.446  0.3191  0.1255  0.0242
  554PYPI   C1A 8695   4.883  15.431   9.980 -0.2169 -0.2804  0.0573
  554PYPI   C2A 8696   4.732  15.398   9.581  0.1164 -0.0821  0.0107
  554PYPI   D3A 8697   4.663  15.668   9.224 -0.2324  0.1291  0.0232
  554PYPI   C4A 8698   4.546  16.105   9.246  0.1477  0.0603  0.0839
  554PYPI   C1B 8699   5.308  15.211  10.034 -0.2152  0.1234  0.2516
  554PYPI   C2B 8700   5.257  15.225   9.659  0.0904 -0.0109  0.1156
  554PYPI   C3B 8701   5.157  15.436   9.226 -0.1299 -0.1014 -0.1963
  554PYPI   C4B 8702   5.223  15.427   8.851 -0.2553  0.0658  0.2118
  555PYPI    C1 8703  10.793   7.562  10.988 -0.0451  0.1449  0.1645
  555PYPI    C2 8704  10.595   7.610  11.332  0.1013 -0.3643  0.3287
  555PYPI    C3 8705  10.995   7.627  11.327  0.0900 -0.0735  0.1278
  555PYPI   PO4 8706  10.693   7.313  10.880  0.0325 -0.0344 -0.0416
  555PYPI   GL1 8707  10.331   7.255  10.631  0.2386 -0.1038 -0.0549
  555PYPI   GL2 8708  10.083   7.255  10.450 -0.0361 -0.1341  0.2751
  555PYPI   C1A 8709  10.556   7.185  10.195  0.1781  0.1009 -0.0769
  555PYPI   C2A 8710  10.541   7.095   9.720 -0.0932 -0.0583  0.2178
  555PYPI   D3A 8711  10.440   7.052   9.300  0.1340 -0.1643 -0.1418
  555PYPI   C4A 8712  10.672   7.183   8.839  0.2834 -0.1604 -0.0875
  555PYPI   C1B 8713  10.059   6.933  10.060  0.1242  0.0613 -0.0379
  555PYPI   C2B 8714  10.030   6.762   9.671  0.1004  0.0899 -0.0233
  555PYPI   C3B 8715  10.072   6.751   9.178  0.0466  0.0868 -0.1301
  555PYPI   C4B 8716  10.002   6.634   8.781 -0.1627  0.0831  0.3464
  556PYPI    C1 8717   5.448   0.916  11.103  0.1489  0.0613  0.1301
  556PYPI    C2 8718   5.532   0.774  11.468  0.1403  0.1531  0.1680
  556PYPI    C3 8719   5.768   0.683  11.159 -0.0738 -0.2545  0.1178
  556PYPI   PO4 8720   5.158   0.848  11.092 -0.1450 -0.2301 -0.1094
  556PYPI   GL1 8721   4.787   0.847  10.761  0.1524 -0.0172  0.0253
  556PYPI   GL2 8722   4.894   0.605  10.666  0.2900  0.3270  0.1992
  556PYPI   C1A 8723   4.601   0.732  10.265  0.3368  0.1913  0.2215
  556PYPI   C2A 8724   4.658   0.791   9.880  0.2055 -0.1238 -0.0225
  556PYPI   D3A 8725   4.445   0.800   9.502  0.0715 -0.0018 -0.1172
  556PYPI   C4A 8726   4.475   0.766   9.037  0.1579 -0.0710 -0.1900
  556PYPI   C1B 8727   5.083   0.445  10.272  0.0479 -0.2671  0.2099
  556PYPI   C2B 8728   5.021   0.443   9.848 -0.0109 -0.1631 -0.2069
  556PYPI   C3B 8729   4.935   0.666   9.452  0.0881  0.0305  0.0236
  556PYPI   C4B 8730   4.997   0.651   8.975  0.0535  0.2471 -0.2765
  557PYPI    C1 8731   2.694  12.415  10.898 -0.0461  0.0284  0.3166
  557PYPI    C2 8732   2.956  12.702  10.992 -0.1096  0.1329  0.1776
  557PYPI    C3 8733   2.680  12.589  11.258  0.1504 -0.0629  0.3697
  557PYPI   PO4 8734   2.523  12.420  10.677  0.0929 -0.1156 -0.1101
  557PYPI   GL1 8735   2.331  12.584  10.356 -0.0636 -0.2953  0.1501
  557PYPI   GL2 8736   2.422  12.865  10.327  0.0185  0.1875  0.0647
  557PYPI   C1A 8737   2.259  12.405   9.955  0.1049 -0.0174 -0.0702
  557PYPI   C2A 8738   2.247  12.304   9.515 -0.1390  0.1296  0.0239
  557PYPI   D3A 8739   2.126  12.471   9.128 -0.0282  0.0468  0.3538
  557PYPI   C4A 8740   2.090  12.426   8.677  0.1127  0.1188 -0.0657
  557PYPI   C1B 8741   2.602  12.741   9.912 -0.0251  0.1194 -0.0498
  557PYPI   C2B 8742   2.568  12.745   9.514 -0.1235 -0.0147  0.0145
  557PYPI   C3B 8743   2.510  12.805   9.125 -0.3386  0.2648 -0.2640
  557PYPI   C4B 8744   2.364  12.792   8.739  0.0079  0.0367 -0.0946
  558PYPI    C1 8745   8.335   7.721  10.802 -0.2409 -0.0417 -0.0945
  558PYPI    C2 8746   8.064   7.854  11.064  0.0129 -0.1718  0.2417
  558PYPI    C3 8747   8.075   7.466  10.968 -0.0386 -0.1350  0.0836
  558PYPI   PO4 8748   8.342   7.901  10.638 -0.0843  0.1012  0.1892
  558PYPI   GL1 8749   8.440   7.829  10.231  0.0733 -0.2687 -0.1165
  558PYPI   GL2 8750   8.128   8.012  10.243  0.3199 -0.1713  0.0661
  558PYPI   C1A 8751   8.457   7.730   9.755  0.0071  0.2400 -0.2105
  558PYPI   C2A 8752   8.500   7.714   9.341 -0.3525 -0.1234 -0.3733
  558PYPI   D3A 8753   8.384   7.663   8.842 -0.5326  0.0899  0.1435
  558PYPI   C4A 8754   8.103   7.501   8.596 -0.1581  0.2312  0.0580
  558PYPI   C1B 8755   7.985   7.936   9.859  0.0760  0.2206  0.0716
  558PYPI   C2B 8756   8.022   7.825   9.404  0.2838 -0.4653  0.1276
  558PYPI   C3B 8757   7.911   7.875   8.955 -0.0025 -0.0847  0.1613
  558PYPI   C4B 8758   7.846   8.023   8.477 -0.0877  0.5014  0.0763
  559PYPI    C1 8759  11.487  12.554  10.242  0.0365 -0.0135  0.0104
  559PYPI    C2 8760  11.560  12.753  10.581  0.2954  0.1261 -0.1239
  559PYPI    C3 8761  11.863  12.637  10.348  0.1298 -0.1488 -0.2077
  559PYPI   PO4 8762  11.209  12.714  10.169 -0.2029 -0.1785  0.1159
  559PYPI   GL1 8763  10.983  12.696   9.856  0.0196 -0.0291 -0.1208
  559PYPI   GL2 8764  11.275  12.632   9.711 -0.1363 -0.2430  0.1827
  559PYPI   C1A 8765  10.820  12.644   9.431 -0.3712 -0.2117  0.0903
  559PYPI   C2A 8766  10.844  12.580   9.045 -0.0611  0.0604 -0.1019
  559PYPI   D3A 8767  10.835  12.537   8.676  0.2515  0.0051 -0.0185
  559PYPI   C4A 8768  11.098  12.830   8.477  0.3835  0.1468 -0.0918
  559PYPI   C1B 8769  11.323  12.546   9.209 -0.2503 -0.0126 -0.1835
  559PYPI   C2B 8770  11.337  12.308   8.814 -0.0871 -0.1651 -0.2197
  559PYPI   C3B 8771  11.402  12.423   8.397 -0.1672  0.0046  0.1677
  559PYPI   C4B 8772  11.427  12.163   8.049 -0.1903  0.0322 -0.0474
  560PYPI    C1 8773  15.290  12.150  11.227 -0.1205  0.0582 -0.1817
  560PYPI    C2 8774  14.905  12.231  11.155 -0.1789 -0.1261 -0.0833
  560PYPI    C3 8775  15.022  12.127  11.523 -0.0305 -0.0477 -0.1077
  560PYPI   PO4 8776  15.359  11.944  11.061  0.1924  0.0457 -0.0215
  560PYPI   GL1 8777  15.505  11.908  10.631 -0.0694  0.1143  0.2990
  560PYPI   GL2 8778  15.494  11.651  10.440  0.0948  0.0554 -0.3245
  560PYPI   C1A 8779  15.688  12.184  10.252  0.0700  0.0595  0.1030
  560PYPI   C2A 8780  15.673  12.131   9.803 -0.1848  0.0187 -0.1234
  560PYPI   D3A 8781  15.721  12.241   9.404  0.1974 -0.3263 -0.0972
  560PYPI   C4A 8782  15.799  12.094   8.924  0.1114 -0.0002 -0.0712
  560PYPI   C1B 8783  15.471  11.440  10.108 -0.0139  0.3080 -0.4203
  560PYPI   C2B 8784  15.429  11.367   9.705 -0.0082  0.0899  0.2285
  560PYPI   C3B 8785  15.514  11.360   9.310 -0.1455 -0.1721  0.0503
  560PYPI   C4B 8786  15.572  11.240   9.010  0.0741  0.0233 -0.0004
  561PYPI    C1 8787   0.248   1.809  11.208  0.1294 -0.1476  0.0258
  561PYPI    C2 8788   0.393   1.522  11.446  0.0883 -0.1465  0.0524
  561PYPI    C3 8789   0.371   1.899  11.578  0.0744 -0.1441  0.0433
  561PYPI   PO4 8790   0.408   1.810  10.999  0.0569 -0.0746 -0.2630
  561PYPI   GL1 8791   0.186   1.618  10.689  0.0362  0.0776  0.1076
  561PYPI   GL2 8792   0.509   1.623  10.571  0.0178  0.1292 -0.0013
  561PYPI   C1A 8793   0.043   1.518  10.252  0.1188  0.0433  0.1087
  561PYPI   C2A 8794  -0.005   1.545   9.818  0.1651  0.0397 -0.0869
  561PYPI   D3A 8795   0.103   1.565   9.427 -0.1542  0.2580 -0.2112
  561PYPI   C4A 8796   0.002   1.591   9.028 -0.0422 -0.0271  0.2219
  561PYPI   C1B 8797   0.528   1.439  10.123 -0.1354  0.1410  0.1094
  561PYPI   C2B 8798   0.521   1.502   9.715 -0.0673  0.0529  0.1837
  561PYPI   C3B 8799   0.539   1.419   9.216  0.0605 -0.1110  0.1251
  561PYPI   C4B 8800   0.599   1.238   8.848 -0.2569 -0.1171 -0.2168
  562PYPI    C1 8801  15.492   9.216  10.693  0.1505  0.1354 -0.0031
  562PYPI    C2 8802  15.104   9.308  10.655  0.1108 -0.0274  0.0014
  562PYPI    C3 8803  15.269   9.284  11.019  0.1303  0.0622 -0.0013
  562PYPI   PO4 8804  15.587   9.430  10.504  0.2355  0.2218  0.1385
  562PYPI   GL1 8805  15.879   9.570  10.343 -0.0930 -0.2518 -0.0163
  562PYPI   GL2 8806  15.808   9.744  10.137 -0.4289  0.1311  0.2790
  562PYPI   C1A 8807  16.068   9.351   9.945 -0.0106  0.3173  0.0209
  562PYPI   C2A 8808  16.067   9.272   9.473  0.1465  0.0021 -0.2666
  562PYPI   D3A 8809  16.102   9.229   9.061 -0.2035  0.0227 -0.1277
  562PYPI   C4A 8810  15.937   9.307   8.642  0.0435 -0.1507 -0.0738
  562PYPI   C1B 8811  15.875   9.850   9.782  0.3313  0.1205  0.1526
  562PYPI   C2B 8812  16.000   9.753   9.381 -0.0942  0.0818 -0.0969
  562PYPI   C3B 8813  15.939   9.782   8.922 -0.1801  0.1951 -0.1298
  562PYPI   C4B 8814  15.902   9.787   8.471  0.2509  0.0108 -0.2406
  563PYPI    C1 8815  12.777  10.048  10.784 -0.0729 -0.1158  0.2862
  563PYPI    C2 8816  12.818  10.251  11.127  0.2000 -0.0896  0.2402
  563PYPI    C3 8817  13.099   9.989  11.014  0.0747 -0.1540  0.0728
  563PYPI   PO4 8818  12.714  10.129  10.550  0.0992  0.1922  0.1620
  563PYPI   GL1 8819  12.979  10.226  10.088 -0.0056 -0.2654 -0.0303
  563PYPI   GL2 8820  12.686  10.394  10.054  0.2414 -0.1062 -0.0512
  563PYPI   C1A 8821  13.034  10.184   9.725  0.1370  0.2686 -0.0213
  563PYPI   C2A 8822  12.973  10.079   9.259 -0.0353 -0.0100 -0.2672
  563PYPI   D3A 8823  12.970   9.986   8.784 -0.1181 -0.0791 -0.2872
  563PYPI   C4A 8824  12.907   9.778   8.413  0.2243  0.0606 -0.0152
  563PYPI   C1B 8825  12.633  10.569   9.671  0.0110 -0.2467  0.0659
  563PYPI   C2B 8826  12.639  10.463   9.287  0.0986  0.0186 -0.1712
  563PYPI   C3B 8827  12.566  10.222   8.938  0.1365  0.1515  0.1184
  563PYPI   C4B 8828  12.619  10.212   8.562 -0.0462 -0.1683  0.1243
  564PYPI    C1 8829   1.246  14.829  10.633 -0.0183 -0.3708  0.1435
  564PYPI    C2 8830   1.085  15.124  10.850  0.0097 -0.2648  0.0214
  564PYPI    C3 8831   1.453  14.993  10.933  0.1264 -0.0399 -0.1301
  564PYPI   PO4 8832   1.098  14.989  10.363 -0.1809 -0.0047  0.0876
  564PYPI   GL1 8833   1.136  15.127   9.991  0.0550 -0.2489 -0.0016
  564PYPI   GL2 8834   0.849  15.344  10.089  0.1628 -0.1600  0.0113
  564PYPI   C1A 8835   1.122  15.228   9.523  0.0873  0.1279 -0.0706
  564PYPI   C2A 8836   1.092  15.175   9.089  0.0325  0.0055 -0.2976
  564PYPI   D3A 8837   1.047  15.062   8.644  0.2317 -0.0609 -0.2162
  564PYPI   C4A 8838   1.053  15.269   8.272  0.0449 -0.2096  0.1486
  564PYPI   C1B 8839   0.645  15.475   9.680 -0.3007 -0.0971 -0.0246
  564PYPI   C2B 8840   0.695  15.424   9.276  0.1458 -0.3223 -0.0644
  564PYPI   C3B 8841   0.528  15.198   8.885 -0.0048  0.2892  0.0179
  564PYPI   C4B 8842   0.473  15.158   8.343 -0.0352  0.1109 -0.0895
  565PYPI    C1 8843  13.527  16.441  10.173 -0.1112 -0.0227 -0.3236
  565PYPI    C2 8844  13.196  16.318  10.360  0.0571  0.0357  0.0195
  565PYPI    C3 8845  13.535  16.110  10.397  0.1505  0.1782 -0.0286
  565PYPI   PO4 8846  13.537  16.451   9.946 -0.2521 -0.1983 -0.2834
  565PYPI   GL1 8847  13.330  16.253   9.535 -0.1469 -0.0058 -0.0377
  565PYPI   GL2 8848  13.638  16.128   9.563 -0.1604 -0.0317  0.1392
  565PYPI   C1A 8849  13.373  16.368   9.155 -0.1915 -0.0082 -0.2417
  565PYPI   C2A 8850  13.449  16.334   8.642 -0.2993 -0.2919  0.0214
  565PYPI   D3A 8851  13.720  16.406   8.280 -0.1228  0.2946  0.1894
  565PYPI   C4A 8852  13.582  16.392   7.791 -0.0294 -0.2655 -0.2394
  565PYPI   C1B 8853  13.747  16.001   9.124  0.0125  0.0431  0.0527
  565PYPI   C2B 8854  13.764  15.985   8.681 -0.0409  0.1265 -0.0718
  565PYPI   C3B 8855  13.910  15.927   8.296  0.1110 -0.0263  0.3174
  565PYPI   C4B 8856  13.833  15.942   7.939  0.0687 -0.1138 -0.0923
  566PYPI    C1 8857  12.333  17.344  10.527  0.1818  0.0816  0.0417
  566PYPI    C2 8858  12.196  17.096  10.809  0.0299 -0.0004 -0.1024
  566PYPI    C3 8859  12.298  17.471  10.904  0.1730 -0.0889  0.0993
  566PYPI   PO4 8860  12.555  17.265  10.347  0.2866  0.1270 -0.0041
  566PYPI   GL1 8861  12.707  17.156   9.943 -0.3056  0.0077 -0.1268
  566PYPI   GL2 8862  12.370  17.307   9.823 -0.2455  0.0491  0.0800
  566PYPI   C1A 8863  12.839  17.139   9.460  0.2427  0.1453 -0.2983
  566PYPI   C2A 8864  12.852  17.197   9.067 -0.1878 -0.2198  0.2945
  566PYPI   D3A 8865  12.716  17.178   8.741  0.0756 -0.5859 -0.0605
  566PYPI   C4A 8866  12.611  17.086   8.356 -0.1002 -0.1937  0.2049
  566PYPI   C1B 8867  12.302  17.254   9.455  0.0782 -0.2376 -0.0061
  566PYPI   C2B 8868  12.364  17.319   9.038 -0.0941 -0.1691  0.1123
  566PYPI   C3B 8869  12.232  17.362   8.608 -0.3316  0.0334  0.0918
  566PYPI   C4B 8870  12.259  17.414   8.180 -0.0249 -0.2605 -0.2830
  567PYPI    C1 8871   2.780   8.269  11.390  0.0858  0.0343 -0.1007
  567PYPI    C2 8872   3.025   8.052  11.160  0.1044 -0.0618  0.0086
  567PYPI    C3 8873   3.145   8.173  11.522  0.0977  0.1404 -0.0556
  567PYPI   PO4 8874   2.681   8.431  11.170 -0.0737 -0.0768  0.4031
  567PYPI   GL1 8875   2.616   8.393  10.746 -0.1705  0.1979 -0.1360
  567PYPI   GL2 8876   2.608   8.104  10.776 -0.3865 -0.1734  0.0541
  567PYPI   C1A 8877   2.664   8.469  10.268  0.0649  0.0360  0.1028
  567PYPI   C2A 8878   2.715   8.425   9.863  0.0367 -0.0090 -0.3713
  567PYPI   D3A 8879   2.766   8.471   9.482 -0.0787  0.0294 -0.0502
  567PYPI   C4A 8880   2.658   8.374   9.097 -0.1001 -0.0637 -0.1395
  567PYPI   C1B 8881   2.328   8.034  10.439 -0.0469 -0.1165  0.2631
  567PYPI   C2B 8882   2.323   8.077   9.995 -0.1786 -0.1657  0.0060
  567PYPI   C3B 8883   2.316   8.016   9.608  0.0049 -0.0324  0.1070
  567PYPI   C4B 8884   2.278   8.024   9.164  0.1332 -0.0042  0.1134
  568PYPI    C1 8885  12.088  15.721  10.367 -0.1830 -0.1548 -0.1453
  568PYPI    C2 8886  11.734  15.848  10.231 -0.1883  0.0954  0.0940
  568PYPI    C3 8887  11.820  15.874  10.621  0.1122  0.0797  0.0316
  568PYPI   PO4 8888  12.262  15.879  10.208 -0.1446  0.4162 -0.1734
  568PYPI   GL1 8889  12.348  16.009   9.767  0.1250  0.0948 -0.0414
  568PYPI   GL2 8890  12.238  16.237   9.751  0.0991  0.2835 -0.1922
  568PYPI   C1A 8891  12.457  16.038   9.369  0.2375 -0.2646  0.1277
  568PYPI   C2A 8892  12.453  16.078   9.008  0.0969  0.0311 -0.2125
  568PYPI   D3A 8893  12.176  16.049   8.651  0.2775  0.2971 -0.0626
  568PYPI   C4A 8894  12.106  15.889   8.232  0.0964 -0.1391  0.2253
  568PYPI   C1B 8895  12.102  16.387   9.420  0.0599 -0.2269 -0.0788
  568PYPI   C2B 8896  12.070  16.476   8.994  0.0204 -0.1036  0.2101
  568PYPI   C3B 8897  11.861  16.457   8.566  0.0689 -0.2708 -0.0622
  568PYPI   C4B 8898  12.044  16.379   8.168 -0.0620 -0.1830 -0.0473
  569PYPI    C1 8899   4.350   2.224  11.306 -0.0368 -0.0450  0.0767
  569PYPI    C2 8900   4.693   2.027  11.365 -0.1215 -0.2098  0.0280
  569PYPI    C3 8901   4.481   2.157  11.678  0.0073 -0.0662  0.0574
  569PYPI   PO4 8902   4.220   2.252  11.003 -0.2859 -0.0966 -0.2627
  569PYPI   GL1 8903   4.190   1.924  10.648 -0.2447  0.3462 -0.0587
  569PYPI   GL2 8904   4.267   1.625  10.488  0.1275  0.2017  0.1007
  569PYPI   C1A 8905   4.508   2.135  10.315 -0.0245 -0.0822 -0.1031
  569PYPI   C2A 8906   4.505   2.191   9.914 -0.2115  0.0981  0.3203
  569PYPI   D3A 8907   4.646   2.210   9.550 -0.0853  0.0115 -0.3120
  569PYPI   C4A 8908   4.581   2.143   9.186  0.0139  0.0106  0.3415
  569PYPI   C1B 8909   4.236   1.701  10.020 -0.0259  0.0742  0.3552
  569PYPI   C2B 8910   4.214   1.791   9.540  0.1304  0.0718  0.0799
  569PYPI   C3B 8911   4.343   1.758   9.158  0.1025  0.3912 -0.1212
  569PYPI   C4B 8912   4.364   1.723   8.760 -0.0334  0.0483  0.3724
  570PYPI    C1 8913   6.810  13.964  10.422  0.0636 -0.4215  0.2404
  570PYPI    C2 8914   7.155  14.104  10.567 -0.0262 -0.0381  0.0944
  570PYPI    C3 8915   6.820  14.136  10.782 -0.1130  0.3045 -0.0839
  570PYPI   PO4 8916   6.815  14.040  10.030 -0.0019 -0.1350  0.1760
  570PYPI   GL1 8917   6.468  13.965   9.681  0.0661 -0.1213 -0.0430
  570PYPI   GL2 8918   6.309  13.679   9.743 -0.0091  0.2116  0.0317
  570PYPI   C1A 8919   6.570  14.072   9.222 -0.2783 -0.0727  0.1371
  570PYPI   C2A 8920   6.554  14.078   8.807  0.2687  0.0033 -0.3953
  570PYPI   D3A 8921   6.419  14.315   8.556 -0.0307  0.2201 -0.1881
  570PYPI   C4A 8922   6.694  14.736   8.568  0.2610  0.2955  0.0133
  570PYPI   C1B 8923   6.112  13.720   9.381 -0.1984  0.0155  0.1899
  570PYPI   C2B 8924   6.214  13.778   8.961  0.1242 -0.2450  0.0631
  570PYPI   C3B 8925   6.145  13.825   8.559  0.0038 -0.2236 -0.0563
  570PYPI   C4B 8926   6.289  13.919   8.082 -0.0575 -0.3060 -0.1763
  571PYPI    C1 8927   1.650   8.403  11.028  0.2438 -0.0233  0.1031
  571PYPI    C2 8928   1.420   8.610  11.281  0.4104  0.2263  0.0539
  571PYPI    C3 8929   1.577   8.260  11.395  0.1981  0.1669  0.1693
  571PYPI   PO4 8930   1.547   8.464  10.837 -0.3081 -0.0312  0.1664
  571PYPI   GL1 8931   1.588   8.599  10.424 -0.1985 -0.0786 -0.0449
  571PYPI   GL2 8932   1.287   8.664  10.414 -0.2594  0.0184  0.0744
  571PYPI   C1A 8933   1.671   8.611   9.916  0.2605 -0.2623  0.0313
  571PYPI   C2A 8934   1.708   8.664   9.464  0.1339  0.0359 -0.1589
  571PYPI   D3A 8935   1.695   8.686   9.049 -0.3931 -0.1236  0.0752
  571PYPI   C4A 8936   1.817   8.464   8.677 -0.3518 -0.4482 -0.0196
  571PYPI   C1B 8937   1.193   8.832   9.991 -0.2320  0.0219 -0.1213
  571PYPI   C2B 8938   1.206   8.846   9.521 -0.1030  0.0162  0.2215
  571PYPI   C3B 8939   1.201   8.782   9.073 -0.0784 -0.1213  0.2193
  571PYPI   C4B 8940   1.078   8.756   8.671 -0.0521  0.1010  0.1350
  572PYPI    C1 8941  14.367  16.893  10.594  0.1037  0.1119 -0.0097
  572PYPI    C2 8942  14.020  16.969  10.778 -0.0023 -0.3545 -0.0037
  572PYPI    C3 8943  14.315  16.785  10.976  0.1780 -0.1387 -0.0682
  572PYPI   PO4 8944  14.281  16.997  10.311  0.1420 -0.1487 -0.1322
  572PYPI   GL1 8945  14.588  16.973   9.879  0.0570  0.2566  0.4100
  572PYPI   GL2 8946  14.785  17.001  10.115 -0.1303 -0.1323  0.1722
  572PYPI   C1A 8947  14.624  17.043   9.472 -0.1532  0.1371  0.0012
  572PYPI   C2A 8948  14.731  17.033   9.113 -0.1238 -0.0451 -0.1087
  572PYPI   D3A 8949  14.785  16.973   8.704 -0.1062 -0.1850 -0.0113
  572PYPI   C4A 8950  14.967  17.304   8.478  0.1549 -0.3389  0.1003
  572PYPI   C1B 8951  14.988  17.341   9.869  0.1475  0.3388  0.4376
  572PYPI   C2B 8952  14.993  17.383   9.452 -0.2719  0.4075 -0.0292
  572PYPI   C3B 8953  15.224  17.410   9.035 -0.0745 -0.2044  0.1365
  572PYPI   C4B 8954  15.543  17.524   8.676  0.2035  0.2919 -0.0965
  573PYPI    C1 8955  14.712  17.534  11.001 -0.1941  0.0010  0.0466
  573PYPI    C2 8956  14.429  17.265  10.916  0.0022 -0.2440  0.1569
  573PYPI    C3 8957  14.749  17.158  11.130  0.0499  0.0959  0.2614
  573PYPI   PO4 8958  14.646  17.677  10.691 -0.0294 -0.0337 -0.0234
  573PYPI   GL1 8959  14.550  17.663  10.349 -0.2341  0.1679  0.1565
  573PYPI   GL2 8960  14.383  17.472  10.118 -0.1898  0.6161  0.1375
  573PYPI   C1A 8961  14.359  17.961  10.093  0.1349  0.2276 -0.0585
  573PYPI   C2A 8962  14.409  17.997   9.600  0.0097  0.0467  0.2766
  573PYPI   D3A 8963  14.428  18.027   9.194  0.0080 -0.2504 -0.2584
  573PYPI   C4A 8964  14.468  17.919   8.752 -0.1422  0.2951  0.1794
  573PYPI   C1B 8965  14.547  17.477   9.675  0.2826 -0.0840  0.0562
  573PYPI   C2B 8966  14.507  17.501   9.257  0.1318  0.0598 -0.0683
  573PYPI   C3B 8967  14.516  17.383   8.794 -0.1614 -0.2874 -0.0318
  573PYPI   C4B 8968  14.435  17.205   8.372 -0.0148 -0.2359  0.0123
  574ERGO   ROH 8969   7.005   8.441  10.309  0.1928 -0.0555 -0.0372
  574ERGO    R1 8970   7.066   8.276  10.087 -0.0141 -0.1450 -0.0306
  574ERGO    R2 8971   6.872   8.179   9.915 -0.1416  0.0874 -0.0260
  574ERGO    R3 8972   7.028   8.295   9.725  0.0045 -0.1119 -0.0299
  574ERGO    R4 8973   6.850   8.115   9.577 -0.0706 -0.0504 -0.0051
  574ERGO    R5 8974   7.068   8.120   9.567 -0.0660 -0.2110  0.0636
  574ERGO    C1 8975   6.984   8.187   9.201  0.1079 -0.3176  0.0033
  574ERGO    C2 8976   6.871   8.095   8.848 -0.2869  0.1810  0.1112
  575ERGO   ROH 8977   9.689   5.056  10.700 -0.1477 -0.3420  0.0818
  575ERGO    R1 8978   9.639   4.928  10.453 -0.0739 -0.2336  0.0093
  575ERGO    R2 8979   9.454   5.024  10.270 -0.0800 -0.1995  0.0319
  575ERGO    R3 8980   9.666   5.014  10.100 -0.0532 -0.0462  0.0558
  575ERGO    R4 8981   9.431   5.011   9.926 -0.0333 -0.2422  0.0307
  575ERGO    R5 8982   9.595   4.868   9.925  0.0794 -0.1146  0.0586
  575ERGO    C1 8983   9.616   4.995   9.566  0.0190 -0.1232  0.0524
  575ERGO    C2 8984   9.533   5.073   9.242  0.0537 -0.2241  0.1510
  576ERGO   ROH 8985  12.713   9.797  10.161  0.1772 -0.0235  0.0313
  576ERGO    R1 8986  12.623   9.725   9.902  0.0746 -0.1211  0.0914
  576ERGO    R2 8987  12.569   9.913   9.706 -0.3221 -0.1656  0.1357
  576ERGO    R3 8988  12.743   9.762   9.561 -0.2234  0.0712  0.0063
  576ERGO    R4 8989  12.530   9.830   9.372 -0.4050 -0.1648  0.1464
  576ERGO    R5 8990  12.604   9.631   9.418 -0.1361 -0.0758  0.0674
  576ERGO    C1 8991  12.670   9.641   9.043 -0.3607  0.0581  0.0313
  576ERGO    C2 8992  12.522   9.738   8.779  0.0674 -0.0740  0.0035
  577ERGO   ROH 8993  15.318   2.514  10.534  0.0124 -0.0483  0.0418
  577ERGO    R1 8994  15.189   2.638  10.315 -0.0530 -0.1100  0.0449
  577ERGO    R2 8995  15.320   2.811  10.144 -0.1446 -0.0330  0.0523
  577ERGO    R3 8996  15.227   2.642   9.953 -0.0514 -0.0766  0.0452
  577ERGO    R4 8997  15.273   2.895   9.812 -0.2891 -0.0117  0.0779
  577ERGO    R5 8998  15.088   2.779   9.814 -0.1961 -0.1635  0.1014
  577ERGO    C1 8999  15.158   2.784   9.439 -0.2857 -0.0402  0.0860
  577ERGO    C2 9000  15.132   2.784   9.104 -0.0634 -0.1713 -0.0573
  578ERGO   ROH 9001  14.399  13.647   9.856  0.2471  0.2478  0.0191
  578ERGO    R1 9002  14.444  13.488   9.626  0.1263  0.1146  0.0863
  578ERGO    R2 9003  14.274  13.490   9.408  0.1314  0.1563  0.0824
  578ERGO    R3 9004  14.503  13.546   9.272  0.1790 -0.0806  0.0621
  578ERGO    R4 9005  14.303  13.494   9.064  0.1437 -0.0259  0.0806
  578ERGO    R5 9006  14.497  13.398   9.084  0.0713 -0.1654  0.1304
  578ERGO    C1 9007  14.534  13.548   8.735  0.1956 -0.3542  0.0606
  578ERGO    C2 9008  14.433  13.662   8.438 -0.1937  0.0146 -0.0801
  579ERGO   ROH 9009   0.497   9.817  10.298  0.0954 -0.2178 -0.0163
  579ERGO    R1 9010   0.399   9.943  10.064  0.0279 -0.1569  0.0450
  579ERGO    R2 9011   0.567  10.056   9.876 -0.0287 -0.0970  0.0359
  579ERGO    R3 9012   0.431   9.894   9.705 -0.0653 -0.0525  0.0210
  579ERGO    R4 9013   0.506  10.126   9.543 -0.0478 -0.0293  0.0526
  579ERGO    R5 9014   0.306  10.044   9.567 -0.0595 -0.0093  0.0578
  579ERGO    C1 9015   0.344  10.014   9.188 -0.0934  0.0518  0.0484
  579ERGO    C2 9016   0.396   9.960   8.818 -0.1272  0.1556 -0.0787
  580ERGO   ROH 9017  10.467   1.503  10.252  0.2568 -0.2345  0.0190
  580ERGO    R1 9018  10.369   1.420  10.000  0.0165 -0.0525  0.0495
  580ERGO    R2 9019  10.237   1.591   9.827  0.2037  0.1758  0.1313
  580ERGO    R3 9020  10.427   1.507   9.651  0.0012 -0.0967  0.0351
  580ERGO    R4 9021  10.234   1.656   9.488  0.1800  0.2824  0.1512
  580ERGO    R5 9022  10.304   1.452   9.453 -0.1741  0.1660  0.0639
  580ERGO    C1 9023  10.409   1.615   9.125 -0.0239  0.0888  0.0724
  580ERGO    C2 9024  10.499   1.616   8.757 -0.0232  0.1364  0.1225
  581ERGO   ROH 9025   4.427   7.483  10.391 -0.2120 -0.1085  0.1663
  581ERGO    R1 9026   4.304   7.512  10.138 -0.0768 -0.0924  0.1019
  581ERGO    R2 9027   4.438   7.611   9.918  0.0393 -0.0731  0.1815
  581ERGO    R3 9028   4.354   7.380   9.802  0.1063 -0.0663  0.1180
  581ERGO    R4 9029   4.383   7.570   9.579 -0.1590  0.0668  0.1941
  581ERGO    R5 9030   4.206   7.452   9.627 -0.0547 -0.0683  0.2520
  581ERGO    C1 9031   4.274   7.329   9.273 -0.2115  0.1547  0.1417
  581ERGO    C2 9032   4.270   7.379   8.881 -0.3717 -0.1976 -0.2920
  582ERGO   ROH 9033   7.460   3.392  10.563  0.1376 -0.0497 -0.0476
  582ERGO    R1 9034   7.458   3.585  10.356  0.1812 -0.0203 -0.0200
  582ERGO    R2 9035   7.659   3.603  10.167  0.0574 -0.2108 -0.1706
  582ERGO    R3 9036   7.453   3.581   9.992 -0.1028  0.0308 -0.0197
  582ERGO    R4 9037   7.678   3.677   9.830 -0.1832  0.0426 -0.1324
  582ERGO    R5 9038   7.480   3.768   9.844 -0.1303  0.1352  0.1024
  582ERGO    C1 9039   7.495   3.700   9.469 -0.4738  0.4169  0.0315
  582ERGO    C2 9040   7.627   3.681   9.216  0.1200  0.0535 -0.0928
  583ERGO   ROH 9041  14.257  16.096   9.661  0.2240  0.0968  0.1376
  583ERGO    R1 9042  14.192  16.067   9.387  0.0866  0.0676  0.1713
  583ERGO    R2 9043  14.311  16.221   9.189 -0.0701  0.1054  0.0999
  583ERGO    R3 9044  14.369  15.978   9.081 -0.0437  0.1217  0.0802
  583ERGO    R4 9045  14.355  16.161   8.852 -0.1426  0.1176  0.0886
  583ERGO    R5 9046  14.246  15.973   8.876 -0.0927  0.0953  0.1129
  583ERGO    C1 9047  14.437  15.898   8.554 -0.1599  0.1399  0.0635
  583ERGO    C2 9048  14.488  15.883   8.262  0.3541 -0.0025  0.0727
  584ERGO   ROH 9049  16.275  17.195  10.049  0.2189  0.0742 -0.0472
  584ERGO    R1 9050  16.266  17.357   9.817  0.2725  0.1782  0.0235
  584ERGO    R2 9051  16.483  17.393   9.652  0.2070 -0.0466 -0.1106
  584ERGO    R3 9052  16.310  17.311   9.459 -0.0380  0.2577 -0.0286
  584ERGO    R4 9053  16.536  17.427   9.312  0.2509 -0.3974 -0.1433
  584ERGO    R5 9054  16.326  17.480   9.290  0.3657  0.1220 -0.1408
  584ERGO    C1 9055  16.404  17.370   8.933  0.0463 -0.3157 -0.0853
  584ERGO    C2 9056  16.522  17.270   8.601  0.0926 -0.0096 -0.1258
  585ERGO   ROH 9057  14.013  17.215   9.867 -0.0790  0.1089 -0.0855
  585ERGO    R1 9058  14.150  17.171   9.623 -0.1189 -0.0346 -0.0839
  585ERGO    R2 9059  14.059  16.996   9.430 -0.2703  0.0160 -0.0650
  585ERGO    R3 9060  14.080  17.213   9.268 -0.0930 -0.0167 -0.0858
  585ERGO    R4 9061  14.023  16.990   9.087 -0.2626  0.0154 -0.0650
  585ERGO    R5 9062  14.189  17.130   9.072 -0.1531 -0.1189 -0.0736
  585ERGO    C1 9063  14.022  17.191   8.734 -0.0917 -0.0153 -0.0844
  585ERGO    C2 9064  13.782  17.309   8.473 -0.1038 -0.1652  0.0450
  586ERGO   ROH 9065  12.068   6.701  10.703  0.1080  0.3302  0.0234
  586ERGO    R1 9066  11.993   6.625  10.440  0.1768  0.0236  0.0874
  586ERGO    R2 9067  11.835   6.784  10.279 -0.2321 -0.3962  0.0462
  586ERGO    R3 9068  12.041   6.757  10.104 -0.2182 -0.0462  0.0014
  586ERGO    R4 9069  11.801   6.701   9.945 -0.1545 -0.3325  0.0227
  586ERGO    R5 9070  11.977   6.573   9.965  0.0269 -0.0890 -0.0504
  586ERGO    C1 9071  11.976   6.627   9.587 -0.0965  0.0332 -0.0330
  586ERGO    C2 9072  12.000   6.686   9.239 -0.0742  0.1629 -0.0958
  587ERGO   ROH 9073  12.410  16.766   9.956  0.4434  0.1627  0.0305
  587ERGO    R1 9074  12.537  16.799   9.706  0.2825  0.0446 -0.0700
  587ERGO    R2 9075  12.531  16.605   9.509 -0.0421  0.0421 -0.0695
  587ERGO    R3 9076  12.435  16.809   9.356  0.0186  0.1283  0.0077
  587ERGO    R4 9077  12.507  16.598   9.165 -0.2372  0.1034 -0.0570
  587ERGO    R5 9078  12.573  16.806   9.161 -0.0924  0.0544 -0.0677
  587ERGO    C1 9079  12.402  16.785   8.820 -0.2939  0.2200  0.0229
  587ERGO    C2 9080  12.444  16.513   8.598 -0.3433  0.0015  0.2586
  588ERGO   ROH 9081   2.213   2.822  10.712  0.1860  0.0665 -0.0926
  588ERGO    R1 9082   2.131   2.905  10.455  0.0815  0.1042 -0.0476
  588ERGO    R2 9083   2.310   2.955  10.250 -0.0062  0.0371 -0.1426
  588ERGO    R3 9084   2.156   2.776  10.115 -0.1496  0.1001 -0.0644
  588ERGO    R4 9085   2.272   2.946   9.907  0.0340 -0.1227 -0.1441
  588ERGO    R5 9086   2.061   2.904   9.936 -0.0095  0.0859 -0.1493
  588ERGO    C1 9087   2.105   2.774   9.580 -0.0772 -0.1566 -0.0716
  588ERGO    C2 9088   1.971   2.763   9.283 -0.0088  0.1041  0.0352
  589ERGO   ROH 9089   2.899   3.706  10.556  0.2036 -0.0999 -0.0722
  589ERGO    R1 9090   2.874   3.786  10.286  0.2394 -0.0730 -0.0677
  589ERGO    R2 9091   3.082   3.769  10.105  0.2432 -0.1229 -0.0605
  589ERGO    R3 9092   2.902   3.628   9.959  0.2063 -0.0591 -0.0768
  589ERGO    R4 9093   3.112   3.701   9.768  0.2240 -0.0982 -0.0672
  589ERGO    R5 9094   2.898   3.738   9.747  0.2361 -0.0386 -0.0652
  589ERGO    C1 9095   2.959   3.528   9.434  0.1781 -0.0240 -0.0864
  589ERGO    C2 9096   2.922   3.539   9.105 -0.1313  0.1240 -0.0949
  590ERGO   ROH 9097   8.183   7.302  10.487  0.0061 -0.0655 -0.0808
  590ERGO    R1 9098   8.097   7.244  10.224  0.1951 -0.1581 -0.1254
  590ERGO    R2 9099   7.985   7.436  10.058 -0.3061 -0.3515 -0.0404
  590ERGO    R3 9100   8.181   7.357   9.888 -0.0471  0.2635 -0.0500
  590ERGO    R4 9101   7.955   7.423   9.714 -0.2502 -0.3875 -0.0427
  590ERGO    R5 9102   8.066   7.236   9.716  0.3204 -0.0626 -0.0739
  590ERGO    C1 9103   8.122   7.342   9.354  0.0254  0.1688 -0.0532
  590ERGO    C2 9104   7.983   7.316   9.052  0.0712 -0.0497 -0.2890
  591ERGO   ROH 9105  13.009  13.681   9.790  0.2937  0.2544 -0.0153
  591ERGO    R1 9106  12.862  13.674   9.548  0.1595  0.3010  0.0628
  591ERGO    R2 9107  12.900  13.857   9.345  0.2519  0.1732 -0.0428
  591ERGO    R3 9108  12.937  13.634   9.195 -0.0603  0.0610  0.0415
  591ERGO    R4 9109  12.889  13.847   9.000  0.2538  0.0548 -0.0388
  591ERGO    R5 9110  12.782  13.657   9.014 -0.0176  0.2116  0.0276
  591ERGO    C1 9111  12.916  13.631   8.658 -0.0382 -0.1194  0.0426
  591ERGO    C2 9112  13.007  13.785   8.382 -0.0038  0.0074 -0.0466
  592ERGO   ROH 9113  15.622  16.307  10.068 -0.0898 -0.1122 -0.0059
  592ERGO    R1 9114  15.489  16.366   9.825 -0.0510 -0.0072 -0.0028
  592ERGO    R2 9115  15.549  16.590   9.673  0.0406  0.0109  0.0523
  592ERGO    R3 9116  15.584  16.406   9.476 -0.0080  0.0421  0.0156
  592ERGO    R4 9117  15.589  16.664   9.338  0.0185  0.0574  0.0602
  592ERGO    R5 9118  15.462  16.494   9.290 -0.0099  0.0894  0.0433
  592ERGO    C1 9119  15.645  16.535   8.957 -0.0398  0.1137  0.0306
  592ERGO    C2 9120  15.751  16.496   8.624  0.2538 -0.0983  0.2027
  593ERGO   ROH 9121   1.707  15.896  10.013  0.0311  0.0245  0.0164
  593ERGO    R1 9122   1.624  15.931   9.745  0.0205 -0.0440  0.0091
  593ERGO    R2 9123   1.764  16.088   9.565 -0.0778  0.0528  0.0066
  593ERGO    R3 9124   1.762  15.862   9.415  0.0925  0.0404  0.0230
  593ERGO    R4 9125   1.757  16.080   9.220 -0.0754  0.0127  0.0086
  593ERGO    R5 9126   1.618  15.913   9.232  0.0546 -0.0891  0.0216
  593ERGO    C1 9127   1.751  15.862   8.878  0.0858 -0.0224  0.0252
  593ERGO    C2 9128   1.751  15.909   8.583 -0.2455  0.1200 -0.0923
  594ERGO   ROH 9129   9.103   1.120  10.254 -0.1103 -0.3978 -0.0599
  594ERGO    R1 9130   9.014   1.290  10.046 -0.0276 -0.1867  0.0729
  594ERGO    R2 9131   9.186   1.401   9.860  0.0020 -0.2999  0.0271
  594ERGO    R3 9132   9.015   1.286   9.682 -0.2396 -0.0138  0.0689
  594ERGO    R4 9133   9.143   1.502   9.532 -0.1132 -0.0565  0.1166
  594ERGO    R5 9134   8.929   1.469   9.555 -0.1339  0.1550  0.2380
  594ERGO    C1 9135   8.957   1.454   9.175 -0.4071  0.3538  0.2080
  594ERGO    C2 9136   9.005   1.362   8.873  0.0058  0.2178 -0.1277
  595ERGO   ROH 9137  11.044  17.525   9.931 -0.1322  0.2645 -0.0300
  595ERGO    R1 9138  11.167  17.619   9.694 -0.0749  0.2856  0.0074
  595ERGO    R2 9139  11.313  17.454   9.526  0.1137  0.3355  0.1161
  595ERGO    R3 9140  11.142  17.549   9.338  0.1426  0.1822  0.0114
  595ERGO    R4 9141  11.389  17.491   9.191  0.1740  0.0998  0.1022
  595ERGO    R5 9142  11.280  17.679   9.192  0.1565  0.0896 -0.0573
  595ERGO    C1 9143  11.273  17.601   8.819  0.2362 -0.1813 -0.0041
  595ERGO    C2 9144  11.266  17.498   8.524  0.0586 -0.1669  0.0272
  596ERGO   ROH 9145   8.366  12.222   9.860 -0.0367 -0.0195 -0.0489
  596ERGO    R1 9146   8.403  12.069   9.625 -0.0568 -0.1230  0.0158
  596ERGO    R2 9147   8.209  11.899   9.526 -0.2150  0.1255 -0.1007
  596ERGO    R3 9148   8.245  12.043   9.298  0.1713  0.0273 -0.1107
  596ERGO    R4 9149   8.182  11.773   9.205 -0.5343  0.1599 -0.0906
  596ERGO    R5 9150   8.355  11.892   9.148 -0.2065 -0.2838 -0.0947
  596ERGO    C1 9151   8.199  11.835   8.805 -0.3577  0.0877 -0.0941
  596ERGO    C2 9152   8.180  11.598   8.577 -0.1094  0.0695 -0.0232
  597ERGO   ROH 9153  17.067  11.234  10.116  0.1559 -0.2187 -0.0172
  597ERGO    R1 9154  16.918  11.302   9.885  0.0961 -0.3260 -0.0107
  597ERGO    R2 9155  16.994  11.504   9.713 -0.1537 -0.1435  0.0872
  597ERGO    R3 9156  16.975  11.308   9.526  0.1469 -0.0953 -0.0006
  597ERGO    R4 9157  16.982  11.557   9.372 -0.0344 -0.0254  0.1003
  597ERGO    R5 9158  16.831  11.400   9.357  0.1345 -0.1801 -0.0373
  597ERGO    C1 9159  16.956  11.404   8.997  0.3173  0.0886  0.0255
  597ERGO    C2 9160  16.847  11.252   8.682 -0.2546 -0.0755 -0.0896
  598ERGO   ROH 9161  15.049  15.409   9.968  0.0601 -0.0763  0.1044
  598ERGO    R1 9162  14.980  15.349   9.701  0.0792 -0.2236  0.1317
  598ERGO    R2 9163  15.000  15.533   9.496 -0.2590 -0.2172  0.0961
  598ERGO    R3 9164  15.150  15.339   9.379  0.0118 -0.0093  0.0884
  598ERGO    R4 9165  14.986  15.448   9.161 -0.3622 -0.4218  0.1511
  598ERGO    R5 9166  15.002  15.238   9.219  0.0676 -0.3681  0.2542
  598ERGO    C1 9167  15.119  15.216   8.857 -0.1681 -0.3456  0.1757
  598ERGO    C2 9168  15.106  15.225   8.528  0.1417 -0.0738 -0.2836
  599ERGO   ROH 9169   9.111  13.814   9.322  0.0928 -0.1452  0.0792
  599ERGO    R1 9170   9.185  13.757   9.054  0.0863 -0.0130  0.0485
  599ERGO    R2 9171   8.998  13.714   8.854  0.0800  0.0223  0.0430
  599ERGO    R3 9172   9.135  13.912   8.729  0.0183  0.1130  0.1189
  599ERGO    R4 9173   9.025  13.750   8.512  0.0391  0.1901  0.0571
  599ERGO    R5 9174   9.233  13.806   8.538  0.0252  0.2281  0.0603
  599ERGO    C1 9175   9.169  13.958   8.194 -0.0427  0.3731  0.1365
  599ERGO    C2 9176   9.153  14.145   7.958 -0.1459 -0.1052 -0.0395
  600ERGO   ROH 9177   9.829   2.017  10.426 -0.2436  0.0150  0.0752
  600ERGO    R1 9178   9.916   2.105  10.171 -0.1409  0.0534  0.1222
  600ERGO    R2 9179   9.925   1.938   9.951  0.0782  0.0478  0.1282
  600ERGO    R3 9180   9.773   2.133   9.838  0.0367 -0.0370  0.0380
  600ERGO    R4 9181   9.887   1.986   9.611  0.0654 -0.1083  0.1072
  600ERGO    R5 9182   9.898   2.201   9.645  0.0176 -0.0943  0.0090
  600ERGO    C1 9183   9.722   2.196   9.306  0.0189 -0.2788  0.0104
  600ERGO    C2 9184   9.845   2.246   8.981  0.0094 -0.0982 -0.0202
  601ERGO   ROH 9185  10.233   7.786  10.306  0.1021  0.1264 -0.0381
  601ERGO    R1 9186  10.364   7.753  10.058  0.0744 -0.2351 -0.0129
  601ERGO    R2 9187  10.331   7.529   9.899 -0.4313 -0.2079  0.0192
  601ERGO    R3 9188  10.266   7.712   9.710  0.0225 -0.0736 -0.0140
  601ERGO    R4 9189  10.408   7.503   9.564  0.0048 -0.1420  0.1101
  601ERGO    R5 9190  10.454   7.715   9.562  0.2221 -0.2002  0.2468
  601ERGO    C1 9191  10.392   7.660   9.190  0.6846  0.0225  0.1321
  601ERGO    C2 9192  10.441   7.639   8.840  0.1803  0.0954 -0.3248
  602ERGO   ROH 9193  13.709  14.955   9.686 -0.0059  0.2654  0.0333
  602ERGO    R1 9194  13.705  14.803   9.447  0.0059  0.1680  0.0943
  602ERGO    R2 9195  13.509  14.834   9.254 -0.0183  0.0483  0.0975
  602ERGO    R3 9196  13.723  14.871   9.090 -0.0400  0.0290  0.0650
  602ERGO    R4 9197  13.493  14.856   8.909 -0.0875  0.2209  0.1109
  602ERGO    R5 9198  13.675  14.737   8.898 -0.1452  0.1434  0.0113
  602ERGO    C1 9199  13.684  14.904   8.555 -0.1481  0.3032  0.0881
  602ERGO    C2 9200  13.746  15.119   8.323  0.2968  0.1693  0.1725
  603ERGO   ROH 9201   2.837  10.880  10.331  0.0149 -0.0971  0.0004
  603ERGO    R1 9202   2.677  10.799  10.112  0.1877 -0.1792 -0.0976
  603ERGO    R2 9203   2.519  10.976   9.970 -0.0777 -0.3152  0.0260
  603ERGO    R3 9204   2.655  10.877   9.758  0.1296  0.0872 -0.0385
  603ERGO    R4 9205   2.404  10.975   9.645 -0.0821 -0.3474  0.0272
  603ERGO    R5 9206   2.487  10.776   9.621  0.3262 -0.1741 -0.0968
  603ERGO    C1 9207   2.465  10.882   9.255  0.1100  0.0117 -0.0328
  603ERGO    C2 9208   2.514  11.015   8.929  0.0103  0.0147  0.2254
  604ERGO   ROH 9209   1.195   4.915  10.650 -0.2593 -0.0279 -0.0369
  604ERGO    R1 9210   1.069   4.979  10.404 -0.1445  0.0001 -0.0893
  604ERGO    R2 9211   1.161   5.179  10.237 -0.0771  0.0325 -0.0144
  604ERGO    R3 9212   1.161   4.980  10.052  0.0275  0.0605 -0.0449
  604ERGO    R4 9213   1.125   5.224   9.896  0.0881  0.0823 -0.0261
  604ERGO    R5 9214   0.998   5.047   9.891  0.1023  0.0742 -0.1153
  604ERGO    C1 9215   1.104   5.063   9.525  0.2825  0.1376 -0.0617
  604ERGO    C2 9216   1.037   5.164   9.152 -0.1062  0.2823  0.1933
  605ERGO   ROH 9217  16.448  16.786  10.019 -0.1151 -0.0152  0.0593
  605ERGO    R1 9218  16.409  16.866   9.750 -0.0158  0.0696  0.0700
  605ERGO    R2 9219  16.610  16.980   9.598  0.0781 -0.0088  0.1375
  605ERGO    R3 9220  16.549  16.779   9.425 -0.0006  0.0668  0.0767
  605ERGO    R4 9221  16.634  17.002   9.254  0.2172  0.0473  0.1500
  605ERGO    R5 9222  16.447  16.891   9.240  0.1420  0.1784  0.0616
  605ERGO    C1 9223  16.590  16.827   8.892  0.2244  0.1510  0.1002
  605ERGO    C2 9224  16.612  16.787   8.541 -0.0202  0.0033 -0.1541
  606ERGO   ROH 9225  11.856  11.594  10.215 -0.0334 -0.0820 -0.1136
  606ERGO    R1 9226  11.801  11.699   9.958  0.1356 -0.0685 -0.1461
  606ERGO    R2 9227  11.953  11.635   9.736  0.1159 -0.2785 -0.1046
  606ERGO    R3 9228  11.712  11.565   9.631  0.0574 -0.0349 -0.1383
  606ERGO    R4 9229  11.899  11.552   9.405  0.0875 -0.2731 -0.1006
  606ERGO    R5 9230  11.711  11.663   9.413  0.2056 -0.0684 -0.1538
  606ERGO    C1 9231  11.642  11.437   9.114  0.0162 -0.0413 -0.1300
  606ERGO    C2 9232  11.656  11.511   8.802 -0.0543 -0.0707  0.2086
  607ERGO   ROH 9233  15.059  14.289  10.106 -0.2601  0.2821  0.1072
  607ERGO    R1 9234  15.034  14.354   9.831 -0.2315  0.0678  0.0532
  607ERGO    R2 9235  15.252  14.420   9.674 -0.2403  0.1291  0.0758
  607ERGO    R3 9236  15.157  14.220   9.516 -0.0321 -0.0579  0.1806
  607ERGO    R4 9237  15.328  14.379   9.339 -0.3950  0.1895  0.0308
  607ERGO    R5 9238  15.121  14.324   9.303 -0.3415 -0.1496  0.1806
  607ERGO    C1 9239  15.284  14.167   8.997 -0.2896  0.0491  0.1027
  607ERGO    C2 9240  15.512  14.278   8.670 -0.1335  0.1280 -0.0044
  608ERGO   ROH 9241   7.256   1.594  10.619 -0.0031 -0.2471 -0.0484
  608ERGO    R1 9242   7.312   1.487  10.363 -0.1092 -0.1823 -0.0989
  608ERGO    R2 9243   7.120   1.357  10.211 -0.2337  0.0643 -0.1541
  608ERGO    R3 9244   7.193   1.539  10.023 -0.0694  0.0829 -0.0743
  608ERGO    R4 9245   7.081   1.317   9.870 -0.0443  0.1428 -0.1864
  608ERGO    R5 9246   7.276   1.408   9.842  0.0013  0.0940 -0.0521
  608ERGO    C1 9247   7.127   1.464   9.495  0.2202  0.2059 -0.1304
  608ERGO    C2 9248   7.135   1.408   9.098 -0.0333 -0.0129 -0.0210
  609ERGO   ROH 9249   8.259   2.098  10.307  0.2681 -0.1585  0.1067
  609ERGO    R1 9250   8.402   2.125  10.064  0.1815 -0.0694  0.0649
  609ERGO    R2 9251   8.427   1.919   9.882  0.1458 -0.0134 -0.0041
  609ERGO    R3 9252   8.327   2.103   9.709  0.0625  0.0248  0.0835
  609ERGO    R4 9253   8.460   1.904   9.538  0.3332  0.2720 -0.0019
  609ERGO    R5 9254   8.494   2.119   9.537  0.1351  0.3073  0.1765
  609ERGO    C1 9255   8.385   2.068   9.175  0.3642  0.4742  0.0816
  609ERGO    C2 9256   8.379   2.017   8.859  0.1661 -0.2172  0.0290
  610ERGO   ROH 9257  16.420   4.309  10.549  0.0920  0.1303 -0.0256
  610ERGO    R1 9258  16.248   4.332  10.325 -0.0383  0.1971  0.0781
  610ERGO    R2 9259  16.285   4.521  10.127  0.0523  0.0374 -0.0697
  610ERGO    R3 9260  16.279   4.303   9.964 -0.3147 -0.0636  0.0727
  610ERGO    R4 9261  16.215   4.529   9.789  0.2552 -0.0450 -0.1139
  610ERGO    R5 9262  16.098   4.347   9.813 -0.1423  0.2144 -0.0533
  610ERGO    C1 9263  16.168   4.330   9.439  0.0288 -0.1878 -0.0060
  610ERGO    C2 9264  16.255   4.404   9.122 -0.1049 -0.1072  0.1681
  611ERGO   ROH 9265  10.816   1.323   9.862 -0.1431 -0.1040  0.0188
  611ERGO    R1 9266  10.896   1.271   9.595 -0.2100 -0.1232  0.0018
  611ERGO    R2 9267  10.720   1.279   9.382 -0.2075  0.1528  0.0044
  611ERGO    R3 9268  10.902   1.453   9.281  0.0038 -0.0336  0.0564
  611ERGO    R4 9269  10.784   1.325   9.046 -0.1884  0.2138  0.0167
  611ERGO    R5 9270  10.996   1.339   9.092 -0.1627 -0.0749 -0.0020
  611ERGO    C1 9271  10.992   1.516   8.754  0.0212  0.0744  0.0725
  611ERGO    C2 9272  10.969   1.575   8.458  0.0398 -0.1559 -0.1789
  612ERGO   ROH 9273  15.950   5.656  10.623  0.1320  0.1035 -0.0871
  612ERGO    R1 9274  16.082   5.577  10.385  0.0990  0.1347 -0.1159
  612ERGO    R2 9275  15.970   5.400  10.204  0.1263  0.0614 -0.0620
  612ERGO    R3 9276  16.018   5.601  10.027 -0.0164  0.0631 -0.1007
  612ERGO    R4 9277  15.921   5.378   9.863  0.1338 -0.0358 -0.0571
  612ERGO    R5 9278  16.106   5.489   9.834  0.0566  0.0878 -0.0815
  612ERGO    C1 9279  15.939   5.554   9.498  0.0042 -0.0908 -0.0907
  612ERGO    C2 9280  15.954   5.460   9.192  0.2678 -0.0370  0.3970
  613ERGO   ROH 9281   9.230   8.128  10.256 -0.0466  0.2198 -0.1313
  613ERGO    R1 9282   9.335   7.958  10.056 -0.0430  0.1575 -0.0765
  613ERGO    R2 9283   9.181   7.857   9.850 -0.0331  0.1132 -0.0594
  613ERGO    R3 9284   9.373   7.968   9.694 -0.0125  0.0546 -0.0771
  613ERGO    R4 9285   9.214   7.805   9.510 -0.0800  0.0972 -0.0620
  613ERGO    R5 9286   9.430   7.796   9.537 -0.0778  0.0332 -0.0799
  613ERGO    C1 9287   9.414   7.879   9.165 -0.0881  0.0330 -0.0800
  613ERGO    C2 9288   9.445   7.912   8.839 -0.0602 -0.0999  0.0469
  614ERGO   ROH 9289  11.705  13.388   9.803 -0.0379 -0.2334 -0.0380
  614ERGO    R1 9290  11.834  13.402   9.552 -0.1030 -0.0792 -0.0628
  614ERGO    R2 9291  11.896  13.178   9.403 -0.2091  0.0181 -0.2493
  614ERGO    R3 9292  11.757  13.308   9.209 -0.2223  0.2051 -0.1181
  614ERGO    R4 9293  11.936  13.127   9.064 -0.4470  0.1082 -0.2935
  614ERGO    R5 9294  11.918  13.342   9.034 -0.2921  0.1406 -0.2001
  614ERGO    C1 9295  11.829  13.220   8.684 -0.5979  0.3362 -0.1962
  614ERGO    C2 9296  12.058  13.217   8.380  0.1150 -0.0388 -0.0754
  615ERGO   ROH 9297  17.497   9.168  10.516  0.2303 -0.2565  0.0192
  615ERGO    R1 9298  17.390   9.167  10.254  0.1415 -0.2710  0.0524
  615ERGO    R2 9299  17.369   9.396  10.101 -0.2340 -0.2039  0.1667
  615ERGO    R3 9300  17.508   9.249   9.920 -0.0737  0.0748  0.0608
  615ERGO    R4 9301  17.316   9.401   9.759 -0.5174 -0.3541  0.2078
  615ERGO    R5 9302  17.345   9.185   9.757 -0.0655 -0.2862  0.2021
  615ERGO    C1 9303  17.415   9.265   9.391 -0.5320 -0.1801  0.1323
  615ERGO    C2 9304  17.384   9.250   9.012 -0.0216 -0.0598  0.0830
  616ERGO   ROH 9305   4.762  15.646  10.401 -0.0834 -0.0959 -0.0790
  616ERGO    R1 9306   4.540  15.728  10.245 -0.0469 -0.0144 -0.0886
  616ERGO    R2 9307   4.567  15.885  10.020  0.0316 -0.1132 -0.1481
  616ERGO    R3 9308   4.428  15.683   9.902 -0.1058 -0.0698 -0.0626
  616ERGO    R4 9309   4.400  15.910   9.718 -0.0582 -0.0890 -0.0968
  616ERGO    R5 9310   4.238  15.791   9.804 -0.0878  0.0042 -0.0185
  616ERGO    C1 9311   4.172  15.735   9.432 -0.2394 -0.0342  0.0134
  616ERGO    C2 9312   4.208  15.707   8.977  0.2756 -0.2838 -0.0366
  617ERGO   ROH 9313   3.795  13.478   9.855 -0.0620  0.1157 -0.0251
  617ERGO    R1 9314   3.883  13.498   9.587 -0.0774  0.1558 -0.0274
  617ERGO    R2 9315   3.843  13.297   9.401  0.1296  0.0758  0.0082
  617ERGO    R3 9316   3.729  13.497   9.257 -0.0751 -0.0636 -0.0286
  617ERGO    R4 9317   3.824  13.304   9.056  0.2135  0.0481  0.0027
  617ERGO    R5 9318   3.870  13.518   9.064 -0.0475  0.1045  0.0104
  617ERGO    C1 9319   3.706  13.497   8.720  0.0701 -0.0987 -0.0350
  617ERGO    C2 9320   3.784  13.508   8.383 -0.0664  0.2383  0.3422
  618ERGO   ROH 9321  17.685   5.059  10.666 -0.1188  0.1493  0.2534
  618ERGO    R1 9322  17.611   4.969  10.408 -0.0341  0.1615  0.2252
  618ERGO    R2 9323  17.412   5.090  10.260 -0.0421  0.1148  0.2027
  618ERGO    R3 9324  17.607   5.107  10.071 -0.0099  0.2074  0.2429
  618ERGO    R4 9325  17.362   5.050   9.920  0.0503  0.0469  0.1963
  618ERGO    R5 9326  17.549   4.938   9.911  0.1200  0.1531  0.2490
  618ERGO    C1 9327  17.516   5.042   9.545  0.1343  0.0944  0.2302
  618ERGO    C2 9328  17.361   4.987   9.269  0.0631 -0.0460 -0.2235
  619ERGO   ROH 9329  16.351  16.024   9.886  0.0323  0.2099  0.0091
  619ERGO    R1 9330  16.268  15.959   9.624 -0.0554  0.3679 -0.0034
  619ERGO    R2 9331  16.265  16.144   9.419  0.4727  0.3535 -0.0380
  619ERGO    R3 9332  16.418  15.959   9.292  0.0562 -0.0658  0.0401
  619ERGO    R4 9333  16.283  16.106   9.076  0.6199  0.3851 -0.0348
  619ERGO    R5 9334  16.284  15.890   9.106 -0.0166  0.3550 -0.0769
  619ERGO    C1 9335  16.437  15.910   8.757  0.3144  0.0099  0.0405
  619ERGO    C2 9336  16.445  15.867   8.292 -0.1724  0.0589  0.2404
  620ERGO   ROH 9337  12.144  10.716  10.096  0.1279  0.0606 -0.1000
  620ERGO    R1 9338  12.061  10.744   9.826  0.1245  0.0916 -0.0966
  620ERGO    R2 9339  12.199  10.899   9.644  0.1345  0.0977 -0.0876
  620ERGO    R3 9340  12.200  10.670   9.498  0.1130  0.1091 -0.1047
  620ERGO    R4 9341  12.254  10.881   9.303 -0.0258  0.1314 -0.1157
  620ERGO    R5 9342  12.098  10.730   9.291  0.0011  0.1008 -0.0511
  620ERGO    C1 9343  12.288  10.655   8.968 -0.1395  0.1617 -0.1482
  620ERGO    C2 9344  12.439  10.685   8.699 -0.3363  0.0743  0.2679
  621ERGO   ROH 9345   8.594  10.560  10.083 -0.0532  0.3547 -0.0407
  621ERGO    R1 9346   8.691  10.614   9.823 -0.0950  0.2169 -0.0862
  621ERGO    R2 9347   8.828  10.427   9.673 -0.1091  0.1389 -0.0066
  621ERGO    R3 9348   8.637  10.482   9.488 -0.1415  0.0302 -0.0056
  621ERGO    R4 9349   8.862  10.377   9.333 -0.0657  0.2126 -0.0133
  621ERGO    R5 9350   8.758  10.566   9.300 -0.1968  0.1429  0.0103
  621ERGO    C1 9351   8.702  10.399   8.961 -0.0711  0.1536 -0.0162
  621ERGO    C2 9352   8.752  10.359   8.638 -0.0327 -0.0394 -0.0688
  622ERGO   ROH 9353   8.963  17.574   9.970  0.1806  0.0810  0.0539
  622ERGO    R1 9354   8.863  17.562   9.705  0.0957  0.0408  0.0873
  622ERGO    R2 9355   8.765  17.784   9.573  0.1820  0.0490  0.0365
  622ERGO    R3 9356   8.947  17.712   9.384  0.0864 -0.1221  0.0072
  622ERGO    R4 9357   8.731  17.843   9.234  0.0941 -0.0919  0.0197
  622ERGO    R5 9358   8.814  17.645   9.197 -0.0092 -0.1489  0.0829
  622ERGO    C1 9359   8.882  17.811   8.860 -0.0468 -0.3346 -0.0174
  622ERGO    C2 9360   8.930  17.826   8.485 -0.0861  0.1842 -0.0475
  623ERGO   ROH 9361  11.052  10.240  10.194 -0.3276 -0.2596 -0.0463
  623ERGO    R1 9362  11.174  10.358   9.967 -0.0117 -0.3190  0.0857
  623ERGO    R2 9363  11.300  10.208   9.772 -0.2762 -0.4320 -0.0076
  623ERGO    R3 9364  11.130  10.341   9.606  0.0413  0.0804  0.0575
  623ERGO    R4 9365  11.290  10.171   9.428 -0.3226 -0.1673 -0.0364
  623ERGO    R5 9366  11.262  10.387   9.411  0.1730 -0.0803  0.1093
  623ERGO    C1 9367  11.126  10.275   9.073 -0.0514  0.4676  0.0078
  623ERGO    C2 9368  11.097  10.215   8.715 -0.3629  0.1465 -0.3137
  624ERGO   ROH 9369  17.497   7.026  10.613 -0.0567  0.1158 -0.0944
  624ERGO    R1 9370  17.584   7.065  10.346 -0.0905  0.1067 -0.1085
  624ERGO    R2 9371  17.670   6.857  10.185  0.0091  0.1121 -0.0763
  624ERGO    R3 9372  17.481   6.953  10.016 -0.0552 -0.0157 -0.0761
  624ERGO    R4 9373  17.657   6.793   9.846  0.0540  0.1295 -0.0801
  624ERGO    R5 9374  17.600   7.000   9.814 -0.0935  0.0830 -0.0689
  624ERGO    C1 9375  17.472   6.847   9.489  0.0199  0.0198 -0.0821
  624ERGO    C2 9376  17.435   6.895   9.170 -0.2610 -0.0213  0.0168
  625ERGO   ROH 9377  17.268  13.716  10.217 -0.0189 -0.2559  0.0450
  625ERGO    R1 9378  17.147  13.741   9.963 -0.0753 -0.2529  0.0725
  625ERGO    R2 9379  17.259  13.890   9.758 -0.1825 -0.1527  0.0901
  625ERGO    R3 9380  17.235  13.658   9.619 -0.0978 -0.1300  0.0360
  625ERGO    R4 9381  17.304  13.858   9.417  0.0537 -0.0965  0.1141
  625ERGO    R5 9382  17.134  13.723   9.412  0.0476 -0.0891 -0.0256
  625ERGO    C1 9383  17.308  13.622   9.088  0.2708 -0.0425  0.0771
  625ERGO    C2 9384  17.297  13.594   8.744  0.0839  0.1506 -0.1685
  626ERGO   ROH 9385  11.654   8.951  10.388 -0.1285  0.3248 -0.1791
  626ERGO    R1 9386  11.516   8.860  10.158 -0.0713  0.1350 -0.1410
  626ERGO    R2 9387  11.504   9.007   9.924 -0.0421 -0.0391 -0.2592
  626ERGO    R3 9388  11.603   8.779   9.814  0.0109 -0.1118 -0.0633
  626ERGO    R4 9389  11.451   8.906   9.598 -0.1163 -0.3994 -0.1390
  626ERGO    R5 9390  11.428   8.702   9.670 -0.0055 -0.3345  0.0767
  626ERGO    C1 9391  11.513   8.633   9.305 -0.1096 -0.6774  0.1147
  626ERGO    C2 9392  11.448   8.709   8.991  0.1976 -0.1592  0.2749
  627ERGO   ROH 9393   9.651  16.874   9.741  0.0553 -0.1242 -0.0386
  627ERGO    R1 9394   9.508  16.984   9.523  0.2417  0.1116 -0.0443
  627ERGO    R2 9395   9.634  17.102   9.307  0.4579 -0.2499 -0.1195
  627ERGO    R3 9396   9.486  16.924   9.164  0.0198  0.0173 -0.0179
  627ERGO    R4 9397   9.568  17.127   8.969  0.6054 -0.3185 -0.1548
  627ERGO    R5 9398   9.365  17.060   9.009  0.4030  0.2354 -0.1453
  627ERGO    C1 9399   9.391  16.975   8.638  0.2801 -0.1075 -0.0800
  627ERGO    C2 9400   9.444  17.114   8.401  0.1406  0.0713 -0.0302
  628ERGO   ROH 9401   3.985   5.209  10.444  0.2669 -0.2075 -0.0201
  628ERGO    R1 9402   3.851   5.221  10.195  0.1486 -0.0581  0.0476
  628ERGO    R2 9403   3.940   5.377   9.985  0.1489 -0.0601  0.0370
  628ERGO    R3 9404   3.930   5.143   9.848 -0.0702 -0.0252 -0.0089
  628ERGO    R4 9405   3.964   5.348   9.642  0.1043 -0.0311  0.0320
  628ERGO    R5 9406   3.809   5.196   9.649 -0.0286  0.1131  0.0088
  628ERGO    C1 9407   3.969   5.111   9.313 -0.1273  0.0185 -0.0141
  628ERGO    C2 9408   3.981   5.126   8.921 -0.0711  0.0843  0.1555
  629ERGO   ROH 9409  15.577  10.785  10.286  0.1558  0.2054  0.0263
  629ERGO    R1 9410  15.598  10.913  10.035  0.1949 -0.0100 -0.0826
  629ERGO    R2 9411  15.784  10.838   9.845  0.1310 -0.2690 -0.0500
  629ERGO    R3 9412  15.565  10.816   9.685  0.0963 -0.2789 -0.0007
  629ERGO    R4 9413  15.793  10.783   9.504  0.0525 -0.2527 -0.0548
  629ERGO    R5 9414  15.629  10.925   9.482  0.0380 -0.2661 -0.0104
  629ERGO    C1 9415  15.593  10.731   9.155 -0.0258 -0.2525 -0.0112
  629ERGO    C2 9416  15.790  10.764   8.866  0.0887 -0.0576 -0.1396
  630ERGO   ROH 9417  14.498   6.484  10.821 -0.0086  0.1277 -0.1632
  630ERGO    R1 9418  14.524   6.401  10.551  0.1091  0.2664 -0.1963
  630ERGO    R2 9419  14.311   6.303  10.405  0.2709 -0.1224 -0.1851
  630ERGO    R3 9420  14.383   6.499  10.230 -0.1579  0.0915 -0.1356
  630ERGO    R4 9421  14.276   6.285  10.062  0.3358 -0.1259 -0.1913
  630ERGO    R5 9422  14.470   6.381  10.041  0.1287  0.3266 -0.1573
  630ERGO    C1 9423  14.323   6.457   9.698 -0.0289  0.0728 -0.1483
  630ERGO    C2 9424  14.448   6.429   9.331  0.1976  0.1403 -0.1190
  631ERGO   ROH 9425  12.395  14.586   9.886 -0.1456  0.1581 -0.1748
  631ERGO    R1 9426  12.337  14.622   9.611  0.0455  0.1249 -0.2212
  631ERGO    R2 9427  12.532  14.681   9.425  0.2191 -0.1514 -0.1384
  631ERGO    R3 9428  12.432  14.462   9.298  0.0502 -0.0916 -0.1099
  631ERGO    R4 9429  12.501  14.649   9.082  0.0036 -0.1023 -0.1243
  631ERGO    R5 9430  12.308  14.552   9.114 -0.0171 -0.0202 -0.0262
  631ERGO    C1 9431  12.388  14.424   8.764 -0.2803 -0.0177 -0.0894
  631ERGO    C2 9432  12.409  14.382   8.481  0.1142 -0.0068 -0.1111
  632ERGO   ROH 9433  15.738   0.279  10.200  0.1872  0.1580  0.0266
  632ERGO    R1 9434  15.738   0.216   9.924 -0.0229  0.1095  0.0365
  632ERGO    R2 9435  15.600   0.367   9.737 -0.0532  0.1572  0.0988
  632ERGO    R3 9436  15.843   0.379   9.616 -0.1201 -0.0055 -0.0588
  632ERGO    R4 9437  15.652   0.373   9.396 -0.2692  0.1127  0.0632
  632ERGO    R5 9438  15.821   0.241   9.423 -0.3363  0.0013 -0.0431
  632ERGO    C1 9439  15.910   0.390   9.083 -0.4577 -0.0659 -0.1054
  632ERGO    C2 9440  15.979   0.403   8.827  0.1368 -0.2291 -0.5118
  633ERGO   ROH 9441   7.050   6.088  10.599 -0.0149 -0.0166 -0.0659
  633ERGO    R1 9442   7.140   6.002  10.345 -0.0290 -0.1003 -0.0446
  633ERGO    R2 9443   7.088   5.748  10.246 -0.0407 -0.1400  0.0339
  633ERGO    R3 9444   6.987   5.887  10.036 -0.0526 -0.1954  0.0060
  633ERGO    R4 9445   7.131   5.663   9.914  0.1599 -0.0530  0.0376
  633ERGO    R5 9446   7.158   5.874   9.868  0.0174 -0.0391  0.0764
  633ERGO    C1 9447   7.062   5.743   9.523  0.2656 -0.0544  0.0137
  633ERGO    C2 9448   7.076   5.809   9.283 -0.2050  0.0606 -0.0429
  634ERGO   ROH 9449   3.327  12.046  10.138  0.0302  0.1563 -0.0233
  634ERGO    R1 9450   3.376  12.133   9.873 -0.0251  0.0892 -0.0562
  634ERGO    R2 9451   3.429  11.958   9.666 -0.0505  0.0369 -0.0203
  634ERGO    R3 9452   3.222  12.087   9.547 -0.0827 -0.0102 -0.0150
  634ERGO    R4 9453   3.361  11.950   9.328  0.0139  0.1228 -0.0353
  634ERGO    R5 9454   3.312  12.162   9.338 -0.0771  0.0980  0.0270
  634ERGO    C1 9455   3.127  12.067   9.018  0.0210  0.1286 -0.0391
  634ERGO    C2 9456   3.202  12.117   8.664  0.0807 -0.0122  0.0737
  635ERGO   ROH 9457   8.153   1.686  10.313 -0.1336  0.0213 -0.0260
  635ERGO    R1 9458   8.004   1.629  10.080 -0.1210  0.0240 -0.0344
  635ERGO    R2 9459   7.993   1.803   9.865 -0.1712  0.0601 -0.0008
  635ERGO    R3 9460   8.075   1.584   9.725 -0.1142  0.1090 -0.0446
  635ERGO    R4 9461   7.999   1.780   9.520 -0.4457  0.0313 -0.0062
  635ERGO    R5 9462   7.926   1.575   9.537 -0.2696 -0.0278  0.0801
  635ERGO    C1 9463   8.079   1.562   9.188 -0.5520  0.0604 -0.0504
  635ERGO    C2 9464   7.996   1.656   8.953 -0.1604  0.2960 -0.3670
  636ERGO   ROH 9465  17.512  11.246  10.043  0.2610  0.3370 -0.0776
  636ERGO    R1 9466  17.376  11.238   9.795  0.1684  0.4179 -0.0311
  636ERGO    R2 9467  17.445  11.399   9.582  0.3467  0.2152 -0.1356
  636ERGO    R3 9468  17.460  11.162   9.450 -0.0464  0.1185 -0.0205
  636ERGO    R4 9469  17.465  11.365   9.238  0.7173  0.0362 -0.1008
  636ERGO    R5 9470  17.329  11.195   9.252  0.2857  0.3611 -0.2060
  636ERGO    C1 9471  17.491  11.123   8.914  0.5641 -0.1588  0.0277
  636ERGO    C2 9472  17.420  11.146   8.627  0.0104  0.1357 -0.0623
  637ERGO   ROH 9473  10.396   9.471  10.106 -0.3452  0.0325 -0.0918
  637ERGO    R1 9474  10.413   9.565   9.839 -0.0934  0.0722 -0.0652
  637ERGO    R2 9475  10.617   9.490   9.668 -0.0890 -0.1375  0.0236
  637ERGO    R3 9476  10.410   9.417   9.506 -0.0989  0.1442 -0.0967
  637ERGO    R4 9477  10.609   9.533   9.325  0.1730 -0.1423  0.0156
  637ERGO    R5 9478  10.399   9.590   9.341  0.2413  0.1531 -0.1139
  637ERGO    C1 9479  10.411   9.489   8.974  0.3163  0.1193 -0.1017
  637ERGO    C2 9480  10.404   9.427   8.608  0.1896  0.0332  0.4040
  638ERGO   ROH 9481   7.665  15.046   9.736 -0.3046 -0.1725 -0.1579
  638ERGO    R1 9482   7.744  15.186   9.503 -0.1354 -0.2244 -0.1348
  638ERGO    R2 9483   7.796  15.059   9.263 -0.1552 -0.2598 -0.1232
  638ERGO    R3 9484   7.612  15.235   9.168 -0.0037 -0.1273 -0.1728
  638ERGO    R4 9485   7.725  15.108   8.929 -0.2097 -0.3950 -0.1309
  638ERGO    R5 9486   7.711  15.322   8.968  0.0248 -0.3546 -0.2591
  638ERGO    C1 9487   7.511  15.301   8.644 -0.0992 -0.3493 -0.1819
  638ERGO    C2 9488   7.373  15.489   8.362  0.0711 -0.1470  0.0459
  639ERGO   ROH 9489   0.398   0.411  10.510 -0.0856 -0.1908 -0.0202
  639ERGO    R1 9490   0.304   0.558  10.286  0.1640  0.0359  0.0194
  639ERGO    R2 9491   0.470   0.635  10.079  0.2699 -0.3624 -0.0492
  639ERGO    R3 9492   0.285   0.507   9.926 -0.1128  0.0714  0.0259
  639ERGO    R4 9493   0.455   0.651   9.734  0.3848 -0.5817 -0.0665
  639ERGO    R5 9494   0.237   0.662   9.749  0.3918  0.0995 -0.1049
  639ERGO    C1 9495   0.273   0.540   9.390  0.0925 -0.3022 -0.0059
  639ERGO    C2 9496   0.322   0.479   9.007 -0.3555  0.0277  0.0746
  640ERGO   ROH 9497  16.933   3.907  10.688  0.0092 -0.3142  0.0722
  640ERGO    R1 9498  17.013   3.827  10.428 -0.0055 -0.1239  0.0080
  640ERGO    R2 9499  16.864   3.652  10.273  0.0516 -0.1110 -0.0587
  640ERGO    R3 9500  16.878   3.853  10.091 -0.0909  0.0015  0.0504
  640ERGO    R4 9501  16.791   3.619   9.937  0.1023  0.0108 -0.0826
  640ERGO    R5 9502  16.961   3.747   9.893  0.0082  0.1704 -0.0019
  640ERGO    C1 9503  16.762   3.789   9.570 -0.0020  0.1872  0.0060
  640ERGO    C2 9504  16.750   3.770   9.194 -0.1298 -0.1865 -0.0812
  641ERGO   ROH 9505   9.759  14.474   9.677 -0.0409 -0.3310  0.0868
  641ERGO    R1 9506   9.792  14.648   9.457 -0.0771 -0.2263  0.1620
  641ERGO    R2 9507   9.972  14.597   9.253  0.0134 -0.0476  0.1868
  641ERGO    R3 9508   9.752  14.628   9.096  0.0351 -0.1158  0.1447
  641ERGO    R4 9509   9.977  14.640   8.910  0.0484 -0.1269  0.1781
  641ERGO    R5 9510   9.818  14.787   8.930  0.0295 -0.1498  0.1175
  641ERGO    C1 9511   9.774  14.694   8.563  0.0893 -0.2372  0.1334
  641ERGO    C2 9512   9.823  14.829   8.149 -0.2326  0.2934 -0.0254
  642ERGO   ROH 9513   7.146  12.129  10.142 -0.2436 -0.2078  0.1806
  642ERGO    R1 9514   7.279  12.095   9.895 -0.0595  0.0491  0.2402
  642ERGO    R2 9515   7.223  11.884   9.723  0.3142  0.0273  0.1405
  642ERGO    R3 9516   7.184  12.085   9.543  0.1460  0.0352  0.1831
  642ERGO    R4 9517   7.216  11.845   9.380  0.2126  0.0697  0.1367
  642ERGO    R5 9518   7.328  12.030   9.361  0.1120  0.1333  0.1232
  642ERGO    C1 9519   7.176  12.009   9.012 -0.0043  0.1019  0.1744
  642ERGO    C2 9520   7.056  11.938   8.757  0.2809  0.0696 -0.1216
  643ERGO   ROH 9521   4.183  10.032  10.668 -0.0923  0.0218 -0.1418
  643ERGO    R1 9522   4.306  10.025  10.413 -0.1233  0.0132 -0.1561
  643ERGO    R2 9523   4.258   9.824  10.230 -0.1447  0.0092 -0.1415
  643ERGO    R3 9524   4.195  10.031  10.066 -0.1629  0.0014 -0.1449
  643ERGO    R4 9525   4.213   9.798   9.888 -0.0371  0.0095 -0.1562
  643ERGO    R5 9526   4.319   9.988   9.865 -0.0876  0.0484 -0.1131
  643ERGO    C1 9527   4.127   9.978   9.535  0.0083  0.0024 -0.1681
  643ERGO    C2 9528   4.117   9.941   9.238  0.0465 -0.2021  0.5882
  644ERGO   ROH 9529   6.928  14.387   9.726  0.0387 -0.0749 -0.0208
  644ERGO    R1 9530   6.846  14.432   9.459  0.0170 -0.0526 -0.0103
  644ERGO    R2 9531   6.991  14.588   9.283 -0.0162 -0.0088  0.0021
  644ERGO    R3 9532   6.980  14.365   9.127  0.0075  0.0097 -0.0267
  644ERGO    R4 9533   7.010  14.588   8.938 -0.0696  0.0417 -0.0013
  644ERGO    R5 9534   6.855  14.434   8.934 -0.0372  0.0089  0.0018
  644ERGO    C1 9535   7.011  14.379   8.590 -0.0783  0.0886 -0.0304
  644ERGO    C2 9536   7.150  14.527   8.350 -0.0487  0.1180  0.2174
  645ERGO   ROH 9537  11.991  15.567   9.837 -0.1377  0.0962  0.0104
  645ERGO    R1 9538  12.023  15.659   9.571 -0.0931  0.0614  0.0030
  645ERGO    R2 9539  12.250  15.609   9.422 -0.0622  0.0479  0.0486
  645ERGO    R3 9540  12.071  15.510   9.243 -0.0294  0.0165  0.0339
  645ERGO    R4 9541  12.278  15.636   9.078 -0.0472  0.0502  0.0502
  645ERGO    R5 9542  12.064  15.674   9.069 -0.0489  0.0105  0.0335
  645ERGO    C1 9543  12.126  15.559   8.710 -0.0078  0.0219  0.0373
  645ERGO    C2 9544  12.146  15.412   8.451 -0.0735 -0.2810 -0.1608
  646ERGO   ROH 9545  13.083   9.755   9.931 -0.2967  0.0736  0.0157
  646ERGO    R1 9546  13.162   9.732   9.660 -0.1552  0.1277  0.0517
  646ERGO    R2 9547  13.235   9.492   9.546 -0.1077  0.1485  0.0385
  646ERGO    R3 9548  13.043   9.557   9.364 -0.0094  0.1973 -0.0490
  646ERGO    R4 9549  13.265   9.453   9.204 -0.0046  0.0366  0.0593
  646ERGO    R5 9550  13.165   9.645   9.178  0.1035  0.0820 -0.0312
  646ERGO    C1 9551  13.102   9.492   8.834  0.1477  0.0174 -0.0108
  646ERGO    C2 9552  13.172   9.387   8.542 -0.2373  0.0264  0.0208
  647ERGO   ROH 9553   4.186  13.677  10.063  0.0188 -0.3637  0.0049
  647ERGO    R1 9554   4.248  13.823   9.828 -0.1685 -0.1644  0.0764
  647ERGO    R2 9555   4.366  13.706   9.608  0.0683  0.1140  0.0550
  647ERGO    R3 9556   4.153  13.813   9.477 -0.0812 -0.1771  0.0511
  647ERGO    R4 9557   4.332  13.721   9.264  0.2075  0.3278  0.0484
  647ERGO    R5 9558   4.248  13.921   9.286 -0.1846  0.1648  0.1809
  647ERGO    C1 9559   4.112  13.831   8.942  0.1483  0.1790  0.0411
  647ERGO    C2 9560   4.121  13.802   8.638 -0.0405 -0.2826 -0.0310
  648ERGO   ROH 9561   1.203  15.688  10.086  0.0473 -0.1498  0.0010
  648ERGO    R1 9562   1.155  15.624   9.815  0.0303 -0.0964 -0.0082
  648ERGO    R2 9563   1.018  15.792   9.643  0.0351 -0.0563  0.0311
  648ERGO    R3 9564   1.241  15.764   9.490  0.0248 -0.0437  0.0125
  648ERGO    R4 9565   1.031  15.842   9.302  0.0537  0.1725  0.0629
  648ERGO    R5 9566   1.162  15.669   9.286 -0.0164  0.1269 -0.0550
  648ERGO    C1 9567   1.248  15.845   8.959  0.0549  0.3175  0.0640
  648ERGO    C2 9568   1.222  15.723   8.595 -0.1519 -0.1479  0.1232
  649ERGO   ROH 9569   2.133  11.482  10.177  0.1815 -0.2338 -0.0545
  649ERGO    R1 9570   2.137  11.537   9.899  0.1605 -0.0377 -0.0171
  649ERGO    R2 9571   2.156  11.338   9.709 -0.0315  0.0832 -0.1643
  649ERGO    R3 9572   1.931  11.456   9.610  0.0334  0.3244 -0.0339
  649ERGO    R4 9573   2.107  11.422   9.377 -0.3080 -0.2900 -0.2237
  649ERGO    R5 9574   2.013  11.607   9.443  0.0840 -0.0338 -0.3477
  649ERGO    C1 9575   1.867  11.580   9.091 -0.4081 -0.2811 -0.1359
  649ERGO    C2 9576   1.859  11.529   8.708 -0.3009  0.1308  0.0478
  650ERGO   ROH 9577  13.848   3.243  11.041  0.0446  0.1080  0.1605
  650ERGO    R1 9578  13.716   3.156  10.806  0.0701  0.0279  0.1758
  650ERGO    R2 9579  13.620   3.332  10.616  0.0362 -0.0348  0.1357
  650ERGO    R3 9580  13.771   3.182  10.447  0.0738 -0.0377  0.1715
  650ERGO    R4 9581  13.603   3.345  10.271  0.1655  0.0117  0.1303
  650ERGO    R5 9582  13.623   3.128  10.267  0.1316  0.0091  0.1100
  650ERGO    C1 9583  13.735   3.211   9.912  0.2761  0.0360  0.1607
  650ERGO    C2 9584  13.759   3.228   9.607  0.1366 -0.2075  0.1757
  651ERGO   ROH 9585   8.689  17.188  10.000 -0.0139 -0.0686  0.0107
  651ERGO    R1 9586   8.572  17.165   9.743  0.0884 -0.0329 -0.0395
  651ERGO    R2 9587   8.406  17.360   9.636  0.0037 -0.0905 -0.0125
  651ERGO    R3 9588   8.583  17.351   9.430  0.0807  0.1074  0.0422
  651ERGO    R4 9589   8.328  17.428   9.307  0.0307 -0.1664 -0.0349
  651ERGO    R5 9590   8.456  17.262   9.247  0.2327 -0.0278 -0.0005
  651ERGO    C1 9591   8.449  17.459   8.921  0.1186 -0.0250  0.0034
  651ERGO    C2 9592   8.574  17.546   8.613  0.1358 -0.1743  0.0631
  652ERGO   ROH 9593  13.727  10.997  10.115 -0.2100  0.0457  0.0176
  652ERGO    R1 9594  13.711  10.824   9.891 -0.2415 -0.0268  0.0732
  652ERGO    R2 9595  13.556  10.882   9.669 -0.0643  0.0372 -0.0472
  652ERGO    R3 9596  13.790  10.844   9.536 -0.0146 -0.2292  0.1129
  652ERGO    R4 9597  13.587  10.863   9.325  0.1704  0.0235 -0.0255
  652ERGO    R5 9598  13.731  10.702   9.352 -0.0424 -0.1432  0.0646
  652ERGO    C1 9599  13.825  10.816   9.000  0.3539 -0.2345  0.1373
  652ERGO    C2 9600  13.792  10.624   8.688 -0.0614 -0.0144 -0.2100
  653ERGO   ROH 9601  15.198  12.267  10.371 -0.2315  0.0552  0.0397
  653ERGO    R1 9602  15.134  12.392  10.125 -0.1401  0.0921  0.0350
  653ERGO    R2 9603  15.320  12.426   9.923 -0.1396 -0.1426 -0.0018
  653ERGO    R3 9604  15.133  12.297   9.774 -0.3117  0.0444  0.0459
  653ERGO    R4 9605  15.301  12.436   9.578 -0.2029 -0.1272  0.0016
  653ERGO    R5 9606  15.085  12.449   9.595 -0.1941  0.0983  0.0531
  653ERGO    C1 9607  15.115  12.320   9.237 -0.4015  0.0574  0.0483
  653ERGO    C2 9608  15.321  12.207   8.896  0.0119  0.0065  0.0293
  654ERGO   ROH 9609  10.613   6.832  10.553  0.1068 -0.0239  0.0422
  654ERGO    R1 9610  10.696   6.737  10.300  0.0395 -0.1322  0.0576
  654ERGO    R2 9611  10.591   6.509  10.185 -0.1475 -0.0753  0.0833
  654ERGO    R3 9612  10.540   6.676   9.977 -0.0062 -0.0535  0.0686
  654ERGO    R4 9613  10.599   6.418   9.851  0.1962  0.0159  0.0643
  654ERGO    R5 9614  10.694   6.609   9.807  0.1682  0.0465  0.1972
  654ERGO    C1 9615  10.555   6.523   9.462  0.5287  0.0893  0.0397
  654ERGO    C2 9616  10.559   6.614   9.096  0.3159  0.1548 -0.0563
  655ERGO   ROH 9617  15.126   5.054  10.569 -0.1261  0.2110  0.0644
  655ERGO    R1 9618  15.052   5.109  10.301 -0.1035  0.2699  0.0710
  655ERGO    R2 9619  15.132   5.338  10.169  0.2240  0.1181  0.0061
  655ERGO    R3 9620  15.223   5.160   9.984 -0.0951 -0.0657  0.0165
  655ERGO    R4 9621  15.112   5.381   9.827  0.4097  0.2047  0.0038
  655ERGO    R5 9622  15.061   5.170   9.808 -0.0372  0.2991 -0.0297
  655ERGO    C1 9623  15.185   5.240   9.454  0.2182  0.0825  0.0123
  655ERGO    C2 9624  15.128   5.195   9.144  0.0255 -0.3745  0.2974
  656ERGO   ROH 9625  11.563   0.747  10.020 -0.1057 -0.1343 -0.0140
  656ERGO    R1 9626  11.522   0.629   9.766 -0.0480 -0.0534 -0.0624
  656ERGO    R2 9627  11.380   0.754   9.564  0.0234  0.0267 -0.0696
  656ERGO    R3 9628  11.606   0.708   9.421  0.0617  0.0425 -0.0129
  656ERGO    R4 9629  11.400   0.757   9.219  0.1028 -0.0437 -0.0653
  656ERGO    R5 9630  11.532   0.585   9.230  0.1328 -0.0108 -0.0018
  656ERGO    C1 9631  11.624   0.716   8.884  0.1850 -0.0699 -0.0095
  656ERGO    C2 9632  11.447   0.823   8.643  0.1548  0.1812 -0.1618
  657ERGO   ROH 9633  12.491   2.277  10.363 -0.0621  0.1145  0.0528
  657ERGO    R1 9634  12.597   2.196  10.114 -0.0978  0.0903  0.0460
  657ERGO    R2 9635  12.439   2.097   9.910 -0.1303  0.1020  0.0681
  657ERGO    R3 9636  12.557   2.295   9.765 -0.1198  0.0796  0.0449
  657ERGO    R4 9637  12.442   2.114   9.565 -0.0986  0.0407  0.0649
  657ERGO    R5 9638  12.649   2.182   9.575 -0.0994  0.0466  0.0729
  657ERGO    C1 9639  12.555   2.309   9.228 -0.0703 -0.0161  0.0411
  657ERGO    C2 9640  12.605   2.454   8.851 -0.4194  0.5510  0.0230
  658ERGO   ROH 9641   5.243   2.163  10.675 -0.2510  0.0795 -0.0171
  658ERGO    R1 9642   5.180   2.005  10.448 -0.0627  0.0611 -0.0575
  658ERGO    R2 9643   4.984   2.077  10.266 -0.1328 -0.1143 -0.0478
  658ERGO    R3 9644   5.186   2.048  10.087 -0.0900  0.1517 -0.0483
  658ERGO    R4 9645   4.947   2.081   9.923 -0.1280 -0.0774 -0.0487
  658ERGO    R5 9646   5.091   1.919   9.909  0.0568  0.0826 -0.0808
  658ERGO    C1 9647   5.115   2.056   9.554 -0.0851  0.1938 -0.0497
  658ERGO    C2 9648   5.126   2.018   9.166 -0.0852  0.0304 -0.0208
  659ERGO   ROH 9649  10.776  11.431  10.400 -0.3332  0.4977 -0.0860
  659ERGO    R1 9650  10.857  11.455  10.130 -0.2933  0.2952 -0.0924
  659ERGO    R2 9651  10.839  11.246   9.951 -0.2462  0.1582  0.0703
  659ERGO    R3 9652  10.700  11.427   9.803 -0.2359  0.0294 -0.1017
  659ERGO    R4 9653  10.846  11.265   9.605  0.1174  0.1051  0.0695
  659ERGO    R5 9654  10.848  11.482   9.623 -0.0746  0.1190  0.0475
  659ERGO    C1 9655  10.718  11.445   9.266  0.3388 -0.0467 -0.0924
  659ERGO    C2 9656  10.696  11.533   8.929  0.1304  0.1118  0.1193
  660ERGO   ROH 9657   2.121   4.278  10.271 -0.0761 -0.1025  0.0203
  660ERGO    R1 9658   2.270   4.319  10.034 -0.1428 -0.0487 -0.0122
  660ERGO    R2 9659   2.323   4.115   9.855 -0.0059 -0.0551  0.0389
  660ERGO    R3 9660   2.210   4.286   9.676 -0.1679 -0.1946  0.0039
  660ERGO    R4 9661   2.371   4.103   9.513 -0.0525 -0.1302  0.0344
  660ERGO    R5 9662   2.381   4.320   9.512 -0.2176 -0.1181 -0.0356
  660ERGO    C1 9663   2.293   4.256   9.146 -0.2317 -0.3049 -0.0011
  660ERGO    C2 9664   2.230   4.167   8.757  0.1671 -0.1675 -0.2712
  661ERGO   ROH 9665  17.716  13.553  10.181  0.0178 -0.1613 -0.1448
  661ERGO    R1 9666  17.613  13.532   9.919  0.1251 -0.0409 -0.1987
  661ERGO    R2 9667  17.687  13.702   9.714  0.3209 -0.0378 -0.1278
  661ERGO    R3 9668  17.746  13.470   9.586  0.2430 -0.0446 -0.1510
  661ERGO    R4 9669  17.706  13.666   9.371  0.2828 -0.0149 -0.1321
  661ERGO    R5 9670  17.607  13.473   9.391  0.2281  0.0121 -0.1396
  661ERGO    C1 9671  17.773  13.427   9.051  0.1876 -0.0079 -0.1563
  661ERGO    C2 9672  17.763  13.406   8.769  0.1861  0.0450  0.0428
  662ERGO   ROH 9673  13.383  11.916  10.091  0.2454  0.0613  0.0435
  662ERGO    R1 9674  13.367  11.803   9.832  0.3163  0.0212  0.0577
  662ERGO    R2 9675  13.245  11.933   9.621  0.0694 -0.1597  0.0928
  662ERGO    R3 9676  13.484  11.890   9.498  0.0914  0.1590  0.0098
  662ERGO    R4 9677  13.288  11.887   9.281 -0.0283 -0.2944  0.0968
  662ERGO    R5 9678  13.434  11.732   9.325  0.2569 -0.0364  0.1276
  662ERGO    C1 9679  13.537  11.820   8.968 -0.0645 -0.0735  0.0213
  662ERGO    C2 9680  13.562  11.855   8.610 -0.2379  0.2015 -0.0246
  663ERGO   ROH 9681   8.750  16.209   9.808 -0.3597  0.1342  0.1145
  663ERGO    R1 9682   8.725  16.135   9.536 -0.2552  0.1033  0.1122
  663ERGO    R2 9683   8.502  16.194   9.385 -0.2354  0.0163  0.0386
  663ERGO    R3 9684   8.685  16.307   9.218 -0.2209  0.0663  0.0895
  663ERGO    R4 9685   8.445  16.273   9.053 -0.1564  0.0072  0.0234
  663ERGO    R5 9686   8.645  16.202   9.007 -0.1297  0.0634  0.0785
  663ERGO    C1 9687   8.583  16.425   8.704 -0.0967  0.0489  0.0624
  663ERGO    C2 9688   8.531  16.464   8.403  0.0372  0.1021 -0.0360
  664ERGO   ROH 9689  11.648   1.770  10.265 -0.4477  0.1001  0.0590
  664ERGO    R1 9690  11.564   1.905  10.031 -0.1911  0.1839  0.0133
  664ERGO    R2 9691  11.723   2.090   9.901  0.0761  0.0015  0.0761
  664ERGO    R3 9692  11.676   1.931   9.686 -0.0046  0.0427  0.0617
  664ERGO    R4 9693  11.704   2.200   9.574  0.0901  0.0440  0.0888
  664ERGO    R5 9694  11.537   2.063   9.542  0.0338  0.1120  0.0877
  664ERGO    C1 9695  11.649   2.114   9.181  0.0226  0.1074  0.0827
  664ERGO    C2 9696  11.768   2.157   8.932 -0.1804  0.0222 -0.0814
  665ERGO   ROH 9697  13.792   5.212  10.777 -0.3571  0.1895  0.0863
  665ERGO    R1 9698  13.693   5.132  10.524 -0.1158  0.1016  0.0168
  665ERGO    R2 9699  13.669   5.307  10.312 -0.1202  0.0810 -0.0007
  665ERGO    R3 9700  13.819   5.120  10.183  0.1312  0.2065  0.1022
  665ERGO    R4 9701  13.711   5.291   9.969  0.0806  0.0701  0.0229
  665ERGO    R5 9702  13.695   5.073   9.983  0.2841  0.0568  0.0421
  665ERGO    C1 9703  13.876   5.106   9.648  0.4336  0.1817  0.1334
  665ERGO    C2 9704  13.866   5.305   9.310 -0.2921  0.2689  0.2024
  666ERGO   ROH 9705   1.974  17.698  10.629 -0.0435 -0.2656 -0.1246
  666ERGO    R1 9706   1.818  17.712  10.393 -0.0917 -0.0611 -0.0817
  666ERGO    R2 9707   1.797  17.943  10.242  0.0925 -0.0049 -0.0224
  666ERGO    R3 9708   1.877  17.780  10.040 -0.1170 -0.0382 -0.0819
  666ERGO    R4 9709   1.750  18.007   9.906  0.1133  0.1470  0.0027
  666ERGO    R5 9710   1.703  17.796   9.877 -0.1259  0.2040 -0.0530
  666ERGO    C1 9711   1.798  17.891   9.520 -0.0713  0.2042 -0.0388
  666ERGO    C2 9712   1.850  17.820   9.214 -0.0452  0.0356 -0.1540
  667ERGO   ROH 9713  15.942   1.442  10.671  0.2071  0.1500 -0.0719
  667ERGO    R1 9714  15.874   1.597  10.444  0.2181  0.1130 -0.1000
  667ERGO    R2 9715  16.060   1.671  10.254  0.2030 -0.0172 -0.1623
  667ERGO    R3 9716  15.883   1.556  10.083  0.1169  0.0079 -0.0916
  667ERGO    R4 9717  16.059   1.715   9.911  0.2022 -0.1776 -0.1841
  667ERGO    R5 9718  15.842   1.724   9.917  0.2052 -0.0421 -0.1681
  667ERGO    C1 9719  15.893   1.632   9.551  0.1206 -0.2475 -0.1303
  667ERGO    C2 9720  15.905   1.561   9.177 -0.1658  0.3377 -0.3655
  668ERGO   ROH 9721  14.236   3.501  10.965 -0.1039 -0.0388  0.0623
  668ERGO    R1 9722  14.100   3.433  10.726  0.0989 -0.1528 -0.0234
  668ERGO    R2 9723  13.990   3.623  10.558 -0.1886 -0.2490  0.0487
  668ERGO    R3 9724  14.142   3.498  10.370  0.1103  0.1266  0.0268
  668ERGO    R4 9725  13.968   3.676  10.217 -0.1022 -0.0401  0.0737
  668ERGO    R5 9726  13.993   3.462  10.187  0.2570  0.0166 -0.0720
  668ERGO    C1 9727  14.098   3.589   9.843  0.2288  0.4341  0.0679
  668ERGO    C2 9728  14.087   3.639   9.527  0.0952 -0.2317  0.0968
  669ERGO   ROH 9729  16.073   7.954  10.482  0.1326  0.0235  0.0212
  669ERGO    R1 9730  15.967   7.832  10.250  0.1314  0.0025  0.0327
  669ERGO    R2 9731  15.809   7.970  10.069  0.0049 -0.0529  0.0984
  669ERGO    R3 9732  15.994   7.881   9.890  0.0032  0.0742  0.0323
  669ERGO    R4 9733  15.764   7.961   9.726 -0.1482 -0.1761  0.1207
  669ERGO    R5 9734  15.865   7.768   9.723  0.0282 -0.0846  0.1202
  669ERGO    C1 9735  15.912   7.872   9.359 -0.2389 -0.1286  0.0718
  669ERGO    C2 9736  15.984   7.953   9.001 -0.0653 -0.0709 -0.0872
  670ERGO   ROH 9737   4.397  17.207  10.528 -0.1606  0.2029 -0.0305
  670ERGO    R1 9738   4.374  17.077  10.278  0.0780  0.1070 -0.0048
  670ERGO    R2 9739   4.184  17.148  10.090 -0.0054 -0.2252 -0.0514
  670ERGO    R3 9740   4.401  17.171   9.927 -0.0100  0.0695 -0.0221
  670ERGO    R4 9741   4.176  17.135   9.744  0.0453 -0.0979 -0.0587
  670ERGO    R5 9742   4.359  17.017   9.749  0.1714  0.0930 -0.0878
  670ERGO    C1 9743   4.374  17.148   9.391  0.0705  0.2527 -0.0352
  670ERGO    C2 9744   4.329  17.184   9.089 -0.1040  0.2455  0.0632
  671ERGO   ROH 9745   5.970  11.510  10.183 -0.1274  0.0808 -0.1240
  671ERGO    R1 9746   5.972  11.347   9.952  0.1399  0.0883 -0.1284
  671ERGO    R2 9747   5.755  11.325   9.783  0.1467 -0.3118 -0.0893
  671ERGO    R3 9748   5.937  11.395   9.593 -0.0115  0.0341 -0.1224
  671ERGO    R4 9749   5.718  11.268   9.444  0.1675 -0.3411 -0.0875
  671ERGO    R5 9750   5.930  11.215   9.435  0.2693  0.0307 -0.1402
  671ERGO    C1 9751   5.868  11.301   9.068  0.0310 -0.0334 -0.1175
  671ERGO    C2 9752   5.714  11.375   8.727 -0.1697  0.0123  0.1780
  672ERGO   ROH 9753  16.337  13.266  10.500 -0.2096 -0.0510  0.0473
  672ERGO    R1 9754  16.448  13.156  10.264 -0.1892 -0.1179  0.0858
  672ERGO    R2 9755  16.320  12.961  10.116 -0.2693 -0.0248  0.0181
  672ERGO    R3 9756  16.357  13.138   9.913 -0.0625 -0.0324  0.0495
  672ERGO    R4 9757  16.380  12.875   9.786  0.0714 -0.0264  0.0789
  672ERGO    R5 9758  16.525  13.037   9.775  0.0782 -0.0289  0.2228
  672ERGO    C1 9759  16.450  12.991   9.404  0.4639 -0.0344  0.1438
  672ERGO    C2 9760  16.429  12.872   8.974  0.1957 -0.4208 -0.1880
  673ERGO   ROH 9761  15.112   2.920  10.650  0.1773 -0.1196 -0.0923
  673ERGO    R1 9762  14.991   3.088  10.457  0.1811  0.0651  0.0632
  673ERGO    R2 9763  15.136   3.268  10.304  0.2420 -0.0690 -0.0329
  673ERGO    R3 9764  15.017   3.138  10.097 -0.1119  0.1170  0.0457
  673ERGO    R4 9765  15.193   3.333   9.969  0.0968 -0.1290 -0.0699
  673ERGO    R5 9766  14.980   3.307   9.933  0.0203  0.1910  0.0861
  673ERGO    C1 9767  15.114   3.249   9.580 -0.3200  0.0105 -0.0176
  673ERGO    C2 9768  15.080   3.324   9.327  0.0679  0.0655 -0.0115
  674ERGO   ROH 9769   6.760  12.951   9.938 -0.1141 -0.0168 -0.0357
  674ERGO    R1 9770   6.871  13.022   9.687 -0.0477  0.1487  0.0388
  674ERGO    R2 9771   6.861  12.856   9.466  0.3158  0.1443  0.0159
  674ERGO    R3 9772   6.749  13.073   9.348  0.0961  0.0047 -0.0351
  674ERGO    R4 9773   6.814  12.894   9.126  0.3177  0.0433  0.0044
  674ERGO    R5 9774   6.873  13.103   9.146  0.0891  0.1090 -0.0214
  674ERGO    C1 9775   6.681  13.120   8.817  0.1126 -0.1467 -0.0502
  674ERGO    C2 9776   6.558  13.077   8.551 -0.0313 -0.1657 -0.0236
  675PSPI    C1 9777   3.683   9.668   6.496 -0.0939 -0.0429  0.1245
  675PSPI    C2 9778   4.008   9.889   6.569 -0.0461 -0.1678  0.2938
  675PSPI    C3 9779   3.756   9.995   6.277  0.1741 -0.1004  0.1257
  675PSPI   PO4 9780   3.824   9.420   6.528 -0.3808 -0.2513 -0.2412
  675PSPI   GL1 9781   3.587   9.138   6.668 -0.2880 -0.0576 -0.0831
  675PSPI   GL2 9782   3.261   9.100   6.661  0.2219 -0.0816 -0.0723
  675PSPI   C1A 9783   3.515   9.294   7.073 -0.1710  0.0787  0.0360
  675PSPI   C2A 9784   3.613   9.417   7.484  0.1314 -0.0010 -0.1237
  675PSPI   C3A 9785   3.776   9.451   7.914  0.1225 -0.1802 -0.4142
  675PSPI   C4A 9786   4.152   9.760   8.118  0.1178 -0.0133  0.5022
  675PSPI   C1B 9787   3.245   8.756   6.945  0.1102 -0.1444 -0.2135
  675PSPI   C2B 9788   3.131   8.650   7.376 -0.1183  0.0837 -0.4051
  675PSPI   C3B 9789   2.997   8.630   7.776 -0.1494 -0.3574 -0.0179
  675PSPI   C4B 9790   2.993   8.777   8.195 -0.1564  0.0423 -0.3201
  676PSPI    C1 9791  10.132   3.414   6.175  0.1497  0.1970  0.3386
  676PSPI    C2 9792   9.779   3.445   5.990  0.2566 -0.4100  0.0035
  676PSPI    C3 9793  10.034   3.753   5.986 -0.2130 -0.0048  0.1527
  676PSPI   PO4 9794  10.029   3.314   6.395  0.0692  0.0607 -0.2044
  676PSPI   GL1 9795  10.419   3.232   6.616  0.1212  0.3178 -0.2045
  676PSPI   GL2 9796  10.207   3.443   6.854  0.2069 -0.1785  0.1294
  676PSPI   C1A 9797  10.343   3.040   7.053 -0.1561  0.0695 -0.4319
  676PSPI   C2A 9798  10.232   2.917   7.465  0.3044  0.0553 -0.0488
  676PSPI   C3A 9799  10.152   2.715   7.848  0.0160 -0.0783 -0.2057
  676PSPI   C4A 9800   9.883   2.530   8.030  0.1049 -0.3004 -0.0515
  676PSPI   C1B 9801   9.939   3.253   7.246  0.0747 -0.1851 -0.0778
  676PSPI   C2B 9802   9.676   3.212   7.537  0.1181 -0.1737 -0.0445
  676PSPI   C3B 9803   9.381   3.385   7.801  0.1096  0.0620  0.0015
  676PSPI   C4B 9804   9.050   3.609   7.927 -0.3213  0.2175  0.1049
  677PSPI    C1 9805   1.719  14.828   5.715  0.3411  0.0065  0.0084
  677PSPI    C2 9806   1.632  15.189   5.565  0.0624 -0.0213  0.0979
  677PSPI    C3 9807   2.013  15.086   5.631  0.1610  0.1534 -0.1819
  677PSPI   PO4 9808   1.633  14.761   5.916 -0.2309 -0.0975 -0.0543
  677PSPI   GL1 9809   1.494  14.943   6.335  0.1773 -0.0965 -0.2069
  677PSPI   GL2 9810   1.279  14.703   6.277  0.0755  0.1374 -0.0160
  677PSPI   C1A 9811   1.619  14.704   6.651  0.0131  0.0070 -0.1019
  677PSPI   C2A 9812   1.997  14.828   6.961 -0.0465 -0.0910  0.1525
  677PSPI   C3A 9813   2.177  15.028   7.373 -0.3478  0.0052  0.0055
  677PSPI   C4A 9814   2.094  15.247   7.764 -0.0310 -0.1292 -0.3678
  677PSPI   C1B 9815   1.100  14.767   6.737  0.2546  0.2898 -0.1467
  677PSPI   C2B 9816   0.872  14.771   7.056  0.3984  0.0376 -0.2237
  677PSPI   C3B 9817   0.848  14.857   7.406 -0.1090 -0.2107 -0.5017
  677PSPI   C4B 9818   0.811  14.923   7.862 -0.1056 -0.3356 -0.2011
  678PSPI    C1 9819   8.529   1.231   6.143 -0.0442  0.0374 -0.0443
  678PSPI    C2 9820   8.756   1.503   5.958 -0.1183  0.1480  0.0260
  678PSPI    C3 9821   8.378   1.445   5.840 -0.0988  0.0668  0.0033
  678PSPI   PO4 9822   8.659   1.068   6.161  0.0559  0.0208 -0.0142
  678PSPI   GL1 9823   8.876   0.819   6.450  0.1024  0.2672 -0.1352
  678PSPI   GL2 9824   9.083   0.765   6.288 -0.0159  0.0058 -0.1873
  678PSPI   C1A 9825   8.787   0.651   6.912  0.2140  0.0927 -0.0054
  678PSPI   C2A 9826   8.744   0.516   7.355 -0.2390  0.1334  0.3814
  678PSPI   C3A 9827   8.885   0.389   7.770  0.0533  0.0681 -0.0619
  678PSPI   C4A 9828   9.168   0.269   8.119  0.0336  0.2216 -0.0712
  678PSPI   C1B 9829   9.193   0.559   6.661 -0.2261  0.0753 -0.1859
  678PSPI   C2B 9830   9.243   0.338   7.051 -0.1694 -0.2274  0.1437
  678PSPI   C3B 9831   9.246   0.286   7.434 -0.0019 -0.0281  0.0806
  678PSPI   C4B 9832   9.467   0.483   7.750 -0.0473 -0.0750  0.2312
  679PSPI    C1 9833  10.775  15.112   5.359  0.0080  0.0886  0.0490
  679PSPI    C2 9834  10.593  14.762   5.294  0.1284  0.0215  0.0700
  679PSPI    C3 9835  10.990  14.775   5.337  0.1370  0.1768 -0.0502
  679PSPI   PO4 9836  10.601  15.205   5.631 -0.0215 -0.0160 -0.0123
  679PSPI   GL1 9837  10.463  15.257   6.175  0.1687 -0.2282  0.0704
  679PSPI   GL2 9838  10.691  15.064   6.139  0.3010  0.0146  0.1720
  679PSPI   C1A 9839  10.314  15.235   6.623  0.0383  0.2334 -0.1208
  679PSPI   C2A 9840   9.988  15.237   6.811  0.0255  0.0415  0.0924
  679PSPI   C3A 9841   9.689  15.223   7.203 -0.1897 -0.0444  0.1414
  679PSPI   C4A 9842   9.267  15.324   7.423 -0.3195  0.1858  0.2929
  679PSPI   C1B 9843  11.228  15.088   6.313 -0.3914  0.1284  0.1624
  679PSPI   C2B 9844  11.644  15.125   6.565 -0.1377  0.0263  0.3498
  679PSPI   C3B 9845  11.700  15.021   6.938 -0.1954  0.1762  0.1325
  679PSPI   C4B 9846  11.801  14.982   7.373  0.0362 -0.2971 -0.0278
  680PSPI    C1 9847   2.626   0.304   6.007 -0.2376  0.0216 -0.2175
  680PSPI    C2 9848   2.722   0.692   6.008 -0.1420 -0.0008  0.0461
  680PSPI    C3 9849   2.858   0.453   5.717  0.1090  0.0883  0.0878
  680PSPI   PO4 9850   2.662   0.165   6.293 -0.1502  0.0054  0.2173
  680PSPI   GL1 9851   2.676   0.311   6.719  0.0223  0.0426 -0.1393
  680PSPI   GL2 9852   2.525   0.554   6.809 -0.3224  0.2834  0.0321
  680PSPI   C1A 9853   2.389   0.095   7.053 -0.0102 -0.1427  0.0836
  680PSPI   C2A 9854   2.203  -0.193   7.352 -0.2898  0.1204 -0.1190
  680PSPI   C3A 9855   2.151  -0.139   7.712  0.0456 -0.0117  0.0223
  680PSPI   C4A 9856   1.937  -0.380   8.092  0.1897 -0.1418  0.1904
  680PSPI   C1B 9857   2.585   0.490   7.238 -0.1974 -0.0124 -0.0714
  680PSPI   C2B 9858   2.270   0.317   7.611  0.0152 -0.1084 -0.0658
  680PSPI   C3B 9859   2.055   0.283   7.994 -0.1047  0.3884 -0.0717
  680PSPI   C4B 9860   1.669   0.171   8.194 -0.0038 -0.3614  0.0292
  681PSPI    C1 9861   8.009   0.855   6.192  0.2106 -0.0137  0.0872
  681PSPI    C2 9862   8.246   0.898   5.872  0.0045 -0.2542 -0.1014
  681PSPI    C3 9863   7.859   0.806   5.825 -0.0377 -0.2540  0.2172
  681PSPI   PO4 9864   8.057   1.054   6.319  0.0277 -0.0900  0.0434
  681PSPI   GL1 9865   8.116   1.308   6.627 -0.0866  0.0296 -0.3000
  681PSPI   GL2 9866   8.436   1.105   6.632 -0.1590  0.2344 -0.0924
  681PSPI   C1A 9867   7.922   1.268   7.022 -0.1559 -0.3640 -0.0220
  681PSPI   C2A 9868   7.894   1.176   7.428 -0.0784  0.0305  0.0767
  681PSPI   C3A 9869   8.115   1.390   7.734 -0.3668 -0.1345 -0.0688
  681PSPI   C4A 9870   8.479   1.376   8.123 -0.0438 -0.1479  0.0393
  681PSPI   C1B 9871   8.402   0.989   6.980 -0.0662 -0.4388 -0.0896
  681PSPI   C2B 9872   8.285   0.807   7.375  0.0578  0.0226  0.1164
  681PSPI   C3B 9873   8.085   0.921   7.809  0.0576 -0.1242  0.0426
  681PSPI   C4B 9874   7.925   1.158   8.141  0.2156  0.0472 -0.0504
  682PSPI    C1 9875  16.061   6.018   6.279 -0.0125 -0.2097  0.1088
  682PSPI    C2 9876  15.853   5.703   6.147  0.1878 -0.3551  0.1356
  682PSPI    C3 9877  16.093   5.904   5.897 -0.2342  0.0197  0.0188
  682PSPI   PO4 9878  16.049   5.956   6.591  0.0212  0.2169 -0.0490
  682PSPI   GL1 9879  16.114   6.254   6.959  0.0376 -0.0896  0.0449
  682PSPI   GL2 9880  15.850   6.317   6.937 -0.1376  0.0127  0.0072
  682PSPI   C1A 9881  16.368   6.330   7.260 -0.0462  0.3900 -0.0452
  682PSPI   C2A 9882  16.403   6.428   7.679 -0.0401 -0.3256 -0.0943
  682PSPI   C3A 9883  16.657   6.476   8.052  0.1306  0.0936 -0.4242
  682PSPI   C4A 9884  16.833   6.375   8.508 -0.2481  0.1005 -0.0635
  682PSPI   C1B 9885  15.867   6.364   7.388  0.1341  0.2781  0.2557
  682PSPI   C2B 9886  15.834   6.472   7.850  0.2096 -0.0802 -0.0631
  682PSPI   C3B 9887  16.070   6.579   8.218  0.2215 -0.3024 -0.0324
  682PSPI   C4B 9888  16.355   6.657   8.554 -0.1740  0.1446 -0.0790
  683PSPI    C1 9889  13.923  13.221   5.706 -0.0794  0.3124  0.1820
  683PSPI    C2 9890  14.025  13.207   5.320 -0.1679  0.0158  0.1674
  683PSPI    C3 9891  13.918  13.555   5.485  0.0464  0.1774 -0.0278
  683PSPI   PO4 9892  14.088  13.102   5.884 -0.2141 -0.1277 -0.0618
  683PSPI   GL1 9893  14.160  13.315   6.193 -0.1385  0.1219  0.2345
  683PSPI   GL2 9894  14.320  13.578   6.316 -0.0454  0.0085 -0.0922
  683PSPI   C1A 9895  14.162  13.170   6.633  0.0376 -0.1300 -0.0202
  683PSPI   C2A 9896  13.975  13.159   7.033 -0.2168 -0.0093 -0.2820
  683PSPI   C3A 9897  13.926  13.245   7.404  0.1400  0.1235  0.2567
  683PSPI   C4A 9898  14.027  13.157   7.814 -0.2144  0.0427 -0.0276
  683PSPI   C1B 9899  14.149  13.670   6.734  0.1553  0.0936  0.2786
  683PSPI   C2B 9900  14.035  13.717   7.169 -0.0206 -0.1013 -0.1266
  683PSPI   C3B 9901  14.249  13.618   7.577  0.2693 -0.0384 -0.1440
  683PSPI   C4B 9902  14.477  13.554   7.906  0.0677 -0.1280 -0.1381
  684PSPI    C1 9903  15.036   6.206   6.140  0.2582 -0.1578  0.0992
  684PSPI    C2 9904  15.209   6.567   6.127  0.0052 -0.0367  0.0366
  684PSPI    C3 9905  15.222   6.327   5.807 -0.2295  0.1101 -0.0861
  684PSPI   PO4 9906  15.070   6.096   6.457 -0.0869 -0.1889 -0.0834
  684PSPI   GL1 9907  14.993   5.828   6.759 -0.3207  0.0236 -0.0028
  684PSPI   GL2 9908  15.274   5.717   6.802  0.0971 -0.3643 -0.1271
  684PSPI   C1A 9909  14.924   5.940   7.175  0.3722  0.2137 -0.0713
  684PSPI   C2A 9910  14.850   5.887   7.538 -0.4019 -0.3535 -0.2111
  684PSPI   C3A 9911  14.942   6.048   7.911  0.2706  0.4186  0.0408
  684PSPI   C4A 9912  15.166   6.195   8.248 -0.2323 -0.1118  0.2017
  684PSPI   C1B 9913  15.438   5.563   7.179  0.0822 -0.3411 -0.2197
  684PSPI   C2B 9914  15.634   5.349   7.520  0.4905 -0.3071 -0.0157
  684PSPI   C3B 9915  15.882   5.477   7.852  0.3283  0.1478  0.0486
  684PSPI   C4B 9916  15.858   5.704   8.186  0.0422  0.0158  0.0876
  685PSPI    C1 9917  14.898   2.681   6.277  0.0317 -0.0007 -0.1364
  685PSPI    C2 9918  15.055   2.586   5.922  0.1384  0.2706 -0.1645
  685PSPI    C3 9919  15.288   2.594   6.248  0.0895  0.2466 -0.1288
  685PSPI   PO4 9920  14.647   2.534   6.387  0.0062 -0.3313 -0.3438
  685PSPI   GL1 9921  14.433   2.261   6.636  0.0412  0.0496 -0.0435
  685PSPI   GL2 9922  14.683   2.008   6.647  0.1799  0.0364  0.0738
  685PSPI   C1A 9923  14.371   2.346   7.071  0.0369  0.0580  0.2151
  685PSPI   C2A 9924  14.253   2.224   7.532 -0.3777 -0.0371  0.0507
  685PSPI   C3A 9925  14.196   2.046   7.968  0.0720 -0.1369  0.1502
  685PSPI   C4A 9926  14.183   1.699   8.329 -0.2320 -0.0701 -0.0426
  685PSPI   C1B 9927  14.866   1.980   6.950 -0.0877  0.0466 -0.0610
  685PSPI   C2B 9928  14.679   2.024   7.329 -0.0016  0.1338 -0.1245
  685PSPI   C3B 9929  14.672   1.936   7.900  0.2154  0.0747  0.0886
  685PSPI   C4B 9930  14.711   1.888   8.199 -0.0703  0.3390 -0.2744
  686PSPI    C1 9931   8.724   6.577   6.488 -0.1440  0.0151 -0.1743
  686PSPI    C2 9932   8.493   6.649   6.169 -0.1046  0.0724 -0.1900
  686PSPI    C3 9933   8.418   6.833   6.516 -0.0659  0.1120 -0.2025
  686PSPI   PO4 9934   8.791   6.269   6.463 -0.1129  0.0467 -0.0053
  686PSPI   GL1 9935   8.823   6.077   6.824  0.4603  0.2939  0.2712
  686PSPI   GL2 9936   8.534   6.202   6.886  0.1244 -0.1001 -0.2404
  686PSPI   C1A 9937   8.980   6.050   7.257  0.0863 -0.1666 -0.3716
  686PSPI   C2A 9938   8.932   6.171   7.750 -0.0081 -0.1392  0.1688
  686PSPI   C3A 9939   8.993   6.339   8.124  0.1099 -0.0349  0.5320
  686PSPI   C4A 9940   9.058   6.429   8.501  0.0014  0.0040 -0.0239
  686PSPI   C1B 9941   8.569   6.325   7.247 -0.1201 -0.1653  0.0071
  686PSPI   C2B 9942   8.286   6.295   7.567  0.1626 -0.1651  0.1646
  686PSPI   C3B 9943   8.147   6.446   7.993 -0.0594  0.2832  0.2042
  686PSPI   C4B 9944   8.114   6.804   8.228 -0.1256  0.0482  0.1914
  687PSPI    C1 9945  16.342   8.680   6.080 -0.1802 -0.0298 -0.2476
  687PSPI    C2 9946  16.374   8.284   6.037  0.1500 -0.0402  0.0419
  687PSPI    C3 9947  16.623   8.528   5.841  0.1311  0.0120  0.0826
  687PSPI   PO4 9948  16.120   8.700   6.135  0.2633  0.1213  0.0813
  687PSPI   GL1 9949  15.933   8.639   6.465  0.1598  0.1260  0.3011
  687PSPI   GL2 9950  15.687   8.356   6.509 -0.2521  0.0944  0.0944
  687PSPI   C1A 9951  15.822   8.670   6.954 -0.3580  0.1002  0.3050
  687PSPI   C2A 9952  15.768   8.711   7.370 -0.3309 -0.0687 -0.3807
  687PSPI   C3A 9953  15.816   8.756   7.855 -0.1576 -0.3214  0.0258
  687PSPI   C4A 9954  16.020   8.689   8.240 -0.0153 -0.2284 -0.1168
  687PSPI   C1B 9955  15.798   8.135   6.831 -0.1758  0.2284 -0.1505
  687PSPI   C2B 9956  15.795   8.112   7.323 -0.0339  0.1671 -0.1742
  687PSPI   C3B 9957  15.569   8.099   7.718  0.1648  0.1815  0.0925
  687PSPI   C4B 9958  15.491   8.103   8.116 -0.0157 -0.0699  0.2046
  688PSPI    C1 9959   7.005  17.491   5.704 -0.2618  0.1716 -0.0933
  688PSPI    C2 9960   7.167  17.703   6.002 -0.0219 -0.1362 -0.0001
  688PSPI    C3 9961   7.361  17.666   5.654 -0.1948  0.0298 -0.1159
  688PSPI   PO4 9962   6.889  17.318   5.852 -0.1755 -0.1806  0.1993
  688PSPI   GL1 9963   6.847  17.390   6.342 -0.1622 -0.2020  0.1547
  688PSPI   GL2 9964   7.194  17.430   6.429  0.1682  0.3188  0.3066
  688PSPI   C1A 9965   6.925  17.116   6.666 -0.1000  0.1150 -0.0003
  688PSPI   C2A 9966   6.827  17.184   7.170 -0.0409 -0.0104 -0.1913
  688PSPI   C3A 9967   6.365  17.237   7.427  0.2555  0.0260 -0.0706
  688PSPI   C4A 9968   6.251  17.192   7.853  0.3508 -0.0066  0.2828
  688PSPI   C1B 9969   7.331  17.320   6.923 -0.3143 -0.1306  0.1360
  688PSPI   C2B 9970   7.295  17.047   7.070 -0.0958 -0.2010 -0.0604
  688PSPI   C3B 9971   7.098  16.785   7.481  0.1721  0.1800 -0.1278
  688PSPI   C4B 9972   7.120  16.738   7.869  0.1135 -0.0383 -0.1808
  689PSPI    C1 9973  16.556   4.616   6.623 -0.0737 -0.0733 -0.0456
  689PSPI    C2 9974  16.782   4.732   6.313 -0.0618  0.3595  0.1181
  689PSPI    C3 9975  16.397   4.640   6.257  0.0815 -0.1293 -0.1179
  689PSPI   PO4 9976  16.683   4.786   6.787  0.0696 -0.3720 -0.1843
  689PSPI   GL1 9977  16.601   5.259   6.929  0.0666  0.1000  0.1250
  689PSPI   GL2 9978  16.336   5.351   7.115 -0.2779  0.3201 -0.1774
  689PSPI   C1A 9979  16.858   5.248   7.287  0.2049  0.0402 -0.1267
  689PSPI   C2A 9980  16.970   5.274   7.672  0.1045 -0.0844  0.2223
  689PSPI   C3A 9981  17.045   5.359   8.112 -0.0630 -0.2435  0.0004
  689PSPI   C4A 9982  16.909   5.317   8.558  0.1860 -0.4198 -0.2819
  689PSPI   C1B 9983  16.401   5.308   7.608 -0.0027 -0.0698  0.0954
  689PSPI   C2B 9984  16.558   5.116   8.042  0.2232 -0.2152  0.2348
  689PSPI   C3B 9985  16.891   4.925   8.206 -0.1764  0.0071  0.1420
  689PSPI   C4B 9986  17.403   4.858   8.309 -0.2220  0.1152 -0.0281
  690PSPI    C1 9987  13.113   1.507   6.087  0.1271 -0.0314  0.2367
  690PSPI    C2 9988  13.182   1.856   5.904 -0.0294 -0.0790  0.0840
  690PSPI    C3 9989  12.817   1.772   6.045  0.0128 -0.1731  0.1389
  690PSPI   PO4 9990  13.357   1.474   6.211  0.1952  0.1016 -0.0936
  690PSPI   GL1 9991  13.651   1.503   6.589  0.2830  0.0911  0.2286
  690PSPI   GL2 9992  13.927   1.622   6.472  0.0591 -0.2682  0.2860
  690PSPI   C1A 9993  13.477   1.355   6.979 -0.2418 -0.0814  0.2845
  690PSPI   C2A 9994  13.579   1.221   7.314  0.2255 -0.2498 -0.1251
  690PSPI   C3A 9995  13.526   1.105   7.714 -0.2186 -0.0462 -0.3925
  690PSPI   C4A 9996  13.617   0.726   7.857  0.1585  0.2708 -0.1327
  690PSPI   C1B 9997  13.971   1.507   6.969  0.2732 -0.0747 -0.2001
  690PSPI   C2B 9998  13.969   1.419   7.505  0.1225  0.1200  0.0420
  690PSPI   C3B 9999  13.848   1.478   7.981  0.1177 -0.0467  0.1165
  690PSPI   C4B10000  13.751   1.494   8.405  0.0354  0.0584  0.1542
  691PSPI    C110001  11.633  12.802   5.574  0.0961 -0.1998 -0.1776
  691PSPI    C210002  11.999  12.938   5.487  0.1208  0.1187  0.3746
  691PSPI    C310003  11.688  13.189   5.487 -0.1104 -0.1522 -0.1022
  691PSPI   PO410004  11.651  12.719   5.760 -0.1083  0.2476 -0.0851
  691PSPI   GL110005  11.393  12.645   6.066 -0.2525  0.0048 -0.1912
  691PSPI   GL210006  11.367  12.902   6.260  0.2293 -0.0754 -0.1362
  691PSPI   C1A10007  11.515  12.417   6.419  0.0446  0.3477  0.2880
  691PSPI   C2A10008  11.304  12.342   6.802  0.0378 -0.1169 -0.0204
  691PSPI   C3A10009  11.404  12.363   7.249  0.3857  0.0620 -0.1488
  691PSPI   C4A10010  11.514  12.329   7.625 -0.1937 -0.0601  0.1361
  691PSPI   C1B10011  11.268  12.897   6.626  0.1985  0.0362 -0.0662
  691PSPI   C2B10012  11.191  12.778   7.002 -0.3322 -0.0388  0.2695
  691PSPI   C3B10013  11.316  12.799   7.459 -0.0270  0.0322 -0.1399
  691PSPI   C4B10014  11.244  12.786   7.980 -0.2115  0.1280  0.2373
  692PSPI    C110015  14.236   1.156   5.739  0.1486 -0.2108 -0.1256
  692PSPI    C210016  13.841   1.166   5.676  0.1502  0.2060 -0.0970
  692PSPI    C310017  14.091   1.097   5.371  0.0557 -0.1427 -0.1003
  692PSPI   PO410018  14.306   0.998   5.982 -0.0109 -0.1019  0.1475
  692PSPI   GL110019  14.474   0.808   6.431  0.0466 -0.1590  0.3237
  692PSPI   GL210020  14.739   1.084   6.578 -0.1212 -0.2743 -0.1809
  692PSPI   C1A10021  14.485   0.659   6.896 -0.3846  0.0097 -0.4069
  692PSPI   C2A10022  14.444   0.637   7.334  0.0275 -0.1103  0.3972
  692PSPI   C3A10023  14.594   0.504   7.731  0.3817 -0.1587  0.0581
  692PSPI   C4A10024  14.891   0.187   7.914  0.0465 -0.1559 -0.0232
  692PSPI   C1B10025  14.838   1.052   7.037 -0.0453  0.1479  0.0487
  692PSPI   C2B10026  14.973   0.989   7.421 -0.1404  0.1564  0.0836
  692PSPI   C3B10027  14.820   1.080   7.756 -0.1828  0.2868 -0.0126
  692PSPI   C4B10028  14.807   1.485   7.848 -0.2047 -0.0681  0.0059
  693PSPI    C110029  15.612  13.340   6.150  0.0267 -0.0978  0.0504
  693PSPI    C210030  15.313  13.340   5.884 -0.0441  0.2869  0.1246
  693PSPI    C310031  15.689  13.408   5.763  0.0483 -0.3698  0.0046
  693PSPI   PO410032  15.468  13.317   6.380  0.0474  0.1735 -0.0076
  693PSPI   GL110033  15.117  13.395   6.689  0.0435  0.1510 -0.4016
  693PSPI   GL210034  15.481  13.616   6.745  0.1512  0.2655  0.1861
  693PSPI   C1A10035  15.121  13.384   7.096  0.0409 -0.2020  0.5434
  693PSPI   C2A10036  15.059  13.105   7.401 -0.2595 -0.0072  0.0625
  693PSPI   C3A10037  14.926  13.103   7.864 -0.2416  0.1437  0.1386
  693PSPI   C4A10038  14.712  13.292   8.281  0.1529  0.3045 -0.1340
  693PSPI   C1B10039  15.634  13.686   7.169  0.0052 -0.0637  0.0629
  693PSPI   C2B10040  15.689  13.835   7.604 -0.1213  0.1012  0.0420
  693PSPI   C3B10041  15.684  13.588   7.932  0.2893  0.3103 -0.1533
  693PSPI   C4B10042  15.321  13.355   8.214  0.0746  0.0484 -0.0598
  694PSPI    C110043  15.094   4.455   6.202 -0.0906 -0.0988  0.1834
  694PSPI    C210044  15.257   4.090   6.221 -0.0567 -0.1032 -0.1396
  694PSPI    C310045  15.412   4.366   5.976 -0.0987  0.1209  0.0825
  694PSPI   PO410046  14.865   4.402   6.255  0.0758  0.3594 -0.0140
  694PSPI   GL110047  14.662   4.520   6.662 -0.0454 -0.1301 -0.3508
  694PSPI   GL210048  14.511   4.712   6.846  0.0626 -0.0961 -0.0643
  694PSPI   C1A10049  14.714   4.256   7.059  0.0679 -0.0998 -0.1300
  694PSPI   C2A10050  14.571   4.283   7.514 -0.1588  0.0103  0.1440
  694PSPI   C3A10051  14.698   4.115   7.900 -0.1854 -0.4502 -0.0807
  694PSPI   C4A10052  14.972   4.278   8.096 -0.0435 -0.3048 -0.3347
  694PSPI   C1B10053  14.586   4.783   7.332  0.0488 -0.2686 -0.1442
  694PSPI   C2B10054  14.678   5.172   7.723  0.1047  0.2127  0.4345
  694PSPI   C3B10055  14.500   5.337   8.056  0.2803  0.1398 -0.0053
  694PSPI   C4B10056  14.564   5.483   8.516 -0.3666 -0.0310  0.1891
  695POPI    C110057  15.112   3.135   6.077  0.2486 -0.0923  0.0984
  695POPI    C210058  14.975   3.497   6.181  0.2636 -0.0578 -0.0011
  695POPI    C310059  15.014   3.401   5.795 -0.2092 -0.3410  0.0137
  695POPI   PO410060  15.352   3.065   6.285  0.2849 -0.3465  0.0345
  695POPI   GL110061  15.398   2.887   6.655 -0.1288  0.0698  0.0318
  695POPI   GL210062  15.771   2.865   6.656  0.1348  0.2356 -0.2518
  695POPI   C1A10063  15.176   2.997   7.077  0.0527  0.2456 -0.0945
  695POPI   D2A10064  14.786   3.053   7.186  0.0922 -0.0811  0.0651
  695POPI   C3A10065  14.830   2.949   7.655  0.0360  0.3636 -0.0219
  695POPI   C4A10066  14.704   2.877   8.078 -0.1887 -0.0614  0.0717
  695POPI   C1B10067  15.681   3.162   7.026  0.0541  0.1534  0.2752
  695POPI   C2B10068  15.646   3.171   7.411 -0.0706 -0.0692  0.0084
  695POPI   C3B10069  15.549   3.083   7.826 -0.0320 -0.0784  0.1878
  695POPI   C4B10070  15.570   3.000   8.250  0.2657 -0.1050  0.1583
  696POPI    C110071   7.017   7.070   5.895  0.0855 -0.1461  0.0901
  696POPI    C210072   7.078   6.676   5.922 -0.0797 -0.1774  0.0184
  696POPI    C310073   6.760   6.816   5.723 -0.0057 -0.0070  0.0187
  696POPI   PO410074   7.061   7.184   6.210 -0.1030 -0.1415  0.0026
  696POPI   GL110075   7.209   7.490   6.575  0.0679  0.0146  0.0587
  696POPI   GL210076   7.177   7.181   6.759  0.0599  0.5000  0.2043
  696POPI   C1A10077   7.367   7.725   6.892  0.2126 -0.0426 -0.0396
  696POPI   D2A10078   7.246   7.823   7.229  0.0702  0.0764  0.5253
  696POPI   C3A10079   7.127   7.742   7.571 -0.1412  0.0163  0.1207
  696POPI   C4A10080   6.936   7.811   7.864 -0.2249  0.0700 -0.1083
  696POPI   C1B10081   7.290   7.076   7.104 -0.0915 -0.1250  0.1753
  696POPI   C2B10082   7.120   7.226   7.463 -0.3051 -0.1489  0.2949
  696POPI   C3B10083   6.947   7.243   7.837  0.2942 -0.0156 -0.0263
  696POPI   C4B10084   6.886   7.523   8.274 -0.0317 -0.0753  0.1785
  697POPI    C110085  14.318  15.933   6.038 -0.0974 -0.1209  0.0489
  697POPI    C210086  14.019  16.186   5.956 -0.1340 -0.3165 -0.4559
  697POPI    C310087  14.374  16.232   5.778  0.1012 -0.1698  0.0341
  697POPI   PO410088  14.251  15.667   5.965  0.0129  0.0330  0.2485
  697POPI   GL110089  14.187  15.509   6.330 -0.1622  0.3337 -0.3461
  697POPI   GL210090  14.018  15.294   6.336 -0.1676  0.2533  0.0681
  697POPI   C1A10091  14.049  15.694   6.689 -0.3982  0.0706  0.1792
  697POPI   D2A10092  13.725  15.777   6.931  0.2019  0.0466 -0.0781
  697POPI   C3A10093  13.284  15.888   6.962  0.0068  0.1324  0.1480
  697POPI   C4A10094  13.075  15.896   7.281 -0.4025  0.2461  0.0322
  697POPI   C1B10095  14.229  15.112   6.739 -0.0245  0.0462  0.0638
  697POPI   C2B10096  14.415  14.886   7.148 -0.0270  0.1740  0.0151
  697POPI   C3B10097  14.204  14.621   7.397 -0.2285  0.0714 -0.0834
  697POPI   C4B10098  14.015  14.415   7.702 -0.1641 -0.3294  0.3839
  698POPI    C110099   1.826  16.802   5.877  0.0340 -0.1233  0.0929
  698POPI    C210100   1.589  16.582   5.643 -0.0569  0.1338 -0.0613
  698POPI    C310101   1.894  16.785   5.483 -0.1525  0.3544  0.0323
  698POPI   PO410102   1.640  16.948   5.991  0.1201  0.1040  0.2896
  698POPI   GL110103   1.368  16.775   6.225 -0.1060  0.0008  0.1690
  698POPI   GL210104   1.250  16.974   6.406 -0.0521 -0.2066  0.2804
  698POPI   C1A10105   1.362  16.618   6.657  0.1000  0.2084 -0.1796
  698POPI   D2A10106   1.238  16.597   7.149 -0.1660  0.1157  0.0456
  698POPI   C3A10107   1.521  16.610   7.514  0.0940  0.1117 -0.0512
  698POPI   C4A10108   1.525  16.403   7.900 -0.1914 -0.2070 -0.0305
  698POPI   C1B10109   1.182  17.158   6.818  0.0117  0.1602  0.1648
  698POPI   C2B10110   1.187  17.042   7.405  0.1012 -0.3108 -0.3553
  698POPI   C3B10111   0.965  16.761   7.674  0.0112 -0.0220 -0.1931
  698POPI   C4B10112   0.880  16.767   8.123 -0.4583  0.1593 -0.0487
  699POPI    C110113  15.825  14.064   5.916  0.0179 -0.0183  0.2425
  699POPI    C210114  16.209  14.064   6.029  0.0238 -0.0449  0.2222
  699POPI    C310115  16.001  13.721   6.025  0.0671 -0.0704  0.0043
  699POPI   PO410116  15.731  14.268   6.068 -0.0515 -0.2255 -0.2853
  699POPI   GL110117  15.900  14.312   6.402  0.0874 -0.0423  0.0516
  699POPI   GL210118  15.979  14.014   6.447  0.0136 -0.1697 -0.0863
  699POPI   C1A10119  15.951  14.377   6.867 -0.1624  0.3261  0.1803
  699POPI   D2A10120  16.208  14.456   7.284  0.3930  0.1270  0.3285
  699POPI   C3A10121  16.269  14.197   7.584 -0.0039  0.0434 -0.0535
  699POPI   C4A10122  16.047  14.028   8.064  0.0883 -0.1929 -0.0102
  699POPI   C1B10123  15.975  13.860   6.820 -0.0155  0.0351  0.0954
  699POPI   C2B10124  16.075  13.856   7.245 -0.1800 -0.2510  0.1233
  699POPI   C3B10125  16.196  13.683   7.679 -0.2039 -0.0325  0.1813
  699POPI   C4B10126  16.169  13.538   8.117 -0.0107 -0.1475  0.1162
  700POPI    C110127   1.751   6.778   6.183 -0.1974  0.1615 -0.0435
  700POPI    C210128   2.110   6.754   6.008 -0.0920 -0.0598  0.1965
  700POPI    C310129   1.837   7.013   5.870  0.0382 -0.1273 -0.2003
  700POPI   PO410130   1.715   6.508   6.271 -0.0868 -0.1920 -0.0235
  700POPI   GL110131   1.328   6.327   6.531  0.0490 -0.1513 -0.1571
  700POPI   GL210132   1.521   6.003   6.653 -0.0433  0.0141 -0.2820
  700POPI   C1A10133   1.389   6.394   7.018 -0.3611 -0.1168 -0.1857
  700POPI   D2A10134   1.493   6.276   7.441  0.0666 -0.2431  0.2539
  700POPI   C3A10135   1.098   6.348   7.670  0.0002 -0.0347  0.0830
  700POPI   C4A10136   0.783   6.291   7.964  0.1121  0.2848 -0.0760
  700POPI   C1B10137   1.337   5.933   7.101 -0.1865 -0.0089 -0.1684
  700POPI   C2B10138   1.175   5.816   7.501 -0.1087  0.2237  0.0527
  700POPI   C3B10139   1.019   5.858   7.842 -0.2369 -0.1980  0.1343
  700POPI   C4B10140   0.741   5.748   8.187  0.2382  0.2264  0.0791
  701POPI    C110141  10.326   3.909   6.440 -0.3707 -0.1565 -0.1294
  701POPI    C210142  10.480   3.909   6.071 -0.0404 -0.0749  0.0048
  701POPI    C310143  10.562   3.609   6.322 -0.0817 -0.0189  0.0859
  701POPI   PO410144  10.303   4.210   6.527  0.0536  0.0617  0.0601
  701POPI   GL110145  10.025   4.411   6.934  0.1061 -0.0588  0.0188
  701POPI   GL210146  10.362   4.473   7.283 -0.0207  0.0319 -0.0672
  701POPI   C1A10147   9.911   4.426   7.321  0.2530 -0.1030 -0.0764
  701POPI   D2A10148   9.941   4.347   7.764 -0.2505 -0.0055  0.0812
  701POPI   C3A10149  10.017   4.464   8.184  0.1694  0.1755  0.1825
  701POPI   C4A10150   9.886   4.562   8.536  0.2255  0.0621  0.0590
  701POPI   C1B10151  10.457   4.524   7.833 -0.0800  0.1095 -0.0088
  701POPI   C2B10152  10.564   4.282   8.198  0.1785 -0.1775 -0.1673
  701POPI   C3B10153  10.900   4.040   8.356 -0.0289 -0.1044  0.1325
  701POPI   C4B10154  11.043   3.921   8.734 -0.0036  0.1523  0.2705
  702POPI    C110155   8.074  12.531   5.811  0.1304  0.2216  0.1000
  702POPI    C210156   7.960  12.878   5.648 -0.1314  0.0649 -0.0569
  702POPI    C310157   7.755  12.724   5.955  0.0559  0.1059  0.0908
  702POPI   PO410158   8.338  12.507   5.869  0.2480 -0.2880  0.0059
  702POPI   GL110159   8.611  12.705   6.086  0.1102 -0.2250 -0.0051
  702POPI   GL210160   8.645  12.440   6.301 -0.2184  0.1475 -0.0825
  702POPI   C1A10161   9.002  12.856   6.300 -0.3009  0.3887  0.0917
  702POPI   D2A10162   9.256  12.992   6.606  0.0556  0.1021 -0.0029
  702POPI   C3A10163   9.276  12.967   7.035  0.0170 -0.2308 -0.0935
  702POPI   C4A10164   9.423  12.970   7.466 -0.0672  0.2388 -0.0077
  702POPI   C1B10165   8.669  12.672   6.632  0.0678  0.0236  0.0369
  702POPI   C2B10166   8.799  12.720   7.020 -0.1601  0.0948 -0.0677
  702POPI   C3B10167   8.981  12.750   7.413 -0.3467  0.1920  0.0887
  702POPI   C4B10168   9.054  13.013   7.808 -0.1311  0.1643  0.1214
  703POPI    C110169   4.937   1.435   5.880  0.0201  0.1744  0.0167
  703POPI    C210170   4.587   1.551   5.725 -0.0325 -0.0443 -0.0319
  703POPI    C310171   4.929   1.652   5.544 -0.0733  0.0982 -0.0308
  703POPI   PO410172   5.017   1.552   6.140 -0.0043 -0.1421  0.2234
  703POPI   GL110173   4.994   1.558   6.614 -0.1868  0.0455 -0.0691
  703POPI   GL210174   5.036   1.278   6.592  0.1119 -0.0813 -0.1765
  703POPI   C1A10175   5.356   1.726   6.774 -0.0415 -0.0326  0.4585
  703POPI   D2A10176   5.551   1.957   7.122  0.2497  0.0536 -0.2801
  703POPI   C3A10177   5.729   1.797   7.562 -0.1932 -0.0410  0.2352
  703POPI   C4A10178   5.521   1.674   7.963 -0.1045  0.3382 -0.0609
  703POPI   C1B10179   5.347   1.143   6.948 -0.2055  0.3376 -0.2119
  703POPI   C2B10180   5.328   0.962   7.346 -0.0744  0.0357  0.3664
  703POPI   C3B10181   5.340   0.988   7.767 -0.0350 -0.3514 -0.1069
  703POPI   C4B10182   5.384   0.912   8.155 -0.1037 -0.0321 -0.1176
  704POPI    C110183   9.775   6.896   6.030  0.0278 -0.2524 -0.2082
  704POPI    C210184   9.715   7.269   5.900 -0.0467 -0.0910  0.2675
  704POPI    C310185  10.068   7.090   5.840 -0.1239 -0.0807 -0.2689
  704POPI   PO410186   9.768   6.895   6.282  0.2255  0.2475 -0.0389
  704POPI   GL110187   9.633   6.700   6.677  0.4494  0.0104  0.2097
  704POPI   GL210188   9.647   6.411   6.745 -0.0809 -0.1748 -0.1061
  704POPI   C1A10189   9.513   6.984   6.982  0.2602 -0.0757  0.0441
  704POPI   D2A10190   9.591   7.080   7.393  0.2853 -0.0221 -0.0668
  704POPI   C3A10191   9.386   7.326   7.693 -0.2834 -0.1788  0.0616
  704POPI   C4A10192   9.026   7.350   7.719 -0.3092 -0.1490 -0.4372
  704POPI   C1B10193   9.574   6.157   7.145 -0.0537 -0.0641  0.0595
  704POPI   C2B10194   9.382   6.118   7.520  0.0668 -0.1554 -0.1080
  704POPI   C3B10195   9.480   6.025   7.912 -0.0827  0.2372 -0.3057
  704POPI   C4B10196   9.425   5.856   8.294 -0.0732 -0.2085 -0.1293
  705POPI    C110197   3.259   9.395   6.244 -0.1413  0.2727  0.1166
  705POPI    C210198   3.522   9.615   6.037 -0.0885  0.1995  0.1058
  705POPI    C310199   3.242   9.403   5.844 -0.0723  0.1729  0.1115
  705POPI   PO410200   3.124   9.640   6.404 -0.2371  0.3393 -0.0200
  705POPI   GL110201   3.216   9.586   6.781 -0.2436  0.0377 -0.3243
  705POPI   GL210202   2.892   9.687   6.882 -0.2502  0.0846 -0.2683
  705POPI   C1A10203   3.324   9.761   7.176  0.1010  0.0973  0.1707
  705POPI   D2A10204   3.303   9.748   7.626 -0.1024  0.1876  0.0839
  705POPI   C3A10205   3.198   9.458   7.975 -0.0966  0.0405  0.0139
  705POPI   C4A10206   2.801   9.175   7.970 -0.0078  0.3228 -0.1469
  705POPI   C1B10207   2.830   9.678   7.297 -0.0096  0.1641 -0.3183
  705POPI   C2B10208   2.740   9.754   7.794 -0.0291  0.1826 -0.0824
  705POPI   C3B10209   2.340   9.900   8.087  0.1342 -0.1325  0.1606
  705POPI   C4B10210   2.133  10.185   8.478  0.0275 -0.0410  0.0473
  706POPI    C110211  12.857   8.588   5.798 -0.0821 -0.0583  0.0542
  706POPI    C210212  12.849   8.827   5.478  0.2203  0.0718  0.1394
  706POPI    C310213  12.507   8.685   5.631  0.0429  0.3681  0.0280
  706POPI   PO410214  13.060   8.812   6.039  0.1626  0.0743  0.1464
  706POPI   GL110215  13.044   8.794   6.381 -0.0132  0.1734 -0.1001
  706POPI   GL210216  12.911   8.522   6.512 -0.1791  0.0981  0.0783
  706POPI   C1A10217  13.057   9.024   6.810  0.1470  0.1279 -0.0024
  706POPI   D2A10218  13.013   9.303   7.130  0.0170 -0.1442 -0.0483
  706POPI   C3A10219  13.221   9.156   7.450  0.3630  0.1505 -0.1017
  706POPI   C4A10220  13.245   9.033   7.748 -0.0874  0.1647 -0.0107
  706POPI   C1B10221  12.871   8.528   6.981 -0.1843  0.2375 -0.0211
  706POPI   C2B10222  12.697   8.817   7.255 -0.1372 -0.3681  0.1708
  706POPI   C3B10223  12.767   9.065   7.588 -0.0773 -0.1890 -0.3377
  706POPI   C4B10224  12.735   9.484   7.568  0.1606 -0.0740 -0.2727
  707POPI    C110225  14.939   5.321   6.653  0.0574  0.0510  0.1901
  707POPI    C210226  15.294   5.172   6.761  0.1575  0.2026  0.0748
  707POPI    C310227  15.229   5.278   6.381 -0.0629  0.0341  0.0634
  707POPI   PO410228  14.738   5.196   6.754 -0.0679  0.2019  0.0191
  707POPI   GL110229  14.856   5.178   7.214 -0.4056  0.0512  0.2108
  707POPI   GL210230  14.979   5.400   7.135 -0.1606 -0.0126 -0.1657
  707POPI   C1A10231  15.098   4.947   7.508  0.2790  0.1792  0.0650
  707POPI   D2A10232  15.195   5.127   7.882  0.4516  0.0384  0.0658
  707POPI   C3A10233  14.990   5.185   8.284 -0.2475  0.0013  0.0693
  707POPI   C4A10234  15.045   5.099   8.664  0.1059  0.1756 -0.2931
  707POPI   C1B10235  15.076   5.471   7.514  0.2284  0.0203  0.1061
  707POPI   C2B10236  14.921   5.532   7.907 -0.1740 -0.0378 -0.1904
  707POPI   C3B10237  14.921   5.731   8.348  0.0352 -0.0531  0.2101
  707POPI   C4B10238  15.090   5.675   8.707  0.0998 -0.1160 -0.1361
  708POPI    C110239   8.151   3.711   6.122  0.1938 -0.2908 -0.1305
  708POPI    C210240   7.801   3.816   5.959  0.3481  0.3085 -0.0996
  708POPI    C310241   7.938   3.443   5.916 -0.3197  0.0448 -0.0561
  708POPI   PO410242   8.249   3.778   6.367  0.0332  0.1608 -0.1732
  708POPI   GL110243   8.210   3.825   6.781 -0.1268 -0.0463  0.1531
  708POPI   GL210244   8.378   4.057   6.837  0.0884 -0.0464 -0.0075
  708POPI   C1A10245   8.099   3.814   7.152 -0.3116 -0.0259 -0.0103
  708POPI   D2A10246   7.961   3.855   7.609  0.1422  0.1511 -0.3382
  708POPI   C3A10247   8.144   4.012   7.945 -0.0316  0.0607  0.0058
  708POPI   C4A10248   7.964   4.234   8.348 -0.0432 -0.3905 -0.2097
  708POPI   C1B10249   8.516   4.169   7.189  0.1200 -0.1925  0.0126
  708POPI   C2B10250   8.499   4.317   7.667 -0.0616  0.0645 -0.1634
  708POPI   C3B10251   8.393   4.384   8.146 -0.1405 -0.0730  0.0781
  708POPI   C4B10252   8.324   4.554   8.540 -0.2376 -0.1306  0.0295
  709POPI    C110253   2.938   7.309   5.979 -0.0696  0.3668  0.0888
  709POPI    C210254   3.320   7.419   5.929  0.0812 -0.0672  0.2336
  709POPI    C310255   3.217   7.034   5.895 -0.3754  0.0653  0.0390
  709POPI   PO410256   2.875   7.523   6.100 -0.1460  0.1649 -0.0235
  709POPI   GL110257   2.643   7.615   6.496  0.4681  0.2033  0.0465
  709POPI   GL210258   2.561   7.402   6.427 -0.0582  0.4698 -0.5880
  709POPI   C1A10259   2.891   7.655   6.826 -0.1222 -0.0678  0.1274
  709POPI   D2A10260   3.361   7.808   6.879 -0.0123  0.1393  0.1044
  709POPI   C3A10261   3.557   7.776   7.278 -0.0209 -0.1389  0.2456
  709POPI   C4A10262   3.632   7.810   7.702 -0.0006  0.1124 -0.1008
  709POPI   C1B10263   2.477   7.364   6.884  0.0248  0.1507  0.0901
  709POPI   C2B10264   2.706   7.471   7.266  0.0470 -0.3033 -0.3487
  709POPI   C3B10265   2.771   7.514   7.712 -0.3408  0.3223  0.0817
  709POPI   C4B10266   2.640   7.753   8.049 -0.0048 -0.0108  0.5289
  710POPI    C110267  14.825  13.800   5.828  0.0322  0.0123  0.1065
  710POPI    C210268  14.715  13.813   5.444 -0.1685  0.0489  0.1645
  710POPI    C310269  14.907  13.492   5.586 -0.1445  0.0110  0.0474
  710POPI   PO410270  14.570  13.858   6.004  0.1414 -0.3794 -0.0423
  710POPI   GL110271  14.676  13.989   6.421 -0.0009  0.2722  0.2163
  710POPI   GL210272  14.638  14.292   6.291  0.0214 -0.1150 -0.1924
  710POPI   C1A10273  14.737  13.846   6.799  0.0674  0.0525 -0.3326
  710POPI   D2A10274  14.613  13.779   7.225  0.0154  0.2434  0.2305
  710POPI   C3A10275  14.894  13.538   7.584  0.2091  0.3141 -0.2372
  710POPI   C4A10276  15.217  13.498   7.728  0.3740  0.0298 -0.2725
  710POPI   C1B10277  15.062  14.162   6.620 -0.0476  0.5018  0.1941
  710POPI   C2B10278  15.203  13.902   6.970  0.2962 -0.1280 -0.1822
  710POPI   C3B10279  15.202  13.930   7.400 -0.0001  0.0565 -0.0439
  710POPI   C4B10280  15.259  13.982   7.861  0.3550  0.2213 -0.0371
  711POPI    C110281   0.793   2.902   6.011 -0.3034 -0.0013  0.0136
  711POPI    C210282   1.077   2.622   5.982 -0.1985  0.0825  0.2166
  711POPI    C310283   0.735   2.582   5.778 -0.0473 -0.0252 -0.0196
  711POPI   PO410284   0.874   3.061   6.227 -0.2759 -0.1893 -0.0658
  711POPI   GL110285   0.825   3.392   6.546 -0.0705  0.4521 -0.1334
  711POPI   GL210286   1.022   3.249   6.652  0.1886 -0.0046  0.0279
  711POPI   C1A10287   0.639   3.343   6.947 -0.1563  0.0848 -0.0037
  711POPI   D2A10288   0.686   3.344   7.361  0.0632  0.1175  0.3067
  711POPI   C3A10289   0.437   3.097   7.648 -0.1152  0.0751 -0.0607
  711POPI   C4A10290   0.324   2.956   8.053 -0.1045  0.1589  0.0458
  711POPI   C1B10291   1.136   3.354   7.054 -0.1172  0.1502 -0.2217
  711POPI   C2B10292   1.290   3.274   7.480  0.0019  0.1829  0.0377
  711POPI   C3B10293   1.397   3.168   7.897 -0.0842 -0.1504  0.1311
  711POPI   C4B10294   1.613   2.841   8.108  0.0256 -0.1695  0.1282
  712POPI    C110295   7.780   6.191   6.400 -0.0401 -0.0653 -0.0966
  712POPI    C210296   8.047   6.357   6.153  0.0543 -0.1835 -0.0750
  712POPI    C310297   7.881   6.004   6.061  0.1698 -0.2796  0.0809
  712POPI   PO410298   7.710   6.395   6.640  0.5121 -0.0266  0.1980
  712POPI   GL110299   7.383   6.641   6.892 -0.0183 -0.0564 -0.1527
  712POPI   GL210300   7.192   6.333   6.890  0.4204 -0.0845 -0.0049
  712POPI   C1A10301   7.300   6.573   7.255 -0.1563  0.3137  0.2592
  712POPI   D2A10302   7.349   6.774   7.619  0.1400 -0.1397 -0.2224
  712POPI   C3A10303   7.017   6.729   7.954  0.0154 -0.0790 -0.0879
  712POPI   C4A10304   6.848   6.904   8.392 -0.2701  0.1605 -0.1053
  712POPI   C1B10305   6.772   6.035   7.003  0.0738 -0.2281 -0.2176
  712POPI   C2B10306   6.749   5.948   7.443  0.2629 -0.2910 -0.3966
  712POPI   C3B10307   6.655   5.920   7.882  0.0251 -0.1163  0.2202
  712POPI   C4B10308   6.624   6.017   8.280 -0.2105  0.1490  0.1629
  713POPI    C110309  10.104   5.107   6.205  0.1861 -0.0332  0.0049
  713POPI    C210310  10.405   4.881   6.341 -0.1275 -0.4814 -0.0257
  713POPI    C310311  10.235   4.797   5.989 -0.0658 -0.0188 -0.1724
  713POPI   PO410312   9.983   5.152   6.551 -0.3055  0.2248  0.0836
  713POPI   GL110313  10.040   4.886   6.984  0.0616 -0.1589  0.0604
  713POPI   GL210314   9.730   4.770   7.023  0.1243 -0.1427  0.0706
  713POPI   C1A10315  10.168   4.872   7.398 -0.0083 -0.0155 -0.1896
  713POPI   D2A10316  10.359   4.968   7.776 -0.0259  0.0428 -0.2009
  713POPI   C3A10317  10.136   4.932   8.166 -0.0340 -0.0402 -0.0280
  713POPI   C4A10318   9.993   5.028   8.663  0.1344 -0.2795  0.3994
  713POPI   C1B10319   9.647   4.842   7.457  0.0955  0.2074 -0.2679
  713POPI   C2B10320   9.659   4.797   7.925 -0.1132 -0.0107 -0.0396
  713POPI   C3B10321   9.500   4.790   8.327  0.3794 -0.1479 -0.1797
  713POPI   C4B10322   9.294   4.746   8.707 -0.0681 -0.0310 -0.2884
  714POPI    C110323   4.918  13.818   5.812 -0.3411  0.2507  0.1345
  714POPI    C210324   4.971  13.601   5.480  0.1645  0.0209  0.3540
  714POPI    C310325   4.881  13.990   5.453  0.0929 -0.0188 -0.0475
  714POPI   PO410326   5.109  13.755   5.959 -0.0238  0.2510 -0.0506
  714POPI   GL110327   5.163  13.556   6.372 -0.0889  0.1674 -0.0931
  714POPI   GL210328   4.780  13.523   6.277 -0.1523  0.1410 -0.0414
  714POPI   C1A10329   5.059  13.729   6.741  0.1402  0.2248  0.1409
  714POPI   D2A10330   5.218  13.674   7.076  0.2920  0.1213 -0.1489
  714POPI   C3A10331   5.341  13.970   7.407  0.0271 -0.1196  0.1340
  714POPI   C4A10332   5.364  14.048   7.878 -0.0382  0.4574  0.1823
  714POPI   C1B10333   4.361  13.488   6.530 -0.0254 -0.2019 -0.0902
  714POPI   C2B10334   4.113  13.343   6.885  0.0874 -0.1271 -0.2013
  714POPI   C3B10335   4.128  13.342   7.398  0.2573 -0.0605  0.0772
  714POPI   C4B10336   4.131  13.448   7.854  0.2709  0.1580 -0.2121
  715POPI    C110337   4.565   0.441   6.189  0.0350  0.0707  0.1268
  715POPI    C210338   4.175   0.500   6.250  0.0465  0.0931  0.1791
  715POPI    C310339   4.395   0.785   6.077 -0.0266 -0.0481 -0.1556
  715POPI   PO410340   4.606   0.353   6.438  0.1340 -0.1878  0.0979
  715POPI   GL110341   4.836   0.369   6.783 -0.0648 -0.1737  0.1969
  715POPI   GL210342   4.624   0.526   7.037 -0.2233 -0.4389 -0.0231
  715POPI   C1A10343   5.200   0.067   6.899 -0.1659  0.0588  0.0525
  715POPI   D2A10344   5.531   0.006   7.178 -0.1491 -0.1671  0.2678
  715POPI   C3A10345   5.325   0.094   7.603 -0.1543  0.0547  0.1176
  715POPI   C4A10346   5.043   0.100   7.899 -0.0397  0.0223  0.1556
  715POPI   C1B10347   4.392   0.236   7.345 -0.2657  0.0347  0.3094
  715POPI   C2B10348   4.580   0.278   7.777 -0.1951 -0.1382  0.2785
  715POPI   C3B10349   4.553   0.423   8.210  0.1079  0.0128  0.0932
  715POPI   C4B10350   4.715   0.401   8.644 -0.1762 -0.4824  0.0908
  716POPI    C110351   5.837  11.085   6.367  0.1062  0.1152 -0.0220
  716POPI    C210352   6.006  11.183   6.018  0.1977  0.1327  0.0270
  716POPI    C310353   5.999  10.801   6.137 -0.2493  0.0598 -0.2115
  716POPI   PO410354   5.598  11.080   6.342  0.0533  0.0425  0.2879
  716POPI   GL110355   5.458  11.218   6.724  0.3917  0.1099  0.2920
  716POPI   GL210356   5.310  10.899   6.873 -0.1172  0.1735 -0.1750
  716POPI   C1A10357   5.522  11.358   7.121  0.2757  0.0080 -0.1132
  716POPI   D2A10358   5.417  11.435   7.548 -0.0797  0.0139  0.0266
  716POPI   C3A10359   5.628  11.461   7.918 -0.1680  0.0265 -0.0317
  716POPI   C4A10360   5.916  11.382   8.214  0.1325 -0.0229 -0.2315
  716POPI   C1B10361   5.173  11.021   7.363 -0.0139 -0.0584 -0.2307
  716POPI   C2B10362   5.153  10.711   7.680 -0.1102 -0.0072 -0.0073
  716POPI   C3B10363   5.032  10.397   7.880  0.0479  0.0126  0.1830
  716POPI   C4B10364   4.716  10.444   8.133 -0.1650  0.1899  0.0303
  717POPI    C110365  12.558   6.997   6.546 -0.2863 -0.1008 -0.0159
  717POPI    C210366  12.228   7.130   6.363 -0.1292  0.2218 -0.0714
  717POPI    C310367  12.572   7.104   6.161 -0.0695  0.0977  0.0449
  717POPI   PO410368  12.731   7.198   6.753  0.1029 -0.0641  0.3626
  717POPI   GL110369  12.977   7.496   6.964 -0.0209  0.1361 -0.1593
  717POPI   GL210370  12.984   7.722   6.768  0.2569 -0.0867 -0.1289
  717POPI   C1A10371  12.828   7.441   7.352 -0.1150 -0.0287 -0.2636
  717POPI   D2A10372  12.958   7.419   7.760  0.1388 -0.2910 -0.0514
  717POPI   C3A10373  12.860   7.702   7.962 -0.1025 -0.1266 -0.0866
  717POPI   C4A10374  12.872   7.878   8.406 -0.3313 -0.0349 -0.2012
  717POPI   C1B10375  13.032   8.042   7.040  0.3014 -0.0325  0.1649
  717POPI   C2B10376  13.439   8.126   7.263  0.1016 -0.3870  0.0537
  717POPI   C3B10377  13.551   8.109   7.749 -0.0202  0.2080 -0.0139
  717POPI   C4B10378  13.301   8.128   8.182 -0.0348 -0.3062  0.5354
  718POPI    C110379   5.872   7.972   6.010  0.0342 -0.0549 -0.0769
  718POPI    C210380   5.770   8.106   5.648  0.2039  0.0132 -0.1004
  718POPI    C310381   5.904   7.732   5.692  0.1863  0.0059 -0.1083
  718POPI   PO410382   5.602   8.058   6.208  0.1372 -0.0591  0.1929
  718POPI   GL110383   5.414   8.077   6.675 -0.0168 -0.0269 -0.1586
  718POPI   GL210384   5.430   7.783   6.639 -0.0375  0.0657 -0.0847
  718POPI   C1A10385   5.183   8.289   7.080  0.2554  0.0636  0.2192
  718POPI   D2A10386   5.058   8.248   7.587  0.0010  0.0561 -0.1825
  718POPI   C3A10387   4.842   8.471   7.887 -0.0051  0.2041  0.2004
  718POPI   C4A10388   4.679   8.890   8.006 -0.1195  0.2022 -0.0848
  718POPI   C1B10389   5.358   7.715   7.025 -0.0211 -0.4210 -0.0251
  718POPI   C2B10390   5.272   7.627   7.458 -0.0107  0.4028  0.1652
  718POPI   C3B10391   5.006   7.780   7.765  0.1620  0.4477  0.2393
  718POPI   C4B10392   4.926   7.746   8.164  0.0929  0.0043  0.1291
  719POPI    C110393  11.462  10.689   5.437 -0.0776 -0.2760  0.0959
  719POPI    C210394  11.730  10.746   5.729 -0.0228  0.4934 -0.0811
  719POPI    C310395  11.853  10.648   5.361 -0.0736 -0.1984  0.0726
  719POPI   PO410396  11.256  10.881   5.526 -0.0364  0.1438 -0.1445
  719POPI   GL110397  11.278  10.897   6.017  0.1510  0.2838 -0.3215
  719POPI   GL210398  11.583  10.966   6.137  0.1997 -0.1678  0.2125
  719POPI   C1A10399  11.045  10.937   6.462 -0.1733  0.0430 -0.0005
  719POPI   D2A10400  10.761  10.918   6.750  0.0823  0.3009 -0.1947
  719POPI   C3A10401  10.912  11.060   7.168 -0.0677 -0.2308 -0.1286
  719POPI   C4A10402  11.026  10.949   7.570 -0.1791 -0.4880 -0.2264
  719POPI   C1B10403  11.453  11.318   6.310 -0.0194 -0.0320  0.4071
  719POPI   C2B10404  11.554  11.443   6.739  0.0941  0.1072  0.1832
  719POPI   C3B10405  11.817  11.217   6.975 -0.1984  0.0652 -0.0517
  719POPI   C4B10406  11.936  11.047   7.281  0.0745  0.2690 -0.2384
  720POPI    C110407  16.012   6.876   6.110  0.0311  0.1661 -0.0148
  720POPI    C210408  15.676   6.721   5.959 -0.0135  0.2182  0.0305
  720POPI    C310409  15.988   6.794   5.719  0.0487 -0.0461  0.0273
  720POPI   PO410410  16.009   6.927   6.386  0.0725 -0.1124 -0.0536
  720POPI   GL110411  16.370   7.082   6.625 -0.0279 -0.2338  0.2283
  720POPI   GL210412  16.318   6.768   6.764 -0.4762 -0.3076  0.0064
  720POPI   C1A10413  16.262   7.236   6.910  0.0838 -0.1584  0.0321
  720POPI   D2A10414  16.221   7.476   7.259  0.1950 -0.0954  0.2507
  720POPI   C3A10415  16.104   7.293   7.676  0.1133 -0.2386 -0.2345
  720POPI   C4A10416  15.927   7.040   8.034 -0.4629  0.0970  0.0596
  720POPI   C1B10417  16.223   6.819   7.226 -0.4021 -0.0742 -0.0151
  720POPI   C2B10418  16.383   6.968   7.501 -0.1617  0.1151  0.1298
  720POPI   C3B10419  16.404   6.901   7.949  0.1361  0.1076 -0.0842
  720POPI   C4B10420  16.405   7.163   8.353  0.1731  0.2475  0.0897
  721POPI    C110421   7.989  17.114   5.530  0.0172 -0.0190 -0.1819
  721POPI    C210422   8.204  17.449   5.488 -0.0588  0.0397 -0.1042
  721POPI    C310423   7.809  17.471   5.552 -0.0062 -0.0530  0.2767
  721POPI   PO410424   8.176  16.993   5.698 -0.0365  0.0966 -0.0232
  721POPI   GL110425   8.429  17.105   6.052 -0.0758  0.1045 -0.1348
  721POPI   GL210426   8.223  17.142   6.365 -0.0917 -0.0458  0.1331
  721POPI   C1A10427   8.767  16.677   5.982  0.0748 -0.1022 -0.0366
  721POPI   D2A10428   8.687  16.353   6.302 -0.1347 -0.0784 -0.3053
  721POPI   C3A10429   8.746  16.336   6.704  0.0979 -0.2630  0.2077
  721POPI   C4A10430   8.993  16.112   7.100 -0.1441 -0.1064 -0.2114
  721POPI   C1B10431   8.306  16.928   6.760  0.2386  0.0964 -0.3723
  721POPI   C2B10432   8.435  16.910   7.307 -0.1201  0.1003 -0.1881
  721POPI   C3B10433   8.359  16.713   7.648  0.1280 -0.0919 -0.1764
  721POPI   C4B10434   8.417  16.411   7.890  0.0434  0.0551 -0.1355
  722POPI    C110435   6.368  15.986   5.737  0.2605 -0.0451  0.1079
  722POPI    C210436   6.474  16.257   5.462 -0.0289 -0.1211 -0.0831
  722POPI    C310437   6.580  15.874   5.416 -0.0310 -0.1245 -0.0604
  722POPI   PO410438   6.464  16.028   5.932  0.0400 -0.1604 -0.0583
  722POPI   GL110439   6.761  16.386   6.131 -0.0435  0.1500  0.1069
  722POPI   GL210440   7.198  16.360   6.197  0.1230  0.0599  0.0442
  722POPI   C1A10441   6.723  16.530   6.551  0.2179 -0.0589 -0.1858
  722POPI   D2A10442   6.595  16.874   6.923  0.0739  0.0397  0.0656
  722POPI   C3A10443   6.259  17.201   6.845  0.0401 -0.1941 -0.0463
  722POPI   C4A10444   6.232  17.620   6.841  0.1851 -0.1908 -0.1838
  722POPI   C1B10445   7.511  16.435   6.433  0.1475  0.0489  0.0170
  722POPI   C2B10446   7.676  16.235   6.828 -0.3565  0.4224 -0.0751
  722POPI   C3B10447   7.969  16.018   7.089  0.1508 -0.0793 -0.0794
  722POPI   C4B10448   8.321  15.994   7.462  0.2045 -0.0465  0.3027
  723POPI    C110449   5.931   3.165   6.350 -0.1914 -0.0192 -0.0340
  723POPI    C210450   5.987   3.501   6.140 -0.0859 -0.0723 -0.0914
  723POPI    C310451   5.621   3.405   6.269 -0.1088  0.0880 -0.0350
  723POPI   PO410452   6.102   2.938   6.351 -0.1929 -0.1931  0.2365
  723POPI   GL110453   6.250   2.572   6.598 -0.0805 -0.1151 -0.0112
  723POPI   GL210454   6.067   2.488   6.459  0.0777 -0.0644 -0.0461
  723POPI   C1A10455   6.076   2.731   7.052 -0.1862 -0.0981  0.1284
  723POPI   D2A10456   6.185   2.719   7.386  0.1407 -0.1210 -0.1788
  723POPI   C3A10457   5.909   2.818   7.677  0.1227 -0.2403 -0.0857
  723POPI   C4A10458   5.755   2.601   8.093  0.0989  0.1766 -0.0025
  723POPI   C1B10459   6.035   2.201   6.861  0.0731 -0.0189 -0.0493
  723POPI   C2B10460   6.024   1.832   7.141 -0.2484  0.0424  0.2256
  723POPI   C3B10461   6.100   1.464   7.413  0.0946  0.0658 -0.0472
  723POPI   C4B10462   5.805   1.341   7.691 -0.2492  0.2158 -0.4690
  724POPI    C110463  15.885  12.533   6.112  0.1575 -0.0491  0.0411
  724POPI    C210464  16.023  12.329   5.797 -0.0705 -0.1214 -0.0138
  724POPI    C310465  15.746  12.612   5.745  0.1844  0.1486  0.0726
  724POPI   PO410466  16.065  12.570   6.262 -0.1218  0.0697 -0.1920
  724POPI   GL110467  16.006  12.397   6.601  0.1157  0.0594  0.1003
  724POPI   GL210468  15.686  12.303   6.532 -0.1599  0.1155  0.1875
  724POPI   C1A10469  15.993  12.297   7.083  0.1949 -0.0551 -0.0241
  724POPI   D2A10470  15.612  12.204   7.382  0.2478  0.0187 -0.1848
  724POPI   C3A10471  15.559  11.801   7.544 -0.0788  0.2781 -0.2274
  724POPI   C4A10472  15.429  11.619   7.179  0.0848 -0.2454 -0.0045
  724POPI   C1B10473  15.540  12.484   6.920 -0.1781  0.0271 -0.0935
  724POPI   C2B10474  15.296  12.655   7.249 -0.3424 -0.1401 -0.0747
  724POPI   C3B10475  15.296  12.650   7.691  0.0419 -0.0512 -0.0104
  724POPI   C4B10476  15.494  12.742   8.061 -0.0590  0.1533 -0.1468
  725POPI    C110477   7.397   5.873   6.141 -0.1214 -0.3787 -0.1300
  725POPI    C210478   7.328   6.157   5.868  0.0625 -0.0245  0.1831
  725POPI    C310479   7.544   5.835   5.771 -0.0841 -0.0247 -0.1552
  725POPI   PO410480   7.215   5.750   6.242  0.1321  0.3475  0.0990
  725POPI   GL110481   6.982   5.813   6.619 -0.2718 -0.0984 -0.2454
  725POPI   GL210482   7.352   5.785   6.717 -0.2532  0.1885  0.0135
  725POPI   C1A10483   7.102   5.688   7.089 -0.3339  0.1548  0.1859
  725POPI   D2A10484   7.538   5.517   7.295  0.0534 -0.1561 -0.1176
  725POPI   C3A10485   7.563   5.433   7.658 -0.3627 -0.0525  0.1394
  725POPI   C4A10486   7.727   5.552   8.076  0.1852  0.0052  0.1923
  725POPI   C1B10487   7.548   5.980   7.095  0.1254  0.0350 -0.0725
  725POPI   C2B10488   7.332   6.082   7.499  0.1207 -0.0845  0.4000
  725POPI   C3B10489   7.092   6.207   7.901  0.1053 -0.0869 -0.1343
  725POPI   C4B10490   7.115   6.366   8.322 -0.1182  0.0135  0.1479
  726POPI    C110491   8.006  13.399   5.602  0.0026 -0.0595  0.0083
  726POPI    C210492   7.822  13.376   5.247 -0.0028 -0.1052  0.0141
  726POPI    C310493   8.167  13.183   5.307  0.0974  0.0594 -0.0277
  726POPI   PO410494   7.807  13.346   5.730 -0.4813 -0.0763  0.2261
  726POPI   GL110495   7.801  13.408   6.104  0.3410 -0.0428 -0.0700
  726POPI   GL210496   7.688  13.146   6.210  0.1217 -0.0009 -0.2206
  726POPI   C1A10497   7.818  13.854   6.306  0.0686  0.0484 -0.0743
  726POPI   D2A10498   7.671  13.933   6.643  0.2833  0.2388 -0.2577
  726POPI   C3A10499   7.927  13.626   7.007  0.0094  0.1141  0.3341
  726POPI   C4A10500   7.875  13.736   7.448 -0.1387  0.2930 -0.3183
  726POPI   C1B10501   7.398  12.971   6.570  0.0478 -0.1709  0.2105
  726POPI   C2B10502   7.397  12.883   7.043  0.2639  0.2239 -0.0099
  726POPI   C3B10503   7.620  12.841   7.463 -0.3054 -0.0706  0.4927
  726POPI   C4B10504   7.663  12.709   7.824 -0.0206  0.1424  0.2653
  727POPI    C110505   1.342  12.242   6.186  0.1955 -0.1868 -0.0067
  727POPI    C210506   1.571  12.313   5.866  0.2802  0.0643  0.1073
  727POPI    C310507   1.740  12.244   6.222  0.1833 -0.0505  0.1317
  727POPI   PO410508   1.108  12.519   6.183 -0.1029  0.0249  0.1005
  727POPI   GL110509   0.810  12.521   6.479 -0.2341 -0.0174  0.2780
  727POPI   GL210510   0.473  12.442   6.523  0.3753 -0.0176 -0.0035
  727POPI   C1A10511   0.888  12.418   6.875 -0.0665  0.1089 -0.0671
  727POPI   D2A10512   1.213  12.306   7.175 -0.0644  0.2199  0.1495
  727POPI   C3A10513   1.290  12.448   7.659  0.3018  0.2247 -0.3650
  727POPI   C4A10514   1.177  12.571   8.074  0.0878  0.0665  0.1349
  727POPI   C1B10515   0.419  12.501   6.937 -0.0202  0.1848  0.2433
  727POPI   C2B10516   0.120  12.622   7.253 -0.1302  0.0628 -0.0773
  727POPI   C3B10517  -0.397  12.696   7.436 -0.3873 -0.1378  0.0801
  727POPI   C4B10518  -0.718  13.007   7.556  0.1756  0.2867  0.2699
  728POPI    C110519  13.623   9.450   5.844  0.1595 -0.0158  0.1995
  728POPI    C210520  13.590   9.829   5.720  0.1766 -0.0512  0.0852
  728POPI    C310521  13.815   9.571   5.514 -0.1084 -0.2105 -0.0322
  728POPI   PO410522  13.568   9.538   6.151 -0.1638  0.0753  0.1396
  728POPI   GL110523  13.453   9.817   6.399 -0.3297  0.2147 -0.1527
  728POPI   GL210524  13.089   9.774   6.445 -0.3892  0.1752  0.1767
  728POPI   C1A10525  13.510  10.092   6.615 -0.1308 -0.0904 -0.0331
  728POPI   D2A10526  13.727  10.368   6.849 -0.0368 -0.1873  0.4247
  728POPI   C3A10527  13.506  10.625   7.096  0.0402 -0.1537  0.0304
  728POPI   C4A10528  13.197  10.824   7.265  0.2181  0.3330  0.1879
  728POPI   C1B10529  12.965  10.187   6.724 -0.5414 -0.1554  0.1469
  728POPI   C2B10530  12.979  10.316   7.107 -0.0089 -0.1473  0.1811
  728POPI   C3B10531  12.908  10.158   7.612  0.0790 -0.1515 -0.0953
  728POPI   C4B10532  12.985   9.815   7.946 -0.0063 -0.2236 -0.1225
  729POPI    C110533   7.434  14.276   5.480 -0.0193  0.0788  0.2048
  729POPI    C210534   7.491  13.946   5.262  0.2053  0.3042 -0.0872
  729POPI    C310535   7.166  13.980   5.493  0.1276 -0.0742 -0.1343
  729POPI   PO410536   7.627  14.290   5.661  0.4188  0.1536 -0.2154
  729POPI   GL110537   7.787  14.397   6.127  0.1280  0.0299 -0.0345
  729POPI   GL210538   8.051  14.130   5.974 -0.0740 -0.3683 -0.2066
  729POPI   C1A10539   7.476  14.370   6.492  0.1692  0.1763  0.1782
  729POPI   D2A10540   7.324  14.323   6.948 -0.1332 -0.1015  0.0279
  729POPI   C3A10541   7.076  14.556   7.318  0.0292 -0.3077 -0.0945
  729POPI   C4A10542   6.968  14.820   7.648 -0.1197  0.0217  0.1753
  729POPI   C1B10543   8.333  14.064   6.412 -0.2592 -0.0302 -0.0554
  729POPI   C2B10544   8.246  13.899   6.761 -0.0909  0.1970  0.2230
  729POPI   C3B10545   8.271  13.972   7.157 -0.1466 -0.2887 -0.0751
  729POPI   C4B10546   8.319  13.888   7.614 -0.1263 -0.0640 -0.0859
  730POPI    C110547  12.713  11.811   6.135 -0.3063  0.0541 -0.0847
  730POPI    C210548  12.692  12.156   5.933  0.0519 -0.0062 -0.2332
  730POPI    C310549  12.730  11.810   5.735  0.0969 -0.0945 -0.0719
  730POPI   PO410550  12.920  11.858   6.285  0.0802 -0.0205  0.3731
  730POPI   GL110551  12.925  11.688   6.696  0.0250 -0.1007 -0.2274
  730POPI   GL210552  13.291  11.747   6.715  0.3018 -0.2768  0.1557
  730POPI   C1A10553  12.759  11.692   7.194 -0.2009 -0.1691 -0.2650
  730POPI   D2A10554  12.719  11.740   7.675  0.0810  0.1094 -0.2155
  730POPI   C3A10555  12.565  11.966   8.006  0.3814 -0.1661  0.0744
  730POPI   C4A10556  12.228  11.945   8.262 -0.3235  0.0046  0.0341
  730POPI   C1B10557  13.236  11.952   7.061 -0.0497  0.1230 -0.1221
  730POPI   C2B10558  13.100  12.066   7.420 -0.0605 -0.2015 -0.0218
  730POPI   C3B10559  13.347  12.119   7.843 -0.2116  0.0150 -0.1511
  730POPI   C4B10560  13.419  12.154   8.234  0.2073 -0.0878 -0.1059
  731POPI    C110561   1.109  16.069   5.663  0.1064  0.0697 -0.1222
  731POPI    C210562   0.835  16.219   5.414 -0.0410  0.1479  0.0844
  731POPI    C310563   0.947  15.836   5.381  0.0197  0.1854 -0.1685
  731POPI   PO410564   1.014  16.041   5.981 -0.0824  0.1069 -0.0735
  731POPI   GL110565   0.732  15.960   6.257  0.1115  0.1493  0.1077
  731POPI   GL210566   0.937  15.858   6.467  0.3160  0.1597  0.0381
  731POPI   C1A10567   0.401  15.625   6.398 -0.1140 -0.1518 -0.1753
  731POPI   D2A10568   0.073  15.699   6.648 -0.0723  0.0321 -0.1155
  731POPI   C3A10569   0.049  15.837   7.090 -0.0192 -0.1814 -0.1024
  731POPI   C4A10570   0.113  16.127   7.482 -0.2045  0.2182  0.2547
  731POPI   C1B10571   0.609  15.740   6.828 -0.0002 -0.1417  0.0020
  731POPI   C2B10572   0.512  15.799   7.243 -0.0953  0.1842  0.0812
  731POPI   C3B10573   0.448  15.809   7.614  0.1679  0.0878 -0.0771
  731POPI   C4B10574   0.518  15.883   8.073  0.1155  0.0464 -0.1462
  732POPI    C110575  16.725  11.999   5.708 -0.0271 -0.0713  0.0124
  732POPI    C210576  16.341  11.886   5.702 -0.0629  0.0225  0.3483
  732POPI    C310577  16.449  12.234   5.537 -0.0920 -0.0847  0.0983
  732POPI   PO410578  16.830  11.883   5.984  0.1198  0.3149  0.0863
  732POPI   GL110579  16.961  11.875   6.407 -0.5331  0.1122  0.1397
  732POPI   GL210580  16.690  11.833   6.584  0.0424 -0.0930  0.0531
  732POPI   C1A10581  17.214  11.809   6.846 -0.0171  0.0048  0.0553
  732POPI   D2A10582  17.310  11.630   7.225 -0.0665  0.2480  0.3281
  732POPI   C3A10583  17.418  11.806   7.635  0.1423  0.0325 -0.0005
  732POPI   C4A10584  17.720  11.910   7.947  0.1207 -0.0349  0.2860
  732POPI   C1B10585  16.806  11.715   7.109  0.0485  0.0826  0.0272
  732POPI   C2B10586  16.916  11.623   7.553 -0.2592 -0.1361  0.1125
  732POPI   C3B10587  17.131  11.542   7.923 -0.0282  0.0598 -0.1004
  732POPI   C4B10588  17.028  11.128   8.120 -0.2550  0.0987  0.2591
  733POPI    C110589  17.117   9.054   5.857 -0.1029 -0.3429 -0.0598
  733POPI    C210590  16.719   9.034   5.824 -0.0998 -0.1603 -0.2279
  733POPI    C310591  16.952   8.866   5.545 -0.0605 -0.0789 -0.2443
  733POPI   PO410592  17.160   9.355   5.919  0.0055 -0.0174  0.2569
  733POPI   GL110593  17.223   9.540   6.329 -0.3451 -0.0731 -0.1268
  733POPI   GL210594  17.002   9.364   6.451 -0.1501  0.3296 -0.1023
  733POPI   C1A10595  17.497   9.602   6.696 -0.3270 -0.2021  0.2645
  733POPI   D2A10596  17.656   9.537   7.041 -0.2235  0.1399 -0.0335
  733POPI   C3A10597  17.474   9.688   7.454  0.0702 -0.0730  0.1887
  733POPI   C4A10598  17.621   9.771   7.859  0.0489 -0.0914  0.0222
  733POPI   C1B10599  17.067   9.590   6.916  0.2520  0.0287 -0.2830
  733POPI   C2B10600  17.029   9.531   7.326 -0.2475 -0.0520 -0.3951
  733POPI   C3B10601  17.029   9.632   7.730 -0.3213  0.0395  0.2864
  733POPI   C4B10602  17.179   9.757   8.121 -0.1186  0.1269 -0.0962
  734POPI    C110603   8.118   9.429   6.023  0.0776 -0.4025 -0.0379
  734POPI    C210604   7.739   9.540   5.959  0.1745 -0.0586 -0.0389
  734POPI    C310605   7.957   9.390   5.659  0.1002 -0.0722 -0.0864
  734POPI   PO410606   8.173   9.673   6.205  0.1288  0.1059  0.0027
  734POPI   GL110607   8.043   9.808   6.527  0.0183 -0.1101  0.0220
  734POPI   GL210608   8.272   9.853   6.739 -0.1528 -0.2827 -0.2196
  734POPI   C1A10609   7.707   9.683   6.805 -0.0590  0.1707  0.0088
  734POPI   D2A10610   7.596   9.315   6.874  0.1734 -0.0676  0.0227
  734POPI   C3A10611   7.710   9.107   7.298 -0.2384 -0.0098 -0.1502
  734POPI   C4A10612   7.855   9.040   7.652 -0.0629 -0.1804 -0.1233
  734POPI   C1B10613   8.245  10.145   7.055  0.0538 -0.0512 -0.1155
  734POPI   C2B10614   8.328  10.270   7.453 -0.1410 -0.1822  0.1489
  734POPI   C3B10615   8.244  10.414   7.867 -0.0691  0.2002  0.0923
  734POPI   C4B10616   8.622  10.316   8.158  0.0715  0.1247 -0.1940
  735POPI    C110617  15.300  11.934   6.010  0.0331  0.1406  0.1080
  735POPI    C210618  15.440  12.301   6.086  0.2279  0.1482 -0.2630
  735POPI    C310619  15.523  12.124   5.737  0.0455 -0.2076 -0.1308
  735POPI   PO410620  15.395  11.763   6.174 -0.0703 -0.1583 -0.2012
  735POPI   GL110621  15.343  11.685   6.614 -0.0246 -0.1106  0.1571
  735POPI   GL210622  15.469  11.359   6.531  0.0370  0.0887 -0.0784
  735POPI   C1A10623  15.558  12.000   6.870  0.2368 -0.1882 -0.0396
  735POPI   D2A10624  15.907  11.853   7.120 -0.1674  0.2520 -0.0964
  735POPI   C3A10625  16.048  11.981   7.496 -0.1915  0.0495  0.0769
  735POPI   C4A10626  16.044  11.847   7.866  0.1867 -0.2982 -0.1822
  735POPI   C1B10627  15.375  11.192   6.911  0.0248 -0.0796 -0.0967
  735POPI   C2B10628  15.333  11.156   7.420 -0.2290 -0.1839 -0.1564
  735POPI   C3B10629  15.506  11.361   7.776  0.0913  0.0116  0.0359
  735POPI   C4B10630  15.567  11.369   8.181 -0.0500  0.1425  0.0179
  736POPI    C110631  14.093  13.982   5.809  0.1231 -0.4224 -0.0398
  736POPI    C210632  13.837  14.073   5.517  0.0116  0.0028  0.1824
  736POPI    C310633  14.208  13.955   5.427 -0.0846 -0.0709 -0.1314
  736POPI   PO410634  13.983  13.710   5.938 -0.3298  0.0913  0.1322
  736POPI   GL110635  13.821  13.731   6.378  0.1292  0.2250  0.1102
  736POPI   GL210636  14.024  14.037   6.339 -0.1346 -0.1915  0.1712
  736POPI   C1A10637  13.650  13.501   6.686 -0.1899  0.2438  0.2538
  736POPI   D2A10638  13.487  13.228   6.629 -0.1490  0.1324 -0.2913
  736POPI   C3A10639  13.739  12.877   6.709 -0.0948  0.3954 -0.1597
  736POPI   C4A10640  13.879  12.697   6.983  0.0079 -0.1502 -0.0897
  736POPI   C1B10641  13.802  14.052   6.756 -0.1981  0.0379 -0.1126
  736POPI   C2B10642  13.523  14.068   7.112  0.0597  0.0948 -0.0020
  736POPI   C3B10643  13.324  14.013   7.477 -0.2523 -0.2099  0.0526
  736POPI   C4B10644  13.299  14.184   7.973 -0.1012 -0.1379  0.3477
  737POPI    C110645   1.763   4.194   6.050  0.0365  0.0570 -0.1504
  737POPI    C210646   2.094   4.403   5.970  0.0142  0.0649 -0.2230
  737POPI    C310647   2.010   4.073   5.759  0.1304 -0.1071 -0.0047
  737POPI   PO410648   1.617   4.323   6.183 -0.0221 -0.0090 -0.2266
  737POPI   GL110649   1.579   4.362   6.580  0.1024  0.2557  0.0209
  737POPI   GL210650   1.300   4.464   6.804  0.0975 -0.0659  0.1202
  737POPI   C1A10651   1.706   4.392   7.054 -0.0390 -0.0626 -0.0498
  737POPI   D2A10652   1.556   4.259   7.452  0.0659 -0.0354 -0.1394
  737POPI   C3A10653   1.873   3.990   7.358 -0.1184 -0.2232 -0.0414
  737POPI   C4A10654   2.244   3.788   7.165  0.1669  0.1268 -0.0321
  737POPI   C1B10655   1.179   4.562   7.178  0.2817  0.2845 -0.2539
  737POPI   C2B10656   0.950   4.300   7.456 -0.3890 -0.0125 -0.0889
  737POPI   C3B10657   1.063   4.260   7.830 -0.0806 -0.0231 -0.2799
  737POPI   C4B10658   0.971   3.957   8.097 -0.2571 -0.0469 -0.0057
  738POPI    C110659   1.033   7.745   5.805 -0.0375 -0.2202  0.1270
  738POPI    C210660   1.205   7.553   5.499  0.0786  0.0206  0.0384
  738POPI    C310661   0.827   7.679   5.468  0.1246  0.1390 -0.0479
  738POPI   PO410662   1.242   7.659   6.098  0.1482  0.0779  0.2383
  738POPI   GL110663   1.340   7.825   6.510 -0.1735 -0.2697 -0.1375
  738POPI   GL210664   1.002   7.906   6.699  0.0972  0.3499  0.0347
  738POPI   C1A10665   1.443   7.745   6.948 -0.0440 -0.0774 -0.0331
  738POPI   D2A10666   1.275   7.850   7.436  0.3853 -0.2089  0.4962
  738POPI   C3A10667   1.270   7.715   7.828 -0.4684  0.1246  0.0181
  738POPI   C4A10668   1.207   7.571   8.331 -0.2405  0.2337 -0.0060
  738POPI   C1B10669   0.880   7.823   7.121 -0.0225  0.1548  0.0668
  738POPI   C2B10670   0.835   7.717   7.545 -0.2206  0.0262 -0.1240
  738POPI   C3B10671   0.797   7.805   8.075 -0.2477 -0.0116 -0.3175
  738POPI   C4B10672   0.721   7.579   8.492  0.1940  0.1800  0.3083
  739POPI    C110673  12.082   3.625   6.223 -0.1596 -0.0032  0.1476
  739POPI    C210674  11.855   3.695   5.901  0.0724  0.0531 -0.0060
  739POPI    C310675  12.101   3.379   5.909  0.1236  0.0948  0.0849
  739POPI   PO410676  12.012   3.581   6.411  0.1126  0.2858  0.2228
  739POPI   GL110677  12.274   3.330   6.675  0.2246 -0.0334  0.0621
  739POPI   GL210678  12.405   3.523   6.894  0.0094 -0.0068  0.0591
  739POPI   C1A10679  12.417   3.060   7.091  0.2282 -0.1182  0.3000
  739POPI   D2A10680  12.472   2.865   7.443  0.1592  0.0499 -0.0305
  739POPI   C3A10681  12.424   2.929   7.878  0.2412  0.0214 -0.2166
  739POPI   C4A10682  12.220   3.101   8.310 -0.1352 -0.1302 -0.3722
  739POPI   C1B10683  12.335   3.523   7.330  0.0205 -0.0781  0.0415
  739POPI   C2B10684  12.454   3.361   7.683  0.0711  0.2246  0.0245
  739POPI   C3B10685  12.661   3.376   8.064 -0.0118  0.1753 -0.0841
  739POPI   C4B10686  12.619   3.440   8.443 -0.1378  0.0064  0.2137
  740POPI    C110687   3.127  17.146   5.930  0.1411 -0.1239 -0.0259
  740POPI    C210688   3.310  16.829   5.767  0.2456 -0.0527 -0.0478
  740POPI    C310689   3.195  17.135   5.536 -0.0095 -0.1492 -0.0516
  740POPI   PO410690   3.231  17.141   6.147 -0.0214 -0.1029  0.0830
  740POPI   GL110691   3.308  17.261   6.633  0.0959  0.2010 -0.0689
  740POPI   GL210692   3.477  17.463   6.743 -0.0815 -0.0376  0.1013
  740POPI   C1A10693   3.071  17.175   6.951 -0.0835 -0.2237  0.0556
  740POPI   D2A10694   2.815  16.964   7.134  0.3080 -0.1131 -0.5030
  740POPI   C3A10695   2.793  17.030   7.555  0.3501 -0.2036 -0.0679
  740POPI   C4A10696   2.796  16.994   7.983  0.0485  0.1862  0.1512
  740POPI   C1B10697   3.630  17.251   7.151  0.1099  0.3127 -0.2257
  740POPI   C2B10698   3.735  17.194   7.550 -0.0400  0.2216 -0.0385
  740POPI   C3B10699   3.604  16.925   7.843 -0.3275  0.1951 -0.0757
  740POPI   C4B10700   3.794  16.752   8.254 -0.0675 -0.1040  0.1104
  741POPI    C110701  10.407  16.945   5.664 -0.1741 -0.1513 -0.0216
  741POPI    C210702  10.471  16.564   5.559 -0.1232 -0.1597  0.0397
  741POPI    C310703  10.568  16.860   5.307  0.1627 -0.1727  0.1313
  741POPI   PO410704  10.142  17.017   5.739  0.1228 -0.1346 -0.3086
  741POPI   GL110705   9.853  16.907   6.054  0.0429 -0.1449  0.2116
  741POPI   GL210706   9.615  17.136   6.074 -0.1513  0.1334  0.1154
  741POPI   C1A10707   9.983  17.083   6.402  0.0110  0.0985 -0.1855
  741POPI   D2A10708   9.730  17.359   6.690 -0.1897  0.1977 -0.0086
  741POPI   C3A10709   9.703  17.217   7.142 -0.2103 -0.1421 -0.0700
  741POPI   C4A10710   9.385  17.042   7.473 -0.0570  0.4041 -0.2656
  741POPI   C1B10711   9.355  17.177   6.451  0.0321  0.0101  0.2727
  741POPI   C2B10712   9.270  16.970   6.908 -0.0387 -0.0018 -0.1954
  741POPI   C3B10713   8.995  16.595   7.096 -0.1176 -0.2340  0.2344
  741POPI   C4B10714   8.565  16.336   7.190  0.0359 -0.2576 -0.2145
  742POPS   CNO10715   3.838  16.830   5.880 -0.1977  0.0993  0.0120
  742POPS   PO410716   3.964  16.527   6.137 -0.0843 -0.0913  0.2358
  742POPS   GL110717   4.096  16.323   6.523  0.1245 -0.2822  0.1302
  742POPS   GL210718   3.890  16.196   6.699 -0.1224 -0.1302 -0.0560
  742POPS   C1A10719   4.278  16.140   6.955 -0.1420 -0.3127 -0.0544
  742POPS   D2A10720   4.268  15.851   7.289 -0.0218 -0.1063 -0.0984
  742POPS   C3A10721   4.399  15.856   7.697 -0.3797 -0.3462  0.1135
  742POPS   C4A10722   4.269  15.569   8.008 -0.3042  0.0203 -0.1168
  742POPS   C1B10723   3.874  16.375   7.107  0.1334  0.2492 -0.4436
  742POPS   C2B10724   4.118  16.239   7.564  0.1438  0.0134 -0.0252
  742POPS   C3B10725   4.190  16.194   8.041  0.2370  0.0252  0.1148
  742POPS   C4B10726   4.032  16.360   8.449 -0.2143 -0.1034  0.6101
  743POPS   CNO10727  12.947   0.274   6.027  0.1509  0.0390 -0.2099
  743POPS   PO410728  13.000   0.564   5.815 -0.3099 -0.1157  0.0622
  743POPS   GL110729  13.001   0.712   6.263 -0.2118 -0.1999  0.0929
  743POPS   GL210730  12.728   0.891   6.340  0.2093  0.0773 -0.1864
  743POPS   C1A10731  13.021   0.481   6.596 -0.2933  0.1538 -0.1618
  743POPS   D2A10732  13.126   0.470   7.093  0.1930 -0.0470 -0.0599
  743POPS   C3A10733  12.919   0.399   7.450  0.4139  0.2496  0.0070
  743POPS   C4A10734  13.104   0.085   7.762 -0.1742  0.2524  0.0683
  743POPS   C1B10735  12.790   0.857   6.779 -0.2431 -0.0111  0.0354
  743POPS   C2B10736  12.812   0.834   7.168 -0.3085 -0.3092  0.1959
  743POPS   C3B10737  12.753   0.881   7.605 -0.0195 -0.4430  0.0288
  743POPS   C4B10738  12.745   0.720   8.019 -0.2512  0.0171  0.0391
  744POPS   CNO10739  16.273  11.564   6.079 -0.0124  0.0772  0.1869
  744POPS   PO410740  16.336  11.953   6.239 -0.3307 -0.2395 -0.0944
  744POPS   GL110741  16.187  11.877   6.668  0.0298 -0.2047 -0.3205
  744POPS   GL210742  15.953  11.864   6.610  0.0053  0.2079  0.1512
  744POPS   C1A10743  16.415  11.983   7.125 -0.1970 -0.1219  0.0767
  744POPS   D2A10744  16.669  12.108   7.405 -0.0448  0.2028  0.2384
  744POPS   C3A10745  16.596  11.949   7.767  0.1223  0.3011  0.0746
  744POPS   C4A10746  16.562  11.876   8.145  0.0937  0.1350 -0.0683
  744POPS   C1B10747  15.786  11.455   6.911  0.2457  0.1977 -0.0024
  744POPS   C2B10748  15.805  11.299   7.311 -0.2162  0.1232  0.0026
  744POPS   C3B10749  16.039  11.384   7.630  0.2221 -0.0753  0.0083
  744POPS   C4B10750  16.088  11.405   8.121 -0.0829  0.0704 -0.1299
  745POPS   CNO10751   5.561   6.040   6.016 -0.0732 -0.0446  0.1751
  745POPS   PO410752   5.672   5.782   6.331  0.2196 -0.0858  0.0191
  745POPS   GL110753   5.703   5.584   6.734 -0.0586  0.2874 -0.3665
  745POPS   GL210754   5.826   5.285   6.723 -0.0131 -0.1749 -0.1619
  745POPS   C1A10755   5.565   5.403   7.128 -0.0103 -0.3546  0.0301
  745POPS   D2A10756   5.511   5.357   7.558 -0.1046 -0.1675  0.1172
  745POPS   C3A10757   5.830   5.616   7.878 -0.4336  0.2091  0.0278
  745POPS   C4A10758   5.767   5.942   8.165 -0.4007  0.3164 -0.0155
  745POPS   C1B10759   6.068   4.881   7.035  0.2734 -0.0034  0.1945
  745POPS   C2B10760   6.224   4.823   7.426  0.2892 -0.0263 -0.0799
  745POPS   C3B10761   6.393   4.873   7.878 -0.0291 -0.0439 -0.0883
  745POPS   C4B10762   6.491   4.904   8.390 -0.3033 -0.3868 -0.1231
  746POPS   CNO10763  15.781  10.130   6.064 -0.1474 -0.4811 -0.0569
  746POPS   PO410764  16.139  10.317   5.919 -0.0525  0.1785  0.0877
  746POPS   GL110765  15.905  10.537   6.327  0.2746 -0.0853  0.1216
  746POPS   GL210766  15.540  10.426   6.397 -0.1782  0.0167  0.1721
  746POPS   C1A10767  15.855  10.416   6.770  0.0097  0.0866  0.0797
  746POPS   D2A10768  16.168  10.236   6.829  0.0424 -0.1191  0.1568
  746POPS   C3A10769  16.310  10.156   7.239 -0.3134  0.0115  0.0368
  746POPS   C4A10770  16.261  10.311   7.677  0.0690 -0.0550  0.3798
  746POPS   C1B10771  15.244  10.597   6.767 -0.1828 -0.0173 -0.1132
  746POPS   C2B10772  15.307  10.674   7.145  0.1194  0.0632 -0.0354
  746POPS   C3B10773  15.348  10.581   7.538  0.0835  0.2424  0.0923
  746POPS   C4B10774  15.181  10.392   7.908 -0.0124 -0.1943 -0.0643
  747POPS   CNO10775  13.758  10.855   5.575  0.0266 -0.4291 -0.4263
  747POPS   PO410776  14.020  10.974   5.819  0.0757 -0.2734 -0.0391
  747POPS   GL110777  14.154  10.759   6.172  0.0610 -0.1839  0.1227
  747POPS   GL210778  14.477  10.746   6.112 -0.1815 -0.3398 -0.1539
  747POPS   C1A10779  14.017  10.850   6.634  0.1552 -0.1026  0.0883
  747POPS   D2A10780  13.974  10.893   7.113 -0.0665  0.0163 -0.2409
  747POPS   C3A10781  13.605  11.188   7.284  0.0459 -0.2851  0.0793
  747POPS   C4A10782  13.304  11.483   7.281  0.0141  0.0296 -0.2219
  747POPS   C1B10783  14.489  10.811   6.517 -0.0026 -0.1713  0.0696
  747POPS   C2B10784  14.447  10.806   6.989  0.4098 -0.0755  0.1101
  747POPS   C3B10785  14.388  10.788   7.374 -0.1239 -0.0737  0.3069
  747POPS   C4B10786  14.311  10.497   7.641 -0.0966 -0.2394  0.2646
  748POPS   CNO10787   2.309  15.904   5.541 -0.0901  0.1248  0.0518
  748POPS   PO410788   2.062  16.339   5.611  0.0411  0.3684 -0.0671
  748POPS   GL110789   1.974  16.206   6.125 -0.0036 -0.0064 -0.2047
  748POPS   GL210790   1.832  15.876   6.154 -0.4333  0.1294  0.0490
  748POPS   C1A10791   2.036  16.080   6.621  0.1106 -0.0316 -0.1858
  748POPS   D2A10792   1.845  15.793   6.912  0.1496  0.0143 -0.0421
  748POPS   C3A10793   1.963  15.761   7.259 -0.3969 -0.0042  0.1984
  748POPS   C4A10794   1.885  15.673   7.690  0.2592 -0.0585 -0.2394
  748POPS   C1B10795   1.682  15.562   6.500 -0.0881 -0.0823 -0.1950
  748POPS   C2B10796   1.524  15.204   6.757  0.0648  0.1000 -0.1070
  748POPS   C3B10797   1.382  15.009   7.141 -0.0795 -0.2997  0.2149
  748POPS   C4B10798   1.324  14.897   7.630 -0.1762  0.0320 -0.1741
  749POPS   CNO10799   2.794  12.280   6.541 -0.0415 -0.1690  0.0715
  749POPS   PO410800   2.540  11.924   6.275 -0.1187  0.0189 -0.0415
  749POPS   GL110801   2.564  11.770   6.706 -0.0523  0.1919  0.0653
  749POPS   GL210802   2.875  11.840   6.836 -0.3604 -0.2223  0.0972
  749POPS   C1A10803   2.657  11.578   7.124  0.0176  0.1135 -0.2378
  749POPS   D2A10804   2.695  11.624   7.546  0.0300 -0.4174  0.0397
  749POPS   C3A10805   2.520  11.466   7.788 -0.0192  0.0382  0.1034
  749POPS   C4A10806   2.514  11.436   8.122 -0.0792 -0.1003 -0.2314
  749POPS   C1B10807   2.973  11.990   7.268 -0.0025  0.2574  0.3162
  749POPS   C2B10808   3.052  12.105   7.718  0.5331  0.0476 -0.0744
  749POPS   C3B10809   3.019  12.224   8.165  0.1378 -0.0751  0.0316
  749POPS   C4B10810   2.868  12.443   8.504 -0.1359 -0.0399 -0.0360
  750POPS   CNO10811   4.130   7.393   5.992 -0.0171 -0.2512 -0.1235
  750POPS   PO410812   4.137   6.998   5.934  0.0890 -0.0528 -0.2717
  750POPS   GL110813   4.096   6.981   6.438  0.0313  0.1335 -0.0473
  750POPS   GL210814   3.865   6.770   6.591 -0.1034  0.1505 -0.1789
  750POPS   C1A10815   4.150   7.040   6.875 -0.1656  0.1329 -0.2438
  750POPS   D2A10816   4.031   7.005   7.238 -0.1869  0.1640  0.0886
  750POPS   C3A10817   4.256   7.221   7.528  0.0710 -0.3016 -0.0528
  750POPS   C4A10818   4.135   7.466   7.852 -0.0695 -0.0082 -0.1964
  750POPS   C1B10819   3.618   6.898   6.982 -0.0123  0.3178  0.1119
  750POPS   C2B10820   3.359   6.925   7.330  0.3116  0.0450 -0.0523
  750POPS   C3B10821   3.206   6.965   7.796 -0.1164 -0.0016  0.0347
  750POPS   C4B10822   2.892   6.813   8.231 -0.0150  0.3088 -0.2764
  751POPS   CNO10823  10.474  13.203   5.295 -0.2805  0.0208 -0.0917
  751POPS   PO410824  10.829  13.057   5.602  0.1413  0.0163 -0.3696
  751POPS   GL110825  10.857  13.242   5.975  0.0118  0.0818 -0.2446
  751POPS   GL210826  10.904  12.867   6.110 -0.4237  0.3458 -0.0227
  751POPS   C1A10827  10.803  13.182   6.449 -0.2154  0.1153 -0.0122
  751POPS   D2A10828  10.671  13.072   6.878  0.1391  0.3799 -0.1759
  751POPS   C3A10829  10.559  13.546   7.088 -0.0913 -0.3708  0.2569
  751POPS   C4A10830  10.444  13.574   7.579 -0.3096  0.0857  0.0286
  751POPS   C1B10831  10.958  12.535   6.365 -0.1353 -0.3692 -0.1330
  751POPS   C2B10832  10.701  12.560   6.801 -0.0448  0.1469  0.1600
  751POPS   C3B10833  10.783  12.620   7.196  0.2360  0.0124 -0.2524
  751POPS   C4B10834  10.749  12.610   7.607 -0.1154  0.0674 -0.2568
  752POPS   CNO10835  11.608   5.678   6.495 -0.4264 -0.2016 -0.1217
  752POPS   PO410836  11.781   5.365   6.821  0.1056 -0.1990  0.3450
  752POPS   GL110837  12.003   5.521   7.117 -0.1844 -0.2307  0.0675
  752POPS   GL210838  12.327   5.741   7.083  0.1541  0.4294 -0.2241
  752POPS   C1A10839  12.068   5.652   7.475  0.2748  0.2560 -0.0420
  752POPS   D2A10840  11.902   5.960   7.753 -0.0300 -0.0058 -0.0680
  752POPS   C3A10841  11.792   5.874   8.181 -0.0937 -0.1781  0.0561
  752POPS   C4A10842  11.590   5.760   8.612 -0.2073  0.2671  0.0871
  752POPS   C1B10843  12.652   5.568   7.332 -0.1817  0.0161  0.0672
  752POPS   C2B10844  13.029   5.406   7.635 -0.1157 -0.0184  0.3994
  752POPS   C3B10845  13.088   5.260   8.003  0.1456 -0.1909 -0.0681
  752POPS   C4B10846  13.023   5.204   8.486  0.1004 -0.2100 -0.1782
  753POPS   CNO10847   8.509   1.878   6.173 -0.0168  0.0905 -0.1756
  753POPS   PO410848   8.088   1.739   6.097 -0.1872 -0.0967 -0.0552
  753POPS   GL110849   8.073   1.824   6.527 -0.5227 -0.5449  0.0080
  753POPS   GL210850   8.230   2.118   6.516 -0.0063  0.0241  0.4388
  753POPS   C1A10851   7.901   1.782   6.903  0.1799 -0.3571  0.0545
  753POPS   D2A10852   7.876   1.665   7.355 -0.2015 -0.0793  0.0926
  753POPS   C3A10853   7.915   1.837   7.743  0.2430 -0.0251  0.1319
  753POPS   C4A10854   7.746   1.920   8.107  0.2308  0.0014  0.0387
  753POPS   C1B10855   8.307   2.112   6.973  0.0736 -0.0117 -0.1485
  753POPS   C2B10856   8.302   2.011   7.376 -0.0031 -0.0753 -0.3009
  753POPS   C3B10857   8.387   1.852   7.714  0.1170 -0.1210 -0.0840
  753POPS   C4B10858   8.289   1.812   8.154  0.0940  0.1586  0.5500
  754POPS   CNO10859   5.544  14.324   5.553 -0.2999 -0.0348 -0.1497
  754POPS   PO410860   5.617  14.589   6.018  0.0291  0.0644 -0.2090
  754POPS   GL110861   5.673  14.442   6.376  0.0803 -0.0036 -0.0290
  754POPS   GL210862   5.327  14.499   6.441 -0.1389  0.0522  0.0969
  754POPS   C1A10863   5.817  14.458   6.703 -0.0689 -0.0254 -0.1826
  754POPS   D2A10864   5.851  14.719   6.888 -0.0710  0.3101  0.1710
  754POPS   C3A10865   5.701  14.907   7.282  0.0936 -0.0003 -0.1095
  754POPS   C4A10866   5.786  14.970   7.727 -0.1430  0.2419  0.0230
  754POPS   C1B10867   5.466  14.082   6.676  0.1132 -0.0500 -0.0434
  754POPS   C2B10868   5.646  14.166   7.026  0.2687 -0.3218  0.0979
  754POPS   C3B10869   5.961  14.401   7.218 -0.2116  0.1469  0.0948
  754POPS   C4B10870   6.076  14.592   7.504  0.5424  0.0488  0.0895
  755POPS   CNO10871  10.394   5.907   6.426  0.1673 -0.2248  0.2486
  755POPS   PO410872  10.293   6.044   6.806 -0.0309 -0.1932 -0.4388
  755POPS   GL110873  10.123   6.389   7.026  0.1130 -0.0852  0.0553
  755POPS   GL210874  10.167   6.705   6.878 -0.0617  0.2592  0.0724
  755POPS   C1A10875  10.319   6.562   7.412  0.0600 -0.1589 -0.2180
  755POPS   D2A10876  10.583   6.896   7.645  0.2567 -0.3025 -0.0290
  755POPS   C3A10877  10.418   7.050   8.074 -0.0481 -0.2728 -0.1809
  755POPS   C4A10878  10.072   7.257   8.266 -0.0368  0.0498  0.1260
  755POPS   C1B10879   9.848   6.740   7.163 -0.1462 -0.0992  0.2721
  755POPS   C2B10880   9.815   6.524   7.436  0.2765 -0.1536  0.2275
  755POPS   C3B10881   9.722   6.449   7.869 -0.1684  0.3012 -0.2373
  755POPS   C4B10882   9.462   6.519   8.127 -0.1211 -0.2115  0.1800
  756POPS   CNO10883  12.692   5.559   6.817  0.1693 -0.0745 -0.0972
  756POPS   PO410884  12.709   5.823   6.494 -0.1513  0.0404 -0.0781
  756POPS   GL110885  12.827   5.987   6.926 -0.2570 -0.1716 -0.1858
  756POPS   GL210886  12.817   6.341   6.913  0.0653  0.0220 -0.1013
  756POPS   C1A10887  12.871   5.984   7.339  0.0150 -0.3405  0.0000
  756POPS   D2A10888  12.895   6.042   7.790  0.0596 -0.1278 -0.2464
  756POPS   C3A10889  13.009   5.750   8.077 -0.0909  0.0997  0.1286
  756POPS   C4A10890  12.714   5.728   8.349 -0.1872 -0.1842  0.0267
  756POPS   C1B10891  12.816   6.467   7.382  0.0136 -0.1414 -0.0268
  756POPS   C2B10892  12.757   6.503   7.853  0.0513 -0.0465 -0.0339
  756POPS   C3B10893  13.042   6.640   8.205 -0.2502  0.1339  0.0163
  756POPS   C4B10894  13.294   6.569   8.403 -0.0070  0.0835 -0.0302
  757POPS   CNO10895  11.241   6.275   6.421 -0.2607 -0.0436 -0.2296
  757POPS   PO410896  11.316   6.015   6.677 -0.1788 -0.2834 -0.0719
  757POPS   GL110897  11.328   6.075   7.044 -0.1016 -0.0948  0.2211
  757POPS   GL210898  10.922   5.951   7.146 -0.2305  0.2847  0.2966
  757POPS   C1A10899  11.292   6.480   7.169 -0.1120  0.2704  0.2421
  757POPS   D2A10900  11.159   6.878   7.166  0.1228 -0.2690  0.2793
  757POPS   C3A10901  11.030   7.159   7.547 -0.2022 -0.1120 -0.0494
  757POPS   C4A10902  10.901   7.154   8.014 -0.0392 -0.0148  0.2138
  757POPS   C1B10903  11.075   5.945   7.551 -0.1256 -0.1492 -0.1689
  757POPS   C2B10904  10.891   5.914   7.838 -0.3776  0.1807  0.2806
  757POPS   C3B10905  10.912   6.103   8.181 -0.0728 -0.0383 -0.1518
  757POPS   C4B10906  10.824   6.303   8.589  0.1316  0.1019 -0.1799
  758POPS   CNO10907   0.655   0.804   6.218 -0.3653 -0.0006  0.0123
  758POPS   PO410908   1.048   1.011   5.999  0.0406  0.0725  0.0983
  758POPS   GL110909   1.175   0.670   6.256 -0.0473  0.0968 -0.0477
  758POPS   GL210910   1.056   0.799   6.602  0.2962 -0.2709 -0.1830
  758POPS   C1A10911   1.322   0.435   6.570  0.0632 -0.1646 -0.0149
  758POPS   D2A10912   1.297   0.045   6.465  0.1370  0.2096 -0.3351
  758POPS   C3A10913   1.510  -0.175   6.777  0.3239 -0.0279  0.4642
  758POPS   C4A10914   1.725  -0.086   7.254 -0.0597  0.1986  0.2423
  758POPS   C1B10915   1.170   0.706   6.980  0.2968 -0.2568 -0.1212
  758POPS   C2B10916   1.549   0.568   6.995 -0.1739  0.0230 -0.1367
  758POPS   C3B10917   1.822   0.222   6.832 -0.1321  0.0324  0.1501
  758POPS   C4B10918   2.013  -0.192   6.746  0.1122  0.1521  0.1974
  759POPS   CNO10919  11.457  16.794   5.530  0.1328  0.2323  0.0614
  759POPS   PO410920  11.509  17.216   5.721  0.1583  0.2694 -0.0010
  759POPS   GL110921  11.618  17.403   6.153  0.1415  0.0259  0.1663
  759POPS   GL210922  11.854  17.634   6.229  0.2576  0.1251 -0.2695
  759POPS   C1A10923  11.583  17.275   6.566 -0.1685  0.0746 -0.1854
  759POPS   D2A10924  11.552  17.277   7.036  0.2409  0.0445 -0.4178
  759POPS   C3A10925  11.933  17.329   7.282 -0.0799  0.2175 -0.2327
  759POPS   C4A10926  12.202  17.389   7.531 -0.1572 -0.1329  0.0257
  759POPS   C1B10927  11.751  17.760   6.674  0.0958  0.0946 -0.0249
  759POPS   C2B10928  11.609  17.788   7.094 -0.0513  0.0321  0.1886
  759POPS   C3B10929  11.506  17.538   7.502 -0.0379 -0.0029 -0.0204
  759POPS   C4B10930  11.802  17.250   7.806 -0.0717  0.0486 -0.0034
  760POPS   CNO10931  14.853   3.012   6.679  0.2171  0.1140  0.2755
  760POPS   PO410932  14.503   3.110   6.473 -0.1001  0.1448  0.0157
  760POPS   GL110933  14.315   2.822   6.757  0.0508  0.0010 -0.3637
  760POPS   GL210934  14.007   2.610   6.819 -0.1054  0.0984 -0.1160
  760POPS   C1A10935  14.277   2.808   7.159  0.2654  0.0137 -0.0253
  760POPS   D2A10936  14.351   2.804   7.641  0.2036 -0.0334  0.0635
  760POPS   C3A10937  14.319   2.590   7.977  0.1213 -0.2573 -0.3994
  760POPS   C4A10938  14.429   2.425   8.385 -0.2933  0.0220  0.2238
  760POPS   C1B10939  13.802   2.605   7.214 -0.0115  0.1899  0.1935
  760POPS   C2B10940  13.887   2.463   7.678  0.1862 -0.0775 -0.0932
  760POPS   C3B10941  13.893   2.428   8.157 -0.1692 -0.3480 -0.5613
  760POPS   C4B10942  14.014   2.740   8.553  0.0600  0.0946  0.0864
  761POPS   CNO10943   3.635  14.914   5.951 -0.1089 -0.4947 -0.1552
  761POPS   PO410944   3.273  14.717   6.054 -0.2629 -0.4026 -0.1852
  761POPS   GL110945   3.273  14.825   6.458 -0.0988  0.0592  0.1648
  761POPS   GL210946   3.150  14.573   6.563  0.3295  0.0729  0.0603
  761POPS   C1A10947   3.590  14.701   6.762 -0.1691 -0.5037  0.0513
  761POPS   D2A10948   3.781  14.539   7.092 -0.3872 -0.3217 -0.0118
  761POPS   C3A10949   4.089  14.163   7.268 -0.1438 -0.0964 -0.0452
  761POPS   C4A10950   4.340  14.204   7.666  0.0476  0.1579  0.0292
  761POPS   C1B10951   2.907  14.594   6.803 -0.2352 -0.2724 -0.3668
  761POPS   C2B10952   2.803  14.552   7.220 -0.0301 -0.1793 -0.0980
  761POPS   C3B10953   2.701  14.610   7.653  0.1687  0.3269 -0.1101
  761POPS   C4B10954   2.678  14.916   7.943 -0.0062 -0.1946 -0.1982
  762POPS   CNO10955  13.641   8.314   5.632  0.3152  0.2036  0.2153
  762POPS   PO410956  13.539   8.415   6.009 -0.2171 -0.3715 -0.2886
  762POPS   GL110957  13.419   8.473   6.304  0.1990  0.0953 -0.0229
  762POPS   GL210958  13.578   8.699   6.481 -0.0156  0.1141 -0.2398
  762POPS   C1A10959  13.339   8.340   6.792 -0.1484 -0.1866 -0.1353
  762POPS   D2A10960  13.346   8.593   7.191 -0.0765  0.0899  0.0724
  762POPS   C3A10961  13.301   8.511   7.637 -0.1613 -0.0100 -0.0331
  762POPS   C4A10962  13.518   8.617   8.013  0.2838 -0.0070  0.2198
  762POPS   C1B10963  13.580   8.827   6.818 -0.0212 -0.1891  0.1298
  762POPS   C2B10964  13.592   9.032   7.074  0.0327 -0.0364  0.3134
  762POPS   C3B10965  13.714   8.997   7.488  0.1594 -0.0184  0.2464
  762POPS   C4B10966  13.836   9.006   7.862  0.1869 -0.0827 -0.5222
  763POPS   CNO10967  16.718   2.085   6.025 -0.5201  0.1504  0.2309
  763POPS   PO410968  16.527   1.798   6.303 -0.1038  0.0736 -0.1461
  763POPS   GL110969  16.366   1.688   6.694  0.0323  0.1253  0.1179
  763POPS   GL210970  16.263   1.927   6.782 -0.3067  0.0642 -0.2927
  763POPS   C1A10971  16.320   1.515   7.095  0.1322  0.0229 -0.0520
  763POPS   D2A10972  16.405   1.464   7.558  0.0468 -0.1356 -0.2672
  763POPS   C3A10973  16.062   1.153   7.744  0.0016  0.0110 -0.1668
  763POPS   C4A10974  15.755   1.131   8.048  0.1404 -0.1985 -0.0902
  763POPS   C1B10975  16.106   2.004   7.120  0.1619 -0.0883 -0.2674
  763POPS   C2B10976  15.766   2.077   7.472 -0.0047 -0.2448  0.1122
  763POPS   C3B10977  15.616   2.066   7.848 -0.2879 -0.0831  0.2425
  763POPS   C4B10978  15.519   1.840   8.293 -0.2893  0.2083  0.0916
  764POPS   CNO10979  10.188   9.816   5.494  0.1245  0.0946  0.1067
  764POPS   PO410980   9.764   9.660   5.590 -0.2064 -0.1294 -0.2320
  764POPS   GL110981  10.009   9.699   6.021 -0.2112  0.2109  0.2285
  764POPS   GL210982   9.969   9.957   6.206  0.0973 -0.0780  0.0245
  764POPS   C1A10983   9.833   9.464   6.357 -0.1489  0.1961  0.2245
  764POPS   D2A10984   9.632   9.334   6.734 -0.0043 -0.1882 -0.0292
  764POPS   C3A10985   9.911   9.128   7.047  0.1788  0.0507 -0.2085
  764POPS   C4A10986  10.013   9.183   7.430  0.0678  0.1065  0.1130
  764POPS   C1B10987  10.159   9.793   6.578  0.2323 -0.0468 -0.0458
  764POPS   C2B10988  10.299  10.052   6.976  0.0362  0.1766  0.0853
  764POPS   C3B10989  10.570  10.355   7.043 -0.0975  0.0635 -0.1832
  764POPS   C4B10990  10.438  10.789   7.144 -0.0692 -0.0245 -0.1249
  765POPS   CNO10991  16.263  11.479   5.396 -0.4552 -0.2556 -0.1195
  765POPS   PO410992  16.298  11.147   5.689  0.2943  0.0166  0.0325
  765POPS   GL110993  16.285  11.009   6.191 -0.1988 -0.1543 -0.0274
  765POPS   GL210994  16.364  10.707   6.241  0.0520 -0.1177 -0.3045
  765POPS   C1A10995  16.670  10.988   6.518 -0.1721  0.0241 -0.1600
  765POPS   D2A10996  16.875  11.350   6.758 -0.5140 -0.4404  0.1283
  765POPS   C3A10997  16.952  11.296   7.058  0.1420 -0.0734  0.2338
  765POPS   C4A10998  16.964  11.138   7.479  0.1764  0.1058 -0.2267
  765POPS   C1B10999  16.122  10.821   6.634  0.0839 -0.0545 -0.1673
  765POPS   C2B11000  16.264  10.681   7.077 -0.1585  0.1026 -0.3315
  765POPS   C3B11001  16.161  10.857   7.458 -0.2072  0.0541  0.1465
  765POPS   C4B11002  15.740  10.914   7.622  0.0160 -0.1164 -0.1166
  766POPS   CNO11003  17.392   5.434   6.307 -0.1023  0.0390 -0.4118
  766POPS   PO411004  17.175   5.764   6.489  0.0455  0.1025 -0.1227
  766POPS   GL111005  17.137   5.487   6.940  0.1320  0.0192  0.0245
  766POPS   GL211006  17.006   5.694   7.037 -0.0143 -0.2618  0.0747
  766POPS   C1A11007  17.437   5.464   7.258  0.1694  0.2039 -0.1542
  766POPS   D2A11008  17.570   5.202   7.558 -0.1068 -0.1745 -0.3112
  766POPS   C3A11009  17.288   4.910   7.859  0.0152 -0.3514  0.1368
  766POPS   C4A11010  16.851   4.700   7.836 -0.1425  0.0163 -0.3637
  766POPS   C1B11011  17.074   5.732   7.402 -0.4243 -0.3955 -0.1172
  766POPS   C2B11012  17.244   5.705   7.766  0.0553  0.1671 -0.1436
  766POPS   C3B11013  17.531   5.414   8.016  0.1961 -0.3434 -0.3783
  766POPS   C4B11014  17.683   5.416   8.394 -0.0402 -0.0250 -0.0057
  767POPS   CNO11015   8.916   1.471   5.499  0.1673 -0.0396 -0.0601
  767POPS   PO411016   8.986   1.116   5.719 -0.1903 -0.3732  0.0986
  767POPS   GL111017   9.229   1.242   6.194  0.1718  0.3567 -0.1025
  767POPS   GL211018   9.027   1.328   6.402  0.2451  0.0307 -0.1871
  767POPS   C1A11019   9.371   1.030   6.581  0.1580 -0.0220  0.0600
  767POPS   D2A11020   9.303   1.013   7.032  0.1860 -0.1674 -0.0089
  767POPS   C3A11021   9.518   1.285   7.359 -0.1606  0.0004 -0.0692
  767POPS   C4A11022   9.735   1.488   7.771 -0.0512 -0.1543  0.0772
  767POPS   C1B11023   8.895   1.216   6.852 -0.2196  0.0352 -0.0845
  767POPS   C2B11024   8.809   0.996   7.255  0.1977 -0.1608  0.2506
  767POPS   C3B11025   9.013   0.835   7.630 -0.2594 -0.0872 -0.0936
  767POPS   C4B11026   9.118   0.761   8.083  0.0018  0.0095  0.0406
  768POPS   CNO11027  11.231   8.389   6.333 -0.2780  0.1941  0.4711
  768POPS   PO411028  11.412   8.168   6.619  0.1719 -0.1014 -0.1471
  768POPS   GL111029  11.644   8.092   6.962  0.1870 -0.1654  0.0846
  768POPS   GL211030  11.928   8.266   6.911  0.1727  0.0316  0.0734
  768POPS   C1A11031  11.592   7.898   7.400  0.2701 -0.0524  0.1858
  768POPS   D2A11032  11.820   7.730   7.729 -0.2992  0.1146  0.2466
  768POPS   C3A11033  11.977   7.926   8.058 -0.1863  0.0790 -0.0580
  768POPS   C4A11034  12.391   7.980   8.166 -0.1079  0.0683 -0.3846
  768POPS   C1B11035  11.878   8.360   7.336  0.0380 -0.2349  0.0695
  768POPS   C2B11036  11.866   8.356   7.785 -0.0993 -0.1192  0.1399
  768POPS   C3B11037  11.507   8.228   8.047 -0.1792  0.2659  0.0301
  768POPS   C4B11038  11.497   7.697   8.144  0.0924 -0.0242 -0.1093
  769POPS   CNO11039  15.656   5.505   6.581  0.0698  0.1384  0.3915
  769POPS   PO411040  15.726   5.037   6.476 -0.1435 -0.2678 -0.0567
  769POPS   GL111041  15.719   4.996   6.928  0.1425  0.2044  0.1161
  769POPS   GL211042  15.802   5.237   6.993  0.0245  0.2693 -0.0610
  769POPS   C1A11043  15.528   4.807   7.282  0.3409  0.1253 -0.0637
  769POPS   D2A11044  15.590   4.814   7.706  0.1512 -0.1995 -0.0512
  769POPS   C3A11045  15.380   4.672   8.131  0.0734  0.2069  0.0654
  769POPS   C4A11046  15.451   4.483   8.504  0.0948 -0.0074 -0.0471
  769POPS   C1B11047  15.980   5.020   7.483 -0.0056 -0.1923 -0.0170
  769POPS   C2B11048  16.061   4.989   7.916  0.3764  0.0258  0.0342
  769POPS   C3B11049  15.951   5.207   8.253 -0.0183 -0.1932  0.2057
  769POPS   C4B11050  16.045   5.039   8.689  0.1277  0.0629  0.0928
  770POPS   CNO11051  12.289   2.918   5.775  0.3570  0.2903 -0.1796
  770POPS   PO411052  12.201   2.714   6.070  0.0412 -0.0230  0.1011
  770POPS   GL111053  12.063   2.536   6.495 -0.0551 -0.2470  0.0028
  770POPS   GL211054  11.970   2.771   6.791 -0.0453 -0.2307  0.0578
  770POPS   C1A11055  12.078   2.274   6.797 -0.1313 -0.0815  0.1493
  770POPS   D2A11056  11.964   2.142   7.191  0.0540 -0.1962  0.1214
  770POPS   C3A11057  12.149   2.048   7.530 -0.1110  0.3753  0.2156
  770POPS   C4A11058  12.576   1.871   7.736  0.1388 -0.2081 -0.0354
  770POPS   C1B11059  12.092   2.676   7.187 -0.0603 -0.0034 -0.2161
  770POPS   C2B11060  12.053   2.588   7.574  0.2474 -0.1646  0.3144
  770POPS   C3B11061  11.992   2.675   8.001 -0.0202 -0.2040 -0.2847
  770POPS   C4B11062  12.322   2.547   8.344  0.1536 -0.4379 -0.0175
  771POPS   CNO11063   1.655  10.999   6.615 -0.2161  0.0433 -0.0348
  771POPS   PO411064   1.928  10.616   6.443 -0.2575 -0.0464 -0.0322
  771POPS   GL111065   2.148  10.851   6.723  0.1215  0.1167 -0.1275
  771POPS   GL211066   2.396  10.713   6.815  0.0956 -0.0215  0.1472
  771POPS   C1A11067   1.929  11.041   7.021 -0.4026 -0.0882 -0.1224
  771POPS   D2A11068   1.702  11.135   7.468 -0.0268 -0.0754 -0.0123
  771POPS   C3A11069   1.767  11.497   7.588  0.3162  0.0267 -0.2211
  771POPS   C4A11070   1.696  11.608   8.075  0.1714 -0.1365 -0.1030
  771POPS   C1B11071   2.155  10.531   7.173 -0.2907  0.1230 -0.1413
  771POPS   C2B11072   1.907  10.620   7.428  0.0665 -0.0995 -0.1807
  771POPS   C3B11073   1.802  10.823   7.807 -0.0257  0.1194  0.0570
  771POPS   C4B11074   1.606  10.868   8.073  0.1297 -0.1953 -0.0775
  772POPS   CNO11075   4.202   1.114   6.369  0.3519  0.2720 -0.4161
  772POPS   PO411076   4.060   1.238   6.733 -0.0590  0.0959  0.3334
  772POPS   GL111077   4.350   1.416   6.894  0.1413 -0.0194  0.0442
  772POPS   GL211078   4.598   1.256   6.825  0.3144 -0.1167 -0.0931
  772POPS   C1A11079   4.377   1.280   7.309 -0.1262 -0.0754  0.0905
  772POPS   D2A11080   4.017   1.338   7.569 -0.0275  0.1470 -0.1043
  772POPS   C3A11081   4.045   1.305   8.028 -0.1101 -0.0079  0.1242
  772POPS   C4A11082   4.094   1.503   8.380  0.0005  0.1205  0.0724
  772POPS   C1B11083   4.810   1.519   7.091 -0.1422  0.2372 -0.0198
  772POPS   C2B11084   5.068   1.854   7.165  0.1042  0.3704  0.1617
  772POPS   C3B11085   5.261   2.054   7.507  0.0566  0.4130  0.1479
  772POPS   C4B11086   5.435   2.245   7.885 -0.2021 -0.0227 -0.0230
  773POPS   CNO11087   8.828  10.768   5.859  0.1264  0.0214 -0.1625
  773POPS   PO411088   8.593  11.008   6.172 -0.2648 -0.1016 -0.2192
  773POPS   GL111089   8.649  10.871   6.616 -0.0396  0.1644 -0.1575
  773POPS   GL211090   8.370  10.603   6.754 -0.2568  0.0549 -0.0616
  773POPS   C1A11091   8.623  11.025   6.987  0.0242 -0.2600 -0.3320
  773POPS   D2A11092   8.803  11.051   7.460  0.0756  0.2030  0.1017
  773POPS   C3A11093   9.145  11.272   7.558  0.3622 -0.2023 -0.0312
  773POPS   C4A11094   9.289  11.590   7.906  0.0008 -0.2196 -0.3816
  773POPS   C1B11095   8.296  10.683   7.168 -0.0543  0.1301 -0.2717
  773POPS   C2B11096   8.383  10.791   7.570  0.1042 -0.0798  0.2931
  773POPS   C3B11097   8.429  11.160   7.770  0.2849  0.0594  0.2932
  773POPS   C4B11098   8.692  11.454   7.816 -0.0789  0.2915  0.4038
  774POPS   CNO11099  14.916  10.009   5.644 -0.1033  0.0278 -0.0049
  774POPS   PO411100  14.770  10.407   5.944  0.1455 -0.2446 -0.1486
  774POPS   GL111101  14.556  10.319   6.303 -0.1311 -0.0372  0.0789
  774POPS   GL211102  14.564  10.027   6.494 -0.1259  0.2637  0.1046
  774POPS   C1A11103  14.220  10.381   6.619  0.2953 -0.0440  0.1234
  774POPS   D2A11104  14.175  10.412   7.094  0.2438 -0.3435 -0.0950
  774POPS   C3A11105  13.865  10.374   7.385  0.1148  0.1243  0.0036
  774POPS   C4A11106  13.882  10.361   7.878 -0.0055  0.1678 -0.1801
  774POPS   C1B11107  14.511   9.949   6.981 -0.0680  0.1007 -0.0465
  774POPS   C2B11108  14.317  10.056   7.394 -0.2666  0.2520  0.0163
  774POPS   C3B11109  14.045   9.932   7.750  0.1853  0.1515 -0.0400
  774POPS   C4B11110  13.925   9.959   8.233 -0.1044 -0.0126  0.0664
  775POPS   CNO11111   6.754  11.919   5.493  0.1462  0.1213 -0.0665
  775POPS   PO411112   6.364  11.920   5.656  0.1783 -0.2197  0.1100
  775POPS   GL111113   6.341  11.719   6.223  0.1041 -0.0056 -0.0204
  775POPS   GL211114   5.928  11.624   6.369  0.0468 -0.0757  0.0656
  775POPS   C1A11115   6.364  11.656   6.694  0.0619 -0.1303  0.1137
  775POPS   D2A11116   6.336  11.550   7.177  0.0837  0.0834  0.0143
  775POPS   C3A11117   6.672  11.412   7.214  0.0230 -0.1819 -0.3857
  775POPS   C4A11118   6.999  11.632   7.317 -0.0593 -0.0393 -0.1535
  775POPS   C1B11119   5.931  11.513   6.848 -0.0568  0.0674 -0.0573
  775POPS   C2B11120   5.867  11.694   7.313 -0.1144 -0.1494  0.0138
  775POPS   C3B11121   6.107  11.563   7.656 -0.2857 -0.0908 -0.1576
  775POPS   C4B11122   6.226  11.584   7.920 -0.0442  0.0925 -0.0935
  776POPS   CNO11123   1.154  15.403   5.508  0.0111  0.0412 -0.0480
  776POPS   PO411124   1.411  15.579   5.770  0.2761 -0.0614 -0.2702
  776POPS   GL111125   1.348  15.717   6.165  0.6276  0.0892  0.2541
  776POPS   GL211126   1.241  15.462   6.362  0.1716  0.0532  0.1023
  776POPS   C1A11127   1.452  16.041   6.541  0.2059  0.0003  0.3094
  776POPS   D2A11128   1.598  16.230   6.861 -0.1543  0.1782  0.0693
  776POPS   C3A11129   1.509  16.098   7.233 -0.3650 -0.1681  0.1089
  776POPS   C4A11130   1.447  15.911   7.650 -0.0760 -0.0169 -0.3361
  776POPS   C1B11131   1.295  15.613   6.771 -0.0464  0.3987  0.0859
  776POPS   C2B11132   1.498  15.518   7.209 -0.2785 -0.3687 -0.0354
  776POPS   C3B11133   1.640  15.307   7.478 -0.0689 -0.0317 -0.0382
  776POPS   C4B11134   1.638  15.147   7.869  0.1869  0.1061  0.2563
  777POPS   CNO11135   7.178   0.373   6.280  0.0283 -0.1016 -0.1327
  777POPS   PO411136   7.515   0.609   6.331  0.1096  0.0399  0.3177
  777POPS   GL111137   7.477   0.435   6.687 -0.0565 -0.0031  0.0901
  777POPS   GL211138   7.466   0.100   6.605  0.0180 -0.0819 -0.0315
  777POPS   C1A11139   7.357   0.542   7.048 -0.2027 -0.0710 -0.0239
  777POPS   D2A11140   7.395   0.355   7.428 -0.0681  0.0804  0.1111
  777POPS   C3A11141   7.199   0.413   7.739 -0.0366 -0.4421 -0.1680
  777POPS   C4A11142   7.101   0.759   8.109  0.2025 -0.0622  0.1094
  777POPS   C1B11143   7.354   0.033   7.000 -0.1177 -0.1938  0.1610
  777POPS   C2B11144   7.095  -0.134   7.329 -0.0938  0.0958 -0.0134
  777POPS   C3B11145   7.199  -0.480   7.595 -0.1050  0.2634 -0.0188
  777POPS   C4B11146   7.064  -0.439   7.984  0.2015  0.2891  0.1217
  778POPS   CNO11147   5.649   8.523   5.920  0.1464  0.0943 -0.0512
  778POPS   PO411148   6.028   8.447   6.050  0.0171 -0.1623  0.3736
  778POPS   GL111149   5.902   8.523   6.426 -0.2944  0.0514  0.2960
  778POPS   GL211150   5.913   8.163   6.589  0.1587 -0.0217  0.2481
  778POPS   C1A11151   5.993   8.766   6.834  0.1431 -0.0576 -0.0244
  778POPS   D2A11152   6.097   8.822   7.299  0.2369  0.0036 -0.0072
  778POPS   C3A11153   6.384   8.697   7.533  0.2079 -0.1164 -0.0360
  778POPS   C4A11154   6.375   8.730   7.984 -0.1141  0.3043 -0.0513
  778POPS   C1B11155   5.778   8.065   7.043  0.3036  0.0348 -0.1145
  778POPS   C2B11156   5.535   8.077   7.388  0.2172  0.0061 -0.2257
  778POPS   C3B11157   5.469   7.968   7.809 -0.0935 -0.0160  0.1231
  778POPS   C4B11158   5.653   8.184   8.100  0.3312 -0.1215 -0.0114
  779POPS   CNO11159   4.532  12.119   5.675  0.0806 -0.3390  0.2009
  779POPS   PO411160   4.320  12.304   5.985 -0.1989  0.2179 -0.0683
  779POPS   GL111161   4.414  12.286   6.368  0.1872 -0.2644 -0.0062
  779POPS   GL211162   4.433  12.700   6.398  0.0614  0.3973 -0.1708
  779POPS   C1A11163   4.704  12.337   6.804  0.0910 -0.1486 -0.0740
  779POPS   D2A11164   4.840  12.683   7.029  0.0337  0.0401  0.2411
  779POPS   C3A11165   4.893  12.759   7.539  0.0325 -0.3228  0.1110
  779POPS   C4A11166   5.187  12.737   7.824 -0.3422  0.0824  0.0321
  779POPS   C1B11167   4.411  12.830   6.853  0.2014  0.1086 -0.5208
  779POPS   C2B11168   4.540  13.032   7.212  0.2057  0.1859  0.2040
  779POPS   C3B11169   4.565  13.187   7.688  0.0509  0.0666 -0.2419
  779POPS   C4B11170   4.464  13.171   8.079 -0.1268 -0.0160  0.0969
  780POPS   CNO11171  14.840  11.380   5.654  0.0110 -0.1168 -0.2318
  780POPS   PO411172  14.867  11.551   5.999  0.2990  0.0722 -0.2473
  780POPS   GL111173  14.925  11.455   6.328 -0.2717 -0.0300 -0.4048
  780POPS   GL211174  14.945  11.200   6.402 -0.0424 -0.3216 -0.4273
  780POPS   C1A11175  14.966  11.483   6.790  0.0500  0.0116 -0.1992
  780POPS   D2A11176  14.959  11.381   7.169  0.1432  0.0815  0.1131
  780POPS   C3A11177  15.002  11.556   7.548 -0.0474  0.0402 -0.0577
  780POPS   C4A11178  15.072  11.721   7.879 -0.1817 -0.0071 -0.0347
  780POPS   C1B11179  14.938  11.006   6.693 -0.0021 -0.0887 -0.2552
  780POPS   C2B11180  14.897  10.935   7.012 -0.0988  0.0766 -0.1146
  780POPS   C3B11181  14.906  10.981   7.465 -0.1769  0.0463  0.0271
  780POPS   C4B11182  15.076  10.868   7.826  0.0094  0.0145 -0.0989
  781POPS   CNO11183   0.050   7.003   6.275  0.1317  0.1437  0.0800
  781POPS   PO411184   0.441   7.237   6.228 -0.0376 -0.0000  0.0544
  781POPS   GL111185   0.291   7.409   6.591 -0.1162 -0.0606 -0.2991
  781POPS   GL211186   0.461   7.534   6.838 -0.2658 -0.1433 -0.3834
  781POPS   C1A11187   0.081   7.333   7.043  0.0247 -0.0068  0.0676
  781POPS   D2A11188  -0.075   7.315   7.463  0.0825  0.1038  0.3626
  781POPS   C3A11189  -0.171   7.499   7.895  0.0569 -0.0439  0.0972
  781POPS   C4A11190  -0.485   7.691   8.029 -0.2014  0.4357  0.2426
  781POPS   C1B11191   0.437   7.549   7.282  0.0300  0.0966 -0.0378
  781POPS   C2B11192   0.305   7.576   7.702 -0.1834 -0.0707 -0.0450
  781POPS   C3B11193   0.265   7.598   8.104 -0.0862  0.1221  0.0825
  781POPS   C4B11194   0.226   7.426   8.544 -0.4789  0.4732 -0.3331
  782POPS   CNO11195   2.622   9.521   6.262  0.0906  0.1883  0.0504
  782POPS   PO411196   2.832   9.240   6.058 -0.0579  0.3328 -0.0941
  782POPS   GL111197   2.782   9.144   6.557 -0.0096 -0.1455 -0.2272
  782POPS   GL211198   2.506   9.121   6.703  0.1623 -0.0179  0.1214
  782POPS   C1A11199   2.978   9.187   7.072 -0.1663  0.1726  0.1334
  782POPS   D2A11200   3.086   9.282   7.534 -0.1669  0.2511  0.0070
  782POPS   C3A11201   3.310   9.028   7.724  0.0717 -0.1151 -0.0209
  782POPS   C4A11202   3.477   8.644   7.965  0.0568  0.3252  0.1601
  782POPS   C1B11203   2.514   9.305   7.118  0.0978 -0.0591  0.0196
  782POPS   C2B11204   2.489   9.364   7.532 -0.0475  0.0994  0.0539
  782POPS   C3B11205   2.242   9.426   7.858 -0.1107 -0.0058  0.1518
  782POPS   C4B11206   2.122   9.332   8.339 -0.0112 -0.2143  0.0727
  783POPS   CNO11207   7.972   8.443   5.874 -0.0133  0.0557  0.2781
  783POPS   PO411208   7.733   8.587   6.050  0.0809 -0.0993 -0.1695
  783POPS   GL111209   7.629   8.836   6.376  0.2117  0.1216  0.1198
  783POPS   GL211210   7.384   8.685   6.615 -0.0904 -0.2911 -0.0884
  783POPS   C1A11211   7.835   8.889   6.760  0.1410  0.0328 -0.3287
  783POPS   D2A11212   8.108   8.849   7.071  0.1514  0.0231  0.0328
  783POPS   C3A11213   8.262   9.067   7.428  0.1148  0.0172  0.0421
  783POPS   C4A11214   8.217   9.335   7.811  0.2650 -0.1568  0.3370
  783POPS   C1B11215   7.222   8.851   6.977 -0.1865  0.0362  0.0079
  783POPS   C2B11216   7.290   8.934   7.345 -0.0071  0.1806 -0.0806
  783POPS   C3B11217   7.358   9.176   7.770  0.0554  0.1836 -0.1356
  783POPS   C4B11218   7.553   9.245   8.129  0.4817  0.2379  0.1614
  784POPS   CNO11219   0.793   9.905   6.230  0.2735 -0.4017 -0.1506
  784POPS   PO411220   0.992   9.634   6.062  0.0379  0.1048  0.1935
  784POPS   GL111221   0.996   9.415   6.460 -0.1590  0.0507 -0.0092
  784POPS   GL211222   1.314   9.520   6.505  0.0435  0.0103  0.0407
  784POPS   C1A11223   0.905   9.644   6.749  0.1303 -0.0982  0.1527
  784POPS   D2A11224   0.853   9.724   7.118  0.3248 -0.1302  0.0233
  784POPS   C3A11225   0.894   9.542   7.481 -0.2972 -0.1299 -0.0829
  784POPS   C4A11226   0.860   9.321   7.885  0.1847  0.0486 -0.1098
  784POPS   C1B11227   1.401   9.747   6.820  0.0014  0.2879 -0.1037
  784POPS   C2B11228   1.444   9.696   7.280  0.2278 -0.0085  0.2310
  784POPS   C3B11229   1.375   9.823   7.655  0.1127  0.2367 -0.2490
  784POPS   C4B11230   1.302   9.556   8.023 -0.2900 -0.0398  0.1682
  785POPS   CNO11231  13.313   5.058   6.813  0.0649 -0.2533 -0.1583
  785POPS   PO411232  12.848   5.064   6.664 -0.1429 -0.1396 -0.2082
  785POPS   GL111233  12.928   4.845   7.126 -0.2205 -0.1637  0.0288
  785POPS   GL211234  13.266   4.733   7.199 -0.0357  0.0260  0.0239
  785POPS   C1A11235  12.758   4.978   7.472 -0.1302  0.2712  0.1230
  785POPS   D2A11236  12.736   4.914   7.867 -0.4384 -0.4448 -0.1342
  785POPS   C3A11237  12.303   4.852   7.893  0.1652 -0.0313  0.1117
  785POPS   C4A11238  11.966   5.069   8.228 -0.1048  0.0222 -0.0748
  785POPS   C1B11239  13.228   4.830   7.702 -0.0048 -0.1357  0.0980
  785POPS   C2B11240  13.091   4.751   8.174  0.0238 -0.0752  0.0533
  785POPS   C3B11241  13.148   4.704   8.568  0.0515 -0.2665 -0.3721
  785POPS   C4B11242  13.346   4.927   8.887  0.0213  0.1805 -0.3335
  786POPS   CNO11243  14.558   7.415   6.231  0.0986  0.0566 -0.0455
  786POPS   PO411244  14.352   7.710   6.205  0.3571  0.1852  0.2683
  786POPS   GL111245  14.266   7.957   6.541 -0.1134  0.2632  0.0619
  786POPS   GL211246  14.241   8.188   6.442  0.1109 -0.1527 -0.2108
  786POPS   C1A11247  14.291   8.097   6.977 -0.2362 -0.3389 -0.3347
  786POPS   D2A11248  14.005   8.109   7.383  0.2391  0.2171  0.1043
  786POPS   C3A11249  14.250   7.997   7.780  0.1059  0.0217  0.3016
  786POPS   C4A11250  14.692   7.965   7.878  0.2658  0.1115  0.1236
  786POPS   C1B11251  14.664   8.273   6.640  0.0473  0.0318 -0.1857
  786POPS   C2B11252  14.853   8.388   7.055 -0.0498  0.2286 -0.0232
  786POPS   C3B11253  14.954   8.333   7.551 -0.2111  0.2634 -0.0914
  786POPS   C4B11254  15.077   8.295   7.982 -0.0681  0.2007  0.2302
  787POPS   CNO11255  17.237  12.300   5.644 -0.0700  0.2646  0.1277
  787POPS   PO411256  17.023  12.425   5.997  0.0647 -0.1091  0.1597
  787POPS   GL111257  16.887  12.357   6.485  0.1275 -0.0338 -0.0704
  787POPS   GL211258  16.508  12.356   6.553  0.1512  0.2104  0.1270
  787POPS   C1A11259  16.899  12.249   6.894  0.1753  0.2736  0.2961
  787POPS   D2A11260  17.171  12.081   7.261 -0.1204  0.1452  0.1232
  787POPS   C3A11261  17.063  12.110   7.700 -0.1679  0.0984  0.2078
  787POPS   C4A11262  17.234  11.984   8.100  0.1446  0.3225 -0.1061
  787POPS   C1B11263  16.475  12.528   6.983 -0.0163  0.1502  0.0643
  787POPS   C2B11264  16.289  12.427   7.456 -0.2897 -0.0928 -0.1512
  787POPS   C3B11265  16.316  12.345   7.926  0.0596  0.1008 -0.2468
  787POPS   C4B11266  16.186  12.158   8.336  0.2548  0.1789  0.0816
  788POPS   CNO11267   7.333  10.698   6.134 -0.0142 -0.2332 -0.0210
  788POPS   PO411268   7.425  10.291   6.198  0.1746 -0.1345  0.4205
  788POPS   GL111269   7.174  10.372   6.495  0.0951  0.0065 -0.2005
  788POPS   GL211270   6.968  10.101   6.477 -0.3273  0.2477  0.3137
  788POPS   C1A11271   7.309  10.416   6.946  0.1089 -0.1176  0.1197
  788POPS   D2A11272   7.398  10.403   7.373 -0.0350  0.0166  0.0286
  788POPS   C3A11273   7.405   9.987   7.574 -0.2719  0.1138  0.1729
  788POPS   C4A11274   7.139   9.664   7.543 -0.0917 -0.3493 -0.2024
  788POPS   C1B11275   6.913  10.104   6.935 -0.1529  0.1326  0.0754
  788POPS   C2B11276   6.947  10.138   7.372  0.2737  0.1534 -0.1498
  788POPS   C3B11277   6.957  10.063   7.882 -0.2272  0.0195 -0.0085
  788POPS   C4B11278   7.220  10.173   8.300  0.2434 -0.0842  0.0169
  789POPS   CNO11279  13.727   6.535   5.827 -0.0928 -0.0770 -0.1078
  789POPS   PO411280  14.067   6.714   6.112  0.1729 -0.0795 -0.1723
  789POPS   GL111281  13.968   6.555   6.541  0.2895  0.2046  0.0690
  789POPS   GL211282  13.755   6.338   6.540 -0.2538 -0.1902  0.0350
  789POPS   C1A11283  14.107   6.646   6.993 -0.2910  0.0292  0.0169
  789POPS   D2A11284  14.174   6.888   7.371  0.1711 -0.0165 -0.4494
  789POPS   C3A11285  14.228   7.253   7.575  0.0244 -0.1713  0.3644
  789POPS   C4A11286  14.179   7.440   7.991  0.0789 -0.1511  0.1733
  789POPS   C1B11287  13.778   6.269   6.957  0.0130  0.1786 -0.3091
  789POPS   C2B11288  13.890   6.478   7.357 -0.1664 -0.0435 -0.0826
  789POPS   C3B11289  13.955   6.567   7.743  0.0301 -0.3554  0.0936
  789POPS   C4B11290  14.216   6.405   8.092 -0.0763 -0.1750 -0.0609
  790POPS   CNO11291   8.492   7.549   5.734 -0.0386 -0.1431 -0.1583
  790POPS   PO411292   8.696   7.583   6.123 -0.1095  0.2920  0.1576
  790POPS   GL111293   8.648   7.799   6.519  0.2831  0.1743 -0.0797
  790POPS   GL211294   8.413   7.856   6.626 -0.0663  0.1017  0.1205
  790POPS   C1A11295   8.674   7.833   7.043  0.1296  0.0934  0.1121
  790POPS   D2A11296   8.781   7.918   7.549 -0.1467  0.1942 -0.1323
  790POPS   C3A11297   9.007   8.151   7.829 -0.0081 -0.1204  0.0585
  790POPS   C4A11298   9.189   8.548   8.119 -0.3252  0.0234  0.2771
  790POPS   C1B11299   8.165   8.169   6.767 -0.4184  0.4929  0.0355
  790POPS   C2B11300   8.055   8.331   7.157 -0.2629 -0.1228  0.1074
  790POPS   C3B11301   8.058   8.607   7.547 -0.1336  0.2943 -0.0061
  790POPS   C4B11302   8.314   8.703   7.900 -0.2330 -0.2607 -0.2384
  791POPS   CNO11303   1.676  13.676   6.205  0.1458 -0.1369  0.4035
  791POPS   PO411304   2.024  13.621   6.081  0.0723  0.1612  0.1445
  791POPS   GL111305   2.145  13.785   6.379 -0.0234 -0.0512 -0.3175
  791POPS   GL211306   2.531  13.756   6.431 -0.0955  0.0923 -0.2371
  791POPS   C1A11307   2.138  14.161   6.579  0.0635  0.0435 -0.3381
  791POPS   D2A11308   1.996  14.564   6.372 -0.0207 -0.1480 -0.4086
  791POPS   C3A11309   1.970  15.097   6.519  0.3219  0.0980  0.2428
  791POPS   C4A11310   2.209  15.452   6.639 -0.3014  0.2077  0.2757
  791POPS   C1B11311   2.409  13.840   6.840 -0.0727  0.1283 -0.1582
  791POPS   C2B11312   2.398  13.929   7.192  0.1452 -0.3256 -0.0326
  791POPS   C3B11313   2.465  13.988   7.566 -0.0851  0.1661  0.1166
  791POPS   C4B11314   2.320  14.186   7.860  0.0430 -0.3511  0.1230
  792POPS   CNO11315   6.050  14.323   5.713  0.1280 -0.2416  0.1371
  792POPS   PO411316   6.432  14.267   6.000  0.2445  0.0253 -0.2916
  792POPS   GL111317   6.447  14.260   6.414  0.0943 -0.1012  0.3112
  792POPS   GL211318   6.242  14.443   6.475  0.0899  0.0363 -0.0085
  792POPS   C1A11319   6.654  14.067   6.709  0.2740 -0.0370  0.0152
  792POPS   D2A11320   6.796  14.250   6.995 -0.2154 -0.2061  0.0406
  792POPS   C3A11321   6.881  14.008   7.341  0.0682  0.0134 -0.2027
  792POPS   C4A11322   6.859  13.826   7.783 -0.2511  0.0499  0.2551
  792POPS   C1B11323   6.361  14.495   6.915 -0.1872  0.1129 -0.1410
  792POPS   C2B11324   6.523  14.530   7.318 -0.0874  0.2222  0.2109
  792POPS   C3B11325   6.585  14.448   7.780 -0.1632 -0.0975  0.2082
  792POPS   C4B11326   6.627  14.501   8.155 -0.1906  0.1445  0.0851
  793POPS   CNO11327  17.643  13.199   6.532 -0.1074  0.0551  0.0491
  793POPS   PO411328  17.385  13.187   6.244  0.2281 -0.0081 -0.2040
  793POPS   GL111329  17.126  13.177   6.689 -0.2282 -0.1189  0.3547
  793POPS   GL211330  16.731  13.215   6.619  0.2513  0.1075 -0.1501
  793POPS   C1A11331  17.169  13.267   7.160  0.0362  0.1767 -0.1471
  793POPS   D2A11332  17.504  13.292   7.472 -0.0762  0.6280  0.0008
  793POPS   C3A11333  17.539  13.002   7.886 -0.0103  0.1322 -0.0055
  793POPS   C4A11334  17.231  12.666   8.092 -0.2120 -0.3578  0.0831
  793POPS   C1B11335  16.543  13.067   6.979 -0.2211 -0.0117  0.2318
  793POPS   C2B11336  16.476  12.964   7.357  0.1091  0.0429 -0.0192
  793POPS   C3B11337  16.358  12.838   7.770 -0.0689  0.0485  0.0218
  793POPS   C4B11338  16.027  12.706   8.174 -0.2257 -0.1278  0.0281
  794POPS   CNO11339  16.865  17.451   5.822 -0.0747 -0.0476  0.0552
  794POPS   PO411340  17.269  17.480   6.042  0.0332  0.1292  0.1273
  794POPS   GL111341  17.328  17.470   6.416 -0.4895  0.0425 -0.4851
  794POPS   GL211342  17.350  17.185   6.477 -0.2981  0.1954  0.0141
  794POPS   C1A11343  17.170  17.772   6.825 -0.0379 -0.0747 -0.0794
  794POPS   D2A11344  17.089  17.707   7.210 -0.1724 -0.0630  0.0955
  794POPS   C3A11345  17.243  17.766   7.607  0.0568 -0.1182  0.2872
  794POPS   C4A11346  17.327  17.942   7.986  0.0753  0.0284 -0.0837
  794POPS   C1B11347  17.177  17.261   6.977  0.0257  0.0727  0.0114
  794POPS   C2B11348  17.140  17.222   7.349  0.1457  0.1187  0.0039
  794POPS   C3B11349  16.765  17.103   7.643  0.1712 -0.1158 -0.1700
  794POPS   C4B11350  16.705  17.179   8.132  0.2617 -0.2412  0.1780
  795POPS   CNO11351  16.604   4.191   6.379  0.0597 -0.1957 -0.0373
  795POPS   PO411352  16.981   4.245   6.447 -0.0163 -0.4433 -0.0428
  795POPS   GL111353  16.821   4.288   6.885  0.2505 -0.1702 -0.0497
  795POPS   GL211354  16.485   4.300   7.043  0.2581 -0.1379  0.0953
  795POPS   C1A11355  16.992   4.235   7.290 -0.1450 -0.1565  0.0747
  795POPS   D2A11356  17.272   4.451   7.622 -0.0439  0.0984 -0.0848
  795POPS   C3A11357  17.245   4.395   7.977 -0.1958 -0.2110 -0.0579
  795POPS   C4A11358  17.427   4.361   8.440 -0.2358 -0.1525  0.2386
  795POPS   C1B11359  16.438   4.377   7.481 -0.1553 -0.1492 -0.2274
  795POPS   C2B11360  16.341   4.577   7.819 -0.2858 -0.1152 -0.1081
  795POPS   C3B11361  16.529   4.592   8.231 -0.1896 -0.2523 -0.3636
  795POPS   C4B11362  16.215   4.566   8.689  0.0126  0.1120 -0.0015
  796POPS   CNO11363  10.931   7.314   6.555  0.1950 -0.0907 -0.2627
  796POPS   PO411364  11.309   7.167   6.734  0.2800  0.1795  0.2999
  796POPS   GL111365  11.219   7.508   7.061 -0.0403 -0.0562 -0.1384
  796POPS   GL211366  11.171   7.878   6.946  0.0188 -0.0547  0.0259
  796POPS   C1A11367  11.084   7.690   7.354 -0.0827 -0.0797 -0.2383
  796POPS   D2A11368  11.139   7.805   7.746  0.0755 -0.1893 -0.1648
  796POPS   C3A11369  11.001   7.637   8.106  0.1840 -0.0296 -0.3647
  796POPS   C4A11370  10.668   7.456   8.381 -0.2067 -0.1739 -0.0024
  796POPS   C1B11371  11.229   8.193   7.305  0.0515 -0.2140 -0.1788
  796POPS   C2B11372  11.496   8.563   7.554  0.3175  0.0202 -0.1029
  796POPS   C3B11373  11.615   8.747   7.931 -0.3849 -0.0439 -0.0962
  796POPS   C4B11374  12.028   8.871   8.166 -0.0812 -0.1734  0.2921
  797POPS   CNO11375   3.733   0.320   6.529 -0.2319  0.1739  0.0941
  797POPS   PO411376   3.443   0.675   6.631 -0.1490 -0.0137  0.0490
  797POPS   GL111377   3.566   0.987   6.994 -0.1163  0.3654 -0.0745
  797POPS   GL211378   3.226   1.008   7.196  0.2756 -0.0116  0.0717
  797POPS   C1A11379   3.790   0.878   7.430 -0.0979  0.0493 -0.3729
  797POPS   D2A11380   3.814   0.849   7.822  0.0850 -0.0326  0.1165
  797POPS   C3A11381   3.464   0.691   7.894 -0.1645  0.2131 -0.1159
  797POPS   C4A11382   3.147   1.050   7.830 -0.1931 -0.0933  0.4493
  797POPS   C1B11383   3.457   1.272   7.483  0.0691  0.2902 -0.1762
  797POPS   C2B11384   3.607   1.311   7.854 -0.0685  0.0813 -0.1278
  797POPS   C3B11385   3.683   1.124   8.285  0.0301 -0.1919  0.0987
  797POPS   C4B11386   3.524   0.671   8.376 -0.1752 -0.1462 -0.0239
  798POPS   CNO11387   3.250   1.943   6.815 -0.2386 -0.2541 -0.0612
  798POPS   PO411388   3.552   1.758   6.644 -0.2264  0.2164 -0.2522
  798POPS   GL111389   3.782   1.836   7.032  0.3509  0.4222  0.0603
  798POPS   GL211390   3.893   1.565   7.112  0.1021 -0.0869 -0.0976
  798POPS   C1A11391   4.053   2.074   7.329 -0.3437  0.0848  0.2701
  798POPS   D2A11392   4.109   2.205   7.673 -0.1254  0.0317 -0.0816
  798POPS   C3A11393   4.398   2.294   7.977 -0.0802 -0.3273 -0.0720
  798POPS   C4A11394   4.604   2.134   8.422  0.0932 -0.0963  0.3674
  798POPS   C1B11395   3.794   1.750   7.574  0.5263  0.0038  0.3021
  798POPS   C2B11396   4.075   1.794   7.959 -0.0373 -0.1005 -0.1774
  798POPS   C3B11397   4.462   1.823   8.068 -0.0835  0.1904  0.2679
  798POPS   C4B11398   4.806   1.759   7.771 -0.1821  0.0593  0.2477
  799POPS   CNO11399   6.572   2.104   5.684  0.1179 -0.0707  0.0989
  799POPS   PO411400   6.157   2.178   6.012 -0.2605 -0.0436 -0.0326
  799POPS   GL111401   6.085   1.988   6.387  0.2802  0.2450 -0.1868
  799POPS   GL211402   6.376   2.000   6.574  0.1870 -0.2029  0.1372
  799POPS   C1A11403   5.882   1.731   6.651  0.0029 -0.0939  0.2480
  799POPS   D2A11404   5.779   1.419   6.922  0.0863  0.1225 -0.1138
  799POPS   C3A11405   5.561   1.453   7.247  0.0940 -0.1454  0.0077
  799POPS   C4A11406   5.252   1.488   7.592 -0.1378 -0.0205 -0.1275
  799POPS   C1B11407   6.446   1.712   6.907  0.0129  0.0864  0.0625
  799POPS   C2B11408   6.535   1.545   7.254  0.0768 -0.3658  0.1581
  799POPS   C3B11409   6.515   1.487   7.711  0.2055  0.1038 -0.0592
  799POPS   C4B11410   6.735   1.157   7.997  0.1720  0.0911  0.2232
  800POPS   CNO11411  15.836   8.313   6.026 -0.2733  0.1654 -0.0845
  800POPS   PO411412  15.619   8.006   5.787 -0.0346  0.2261 -0.0135
  800POPS   GL111413  15.548   7.908   6.244  0.0293 -0.2323  0.1711
  800POPS   GL211414  15.812   7.861   6.425  0.2809 -0.1273  0.5564
  800POPS   C1A11415  15.252   8.013   6.562 -0.1711 -0.1898  0.0749
  800POPS   D2A11416  14.970   7.906   6.906 -0.1589 -0.1216  0.3328
  800POPS   C3A11417  14.635   7.721   6.952 -0.0260 -0.0522  0.2483
  800POPS   C4A11418  14.518   7.238   7.053 -0.2761 -0.1503  0.0828
  800POPS   C1B11419  15.549   7.581   6.605  0.2213 -0.2093 -0.2789
  800POPS   C2B11420  15.192   7.394   6.907 -0.3608 -0.0113  0.1623
  800POPS   C3B11421  14.936   7.506   7.311 -0.0838  0.1544  0.1647
  800POPS   C4B11422  14.675   7.358   7.553 -0.0321 -0.1217  0.0559
  801POPS   CNO11423   2.353   8.355   5.777  0.0439 -0.3625 -0.3231
  801POPS   PO411424   2.122   8.639   5.994  0.0880 -0.1827 -0.0165
  801POPS   GL111425   2.077   8.568   6.388  0.2430 -0.1746  0.1316
  801POPS   GL211426   2.034   8.865   6.626 -0.2231 -0.1478  0.0296
  801POPS   C1A11427   2.255   8.350   6.689  0.1695 -0.3896  0.3431
  801POPS   D2A11428   2.487   7.998   6.799  0.3406  0.0961  0.1392
  801POPS   C3A11429   2.314   7.773   7.156 -0.0682  0.1689  0.0023
  801POPS   C4A11430   2.535   7.843   7.440 -0.0934  0.0717  0.3658
  801POPS   C1B11431   2.180   8.897   7.086  0.2770  0.0041  0.0271
  801POPS   C2B11432   2.111   9.059   7.519 -0.1056 -0.0068 -0.2876
  801POPS   C3B11433   2.172   8.937   7.929  0.0669 -0.1482 -0.0835
  801POPS   C4B11434   2.085   8.707   8.280  0.0304 -0.2952 -0.0863
  802POPS   CNO11435  15.062  17.043   5.783  0.2817  0.1713  0.1589
  802POPS   PO411436  15.019  17.510   5.766 -0.2745  0.0447  0.0564
  802POPS   GL111437  15.086  17.451   6.253  0.1704  0.1189  0.0910
  802POPS   GL211438  15.331  17.241   6.482 -0.4166  0.1766 -0.0063
  802POPS   C1A11439  15.094  17.819   6.538  0.0744 -0.0137 -0.2865
  802POPS   D2A11440  14.939  17.742   6.884 -0.0080  0.2347 -0.2299
  802POPS   C3A11441  15.035  17.757   7.350  0.0496  0.1501 -0.0622
  802POPS   C4A11442  15.241  17.574   7.662 -0.1127 -0.0150  0.1578
  802POPS   C1B11443  15.120  17.215   6.796  0.0573  0.2655  0.3291
  802POPS   C2B11444  15.217  17.257   7.250  0.1958 -0.0041  0.2285
  802POPS   C3B11445  15.394  17.102   7.607  0.1936 -0.1265  0.1028
  802POPS   C4B11446  15.256  17.063   8.086 -0.2184  0.4034  0.2496
  803POPS   CNO11447   8.378   7.222   6.146 -0.0456 -0.0998 -0.0295
  803POPS   PO411448   7.969   7.230   6.126 -0.0098 -0.3427  0.1178
  803POPS   GL111449   8.165   7.421   6.560  0.2665  0.5653 -0.0088
  803POPS   GL211450   8.493   7.286   6.632 -0.2751  0.1472  0.1425
  803POPS   C1A11451   8.182   7.656   6.941 -0.0344  0.0738 -0.0868
  803POPS   D2A11452   8.290   7.912   7.332 -0.2295 -0.1168  0.3359
  803POPS   C3A11453   8.057   8.049   7.576  0.2280  0.0971 -0.0154
  803POPS   C4A11454   7.947   8.290   7.959 -0.0408  0.1555 -0.0571
  803POPS   C1B11455   8.671   7.304   7.100  0.1003  0.2611 -0.0376
  803POPS   C2B11456   8.596   7.445   7.532  0.1124 -0.0442 -0.0348
  803POPS   C3B11457   8.641   7.667   7.930 -0.0007 -0.0174 -0.1549
  803POPS   C4B11458   8.421   7.719   8.305  0.0049 -0.0269  0.1848
  804POPS   CNO11459  14.878  16.617   5.893 -0.1313  0.0530 -0.1352
  804POPS   PO411460  14.636  16.418   6.219 -0.1703  0.0307  0.3048
  804POPS   GL111461  14.804  16.658   6.478 -0.2672  0.0482 -0.1239
  804POPS   GL211462  14.978  16.968   6.335  0.1115 -0.0905 -0.0932
  804POPS   C1A11463  14.849  16.724   6.952 -0.2866 -0.0532  0.0618
  804POPS   D2A11464  14.985  16.683   7.397  0.1026 -0.5177  0.2577
  804POPS   C3A11465  14.969  16.927   7.652  0.1586  0.2055  0.0566
  804POPS   C4A11466  14.574  16.928   7.705 -0.1050  0.0474  0.0743
  804POPS   C1B11467  15.262  16.728   6.671 -0.0786  0.1150 -0.0551
  804POPS   C2B11468  15.385  16.774   7.099  0.0886 -0.0907 -0.1827
  804POPS   C3B11469  15.552  16.641   7.501 -0.0557 -0.1089 -0.1114
  804POPS   C4B11470  15.986  16.429   7.650 -0.2272 -0.1405 -0.0005
  805POPS   CNO11471   0.946  14.296   5.998 -0.1270 -0.0355  0.0686
  805POPS   PO411472   0.880  14.741   6.012  0.4027 -0.0855 -0.2223
  805POPS   GL111473   0.724  14.742   6.422  0.0387 -0.0827 -0.1505
  805POPS   GL211474   0.721  14.423   6.502  0.0918 -0.2060 -0.0699
  805POPS   C1A11475   0.471  14.801   6.782 -0.1373  0.2071  0.0108
  805POPS   D2A11476   0.417  14.984   7.199  0.1220  0.0594  0.4201
  805POPS   C3A11477   0.553  15.293   7.584 -0.0485  0.0715  0.3203
  805POPS   C4A11478   0.655  15.405   7.991  0.1353 -0.1544 -0.2878
  805POPS   C1B11479   0.606  14.343   6.955 -0.1618  0.0442  0.0848
  805POPS   C2B11480   0.527  14.501   7.319 -0.2056 -0.0483  0.0089
  805POPS   C3B11481   0.363  14.746   7.638 -0.0059 -0.0578 -0.2850
  805POPS   C4B11482   0.301  14.888   7.959 -0.0235  0.0197 -0.1668
  806POPS   CNO11483   0.376   0.272   5.790  0.1123 -0.0328 -0.0912
  806POPS   PO411484   0.737   0.056   5.747 -0.1863 -0.0462  0.0266
  806POPS   GL111485   0.713   0.181   6.140 -0.1032  0.0124 -0.1297
  806POPS   GL211486   0.440   0.281   6.326  0.2982  0.0653 -0.0116
  806POPS   C1A11487   0.876   0.342   6.506 -0.0553  0.2536  0.2006
  806POPS   D2A11488   0.863   0.322   6.922  0.0688 -0.1004  0.2070
  806POPS   C3A11489   0.841   0.167   7.342  0.2088  0.2624 -0.1773
  806POPS   C4A11490   0.905   0.149   7.827  0.0213  0.1001 -0.0016
  806POPS   C1B11491   0.428   0.130   6.687 -0.0099 -0.1851 -0.5142
  806POPS   C2B11492   0.460  -0.093   7.034  0.2924 -0.0497  0.0272
  806POPS   C3B11493   0.821  -0.362   7.218  0.0185  0.0770 -0.0196
  806POPS   C4B11494   1.217  -0.177   7.392 -0.0015 -0.0659  0.0339
  807POPS   CNO11495   5.936  17.227   6.394  0.2269  0.1241  0.1655
  807POPS   PO411496   5.924  16.853   6.145  0.0043 -0.3025  0.1704
  807POPS   GL111497   5.974  16.415   6.422 -0.1300 -0.1041 -0.4325
  807POPS   GL211498   5.771  16.148   6.565  0.3852 -0.1229 -0.0522
  807POPS   C1A11499   6.265  16.299   6.734  0.1199 -0.0150 -0.0595
  807POPS   D2A11500   6.511  16.427   7.109 -0.1687  0.0620  0.1061
  807POPS   C3A11501   6.485  16.684   7.415 -0.1672 -0.0371  0.0263
  807POPS   C4A11502   6.711  17.009   7.676 -0.2254 -0.0185 -0.1977
  807POPS   C1B11503   5.978  15.900   6.864  0.1064 -0.1136 -0.2971
  807POPS   C2B11504   6.203  15.814   7.217  0.2873  0.1795 -0.0939
  807POPS   C3B11505   6.444  16.068   7.535 -0.1842 -0.0323 -0.1402
  807POPS   C4B11506   6.767  16.414   7.793  0.0404  0.3801  0.0534
  808POPS   CNO11507   2.322   6.001   6.745  0.2392 -0.0455  0.1619
  808POPS   PO411508   1.983   6.085   6.410  0.1971 -0.2227  0.0065
  808POPS   GL111509   1.864   6.318   6.805 -0.0246 -0.1527 -0.0411
  808POPS   GL211510   2.206   6.402   6.933 -0.1380 -0.0560 -0.3568
  808POPS   C1A11511   1.844   6.634   7.200 -0.0823 -0.0730 -0.1469
  808POPS   D2A11512   2.051   6.739   7.592  0.2405  0.0841 -0.0618
  808POPS   C3A11513   2.026   7.006   7.902 -0.1307 -0.0935 -0.3761
  808POPS   C4A11514   2.041   7.291   8.271  0.0101  0.0503  0.0029
  808POPS   C1B11515   2.141   6.233   7.307 -0.0468 -0.1313 -0.0182
  808POPS   C2B11516   2.021   6.275   7.700  0.2604 -0.0072 -0.0425
  808POPS   C3B11517   1.830   6.410   8.152  0.0145  0.0436  0.0046
  808POPS   C4B11518   1.592   6.376   8.575 -0.0849 -0.1522 -0.1062
  809POPS   CNO11519   1.774  11.799   5.813  0.2107 -0.0722  0.1818
  809POPS   PO411520   1.453  11.806   5.993 -0.0683  0.0530 -0.2395
  809POPS   GL111521   1.385  11.833   6.477  0.1612 -0.2492 -0.3596
  809POPS   GL211522   1.530  12.069   6.635  0.0698 -0.2708  0.0034
  809POPS   C1A11523   1.163  11.642   6.781  0.1102 -0.1892 -0.0014
  809POPS   D2A11524   0.990  11.862   7.136 -0.0381 -0.2418 -0.2985
  809POPS   C3A11525   0.886  11.921   7.525 -0.0621 -0.0060 -0.2796
  809POPS   C4A11526   0.954  12.148   7.913  0.1438 -0.1214  0.0314
  809POPS   C1B11527   1.549  11.850   7.017 -0.0463 -0.4831 -0.0474
  809POPS   C2B11528   1.381  11.762   7.382 -0.1930 -0.1861 -0.2483
  809POPS   C3B11529   1.310  11.539   7.691 -0.0439  0.1284 -0.2354
  809POPS   C4B11530   1.194  11.665   7.989 -0.1006 -0.1617  0.2237
  810POPS   CNO11531   1.334   4.732   6.342 -0.1129  0.1108 -0.1030
  810POPS   PO411532   1.552   5.089   6.333  0.1506 -0.0600 -0.0569
  810POPS   GL111533   1.775   5.337   6.665 -0.1668 -0.0911 -0.0518
  810POPS   GL211534   1.784   5.558   6.683  0.0933 -0.0862 -0.3610
  810POPS   C1A11535   1.892   5.291   7.100  0.1107 -0.2670  0.2679
  810POPS   D2A11536   1.963   5.130   7.434 -0.1651 -0.2639 -0.3317
  810POPS   C3A11537   1.877   5.342   7.693  0.1580 -0.0055  0.0802
  810POPS   C4A11538   1.695   5.547   8.138  0.5597 -0.1576  0.2626
  810POPS   C1B11539   1.943   5.837   7.002 -0.1454  0.4081 -0.0473
  810POPS   C2B11540   1.782   5.841   7.409  0.0369  0.2254 -0.0961
  810POPS   C3B11541   1.587   5.809   7.778  0.0755 -0.4393 -0.0884
  810POPS   C4B11542   1.446   6.162   7.962  0.2253  0.1864 -0.0882
  811POPS   CNO11543  15.420   0.842   6.052 -0.1448 -0.1860 -0.0032
  811POPS   PO411544  15.580   1.260   6.007  0.1234  0.2780  0.1975
  811POPS   GL111545  15.655   1.125   6.399 -0.0881 -0.0564  0.0590
  811POPS   GL211546  15.575   0.902   6.539 -0.2631  0.2089  0.0803
  811POPS   C1A11547  15.948   1.286   6.754 -0.0296  0.0187 -0.1808
  811POPS   D2A11548  16.383   1.104   6.851  0.0847 -0.0156 -0.0099
  811POPS   C3A11549  16.496   1.101   7.234 -0.0670  0.1463 -0.1448
  811POPS   C4A11550  16.518   0.975   7.653 -0.0199 -0.0034  0.2392
  811POPS   C1B11551  15.924   0.806   6.875 -0.0465  0.2159  0.2700
  811POPS   C2B11552  15.994   0.641   7.299  0.0278 -0.1775  0.1249
  811POPS   C3B11553  15.839   0.722   7.770 -0.0922  0.0660 -0.1573
  811POPS   C4B11554  15.938   0.467   8.163 -0.1026 -0.2545 -0.0145
  812YOPS   CNO11555   6.541  12.174   6.038 -0.1147  0.4185 -0.3732
  812YOPS   PO411556   6.115  12.129   6.079 -0.1696  0.2452  0.0172
  812YOPS   GL111557   6.243  12.157   6.447  0.0581 -0.0924  0.2636
  812YOPS   GL211558   6.477  12.311   6.579  0.0933  0.0373  0.2626
  812YOPS   C1A11559   6.262  12.043   6.955 -0.0074  0.2520 -0.3499
  812YOPS   D2A11560   6.415  11.993   7.385 -0.0101 -0.0203  0.0580
  812YOPS   C3A11561   6.637  11.717   7.675  0.1354 -0.2035 -0.1726
  812YOPS   C4A11562   6.661  11.843   8.119  0.1812  0.1711  0.4439
  812YOPS   C1B11563   6.599  12.494   7.007  0.0334 -0.1306 -0.1184
  812YOPS   C2B11564   6.882  12.763   7.209  0.0915 -0.1089 -0.0488
  812YOPS   D3B11565   7.071  13.063   7.443 -0.1003  0.1244 -0.2255
  812YOPS   C4B11566   7.073  13.486   7.420 -0.0130 -0.2816 -0.1283
  813YOPS   CNO11567   1.170  12.943   5.883  0.0953  0.0452  0.1537
  813YOPS   PO411568   1.219  13.101   6.319  0.1249 -0.1203 -0.1653
  813YOPS   GL111569   1.469  13.026   6.750 -0.0360 -0.3132 -0.1595
  813YOPS   GL211570   1.824  13.062   6.830  0.1478  0.0092  0.0296
  813YOPS   C1A11571   1.587  12.744   7.096 -0.7479 -0.3043  0.2425
  813YOPS   D2A11572   1.691  12.672   7.523 -0.2489 -0.0262 -0.2292
  813YOPS   C3A11573   1.700  12.506   7.935 -0.1109  0.1071 -0.1300
  813YOPS   C4A11574   1.572  12.627   8.394  0.3543  0.0058  0.0482
  813YOPS   C1B11575   1.715  13.176   7.245  0.0409  0.0104 -0.1505
  813YOPS   C2B11576   1.641  13.195   7.648 -0.1895 -0.3534 -0.0193
  813YOPS   D3B11577   1.599  13.490   7.928  0.0360 -0.0985 -0.1334
  813YOPS   C4B11578   1.846  13.571   8.271  0.4568 -0.1284  0.1208
  814YOPS   CNO11579   9.182  10.025   5.964  0.3114 -0.1793  0.0253
  814YOPS   PO411580   9.541  10.104   5.933 -0.5703 -0.2198 -0.1491
  814YOPS   GL111581   9.384   9.988   6.370 -0.3210 -0.1814 -0.0606
  814YOPS   GL211582   9.090  10.037   6.573  0.3935  0.1745  0.1338
  814YOPS   C1A11583   9.661   9.894   6.604  0.1791 -0.0527  0.1075
  814YOPS   D2A11584   9.763   9.814   7.024 -0.0841  0.1786  0.0865
  814YOPS   C3A11585   9.611   9.447   7.232  0.0393 -0.2164 -0.2693
  814YOPS   C4A11586   9.625   9.399   7.705 -0.0710  0.1422 -0.0757
  814YOPS   C1B11587   9.146  10.134   6.958  0.3463 -0.1900 -0.0079
  814YOPS   C2B11588   9.179  10.268   7.453  0.3928 -0.0679 -0.2454
  814YOPS   D3B11589   9.360  10.455   7.891  0.1206  0.1826 -0.2499
  814YOPS   C4B11590   9.050  10.553   8.211  0.0872 -0.0095  0.4901
  815YOPS   CNO11591  13.979   5.838   6.448 -0.1864 -0.1956  0.0452
  815YOPS   PO411592  13.911   5.523   6.559  0.2004 -0.0524  0.2748
  815YOPS   GL111593  13.775   5.284   6.892  0.1649  0.1692 -0.1095
  815YOPS   GL211594  13.791   5.056   6.719  0.1341 -0.1594 -0.3378
  815YOPS   C1A11595  13.516   5.260   7.299  0.1179 -0.2047 -0.3695
  815YOPS   D2A11596  13.478   5.318   7.747  0.0569  0.0676 -0.3023
  815YOPS   C3A11597  13.626   5.244   8.182 -0.0992  0.1025  0.2847
  815YOPS   C4A11598  13.566   4.886   8.386  0.0968  0.1845  0.0252
  815YOPS   C1B11599  13.766   4.845   7.153 -0.0505  0.2836  0.0975
  815YOPS   C2B11600  13.675   4.697   7.505  0.4741  0.0078 -0.2211
  815YOPS   D3B11601  13.641   4.687   7.948 -0.0184  0.3755 -0.0340
  815YOPS   C4B11602  13.630   4.329   8.241 -0.1250 -0.0193 -0.0088
  816YOPS   CNO11603   4.695  12.708   5.848  0.0634 -0.0567 -0.1824
  816YOPS   PO411604   4.866  13.119   6.023 -0.0638  0.4254  0.0176
  816YOPS   GL111605   5.007  13.063   6.383 -0.2319 -0.0710 -0.1299
  816YOPS   GL211606   4.760  13.014   6.585 -0.0806 -0.2150 -0.0446
  816YOPS   C1A11607   5.209  13.199   6.752  0.1341 -0.0776 -0.2079
  816YOPS   D2A11608   5.116  13.133   7.147 -0.1131 -0.1520  0.1480
  816YOPS   C3A11609   5.118  13.230   7.604 -0.0055  0.0249  0.1846
  816YOPS   C4A11610   5.098  13.243   8.086  0.1304  0.1212  0.0802
  816YOPS   C1B11611   4.727  13.376   6.859 -0.2536 -0.2022 -0.1048
  816YOPS   C2B11612   4.782  13.458   7.255  0.0463 -0.1360  0.1431
  816YOPS   D3B11613   4.971  13.729   7.666  0.0950  0.2799  0.3302
  816YOPS   C4B11614   5.432  13.531   7.795  0.0675  0.1507  0.3155
  817YOPS   CNO11615  12.358   0.312   5.628  0.0822  0.2169  0.2551
  817YOPS   PO411616  12.076   0.098   5.714  0.3208 -0.2506 -0.5224
  817YOPS   GL111617  12.092   0.359   6.058  0.1954  0.0908 -0.0227
  817YOPS   GL211618  12.448   0.396   6.216 -0.2102  0.0270  0.1763
  817YOPS   C1A11619  12.048   0.433   6.473  0.0400 -0.3823  0.0143
  817YOPS   D2A11620  11.776   0.476   6.881  0.0031  0.0913 -0.2849
  817YOPS   C3A11621  11.663   0.521   7.298 -0.3662  0.2000  0.1298
  817YOPS   C4A11622  11.478   0.729   7.597 -0.1829  0.2843  0.0550
  817YOPS   C1B11623  12.534   0.410   6.598 -0.2789 -0.3472 -0.0403
  817YOPS   C2B11624  12.641   0.369   6.939 -0.2291 -0.2937 -0.1823
  817YOPS   D3B11625  12.673   0.048   7.032 -0.0262 -0.1936 -0.1086
  817YOPS   C4B11626  12.643  -0.094   7.383  0.2181 -0.0304  0.0020
  818YOPS   CNO11627   9.707   8.842   5.600  0.2422 -0.0334  0.1752
  818YOPS   PO411628  10.144   8.772   5.799 -0.0385 -0.1029  0.2588
  818YOPS   GL111629  10.221   8.897   6.243  0.3091  0.1192  0.2229
  818YOPS   GL211630   9.948   8.795   6.414  0.0486 -0.4065  0.1653
  818YOPS   C1A11631  10.204   9.157   6.601 -0.1873  0.0078 -0.0952
  818YOPS   D2A11632  10.190   9.486   7.037  0.1554 -0.3579  0.0966
  818YOPS   C3A11633   9.956   9.722   7.477  0.1614 -0.1152 -0.0912
  818YOPS   C4A11634  10.102   9.978   7.802 -0.0209 -0.0531  0.0203
  818YOPS   C1B11635  10.049   8.640   6.847 -0.0030  0.1739  0.0517
  818YOPS   C2B11636   9.941   8.658   7.218 -0.3789  0.3309  0.0895
  818YOPS   D3B11637  10.061   8.589   7.619  0.1094 -0.0009  0.0253
  818YOPS   C4B11638  10.488   8.468   7.722  0.3128 -0.1682 -0.2082
  819YOPS   CNO11639   3.460   6.423   6.488 -0.1846 -0.1392  0.0676
  819YOPS   PO411640   3.408   6.855   6.388  0.3781 -0.1980  0.1713
  819YOPS   GL111641   3.150   6.886   6.849  0.0506  0.1918  0.1414
  819YOPS   GL211642   3.127   7.244   6.915  0.0781 -0.0098  0.0287
  819YOPS   C1A11643   2.854   6.973   7.213 -0.0957 -0.4552  0.1495
  819YOPS   D2A11644   2.691   6.922   7.685  0.1015  0.0559 -0.3602
  819YOPS   C3A11645   2.512   7.214   8.031  0.1599 -0.0800  0.4059
  819YOPS   C4A11646   2.549   7.483   8.465 -0.0614  0.0935 -0.4073
  819YOPS   C1B11647   3.186   7.453   7.316 -0.0071 -0.3037  0.2144
  819YOPS   C2B11648   3.245   7.477   7.756 -0.0438 -0.1814 -0.3667
  819YOPS   D3B11649   3.348   7.751   8.088  0.2184 -0.0310  0.3246
  819YOPS   C4B11650   2.985   7.772   8.411  0.0184 -0.1982  0.2041
  820YOPS   CNO11651   8.335   0.239   5.678 -0.1642 -0.0637  0.0837
  820YOPS   PO411652   8.096   0.331   6.053  0.0810  0.0642  0.2054
  820YOPS   GL111653   7.978   0.388   6.513 -0.2715 -0.0564  0.0816
  820YOPS   GL211654   8.267   0.357   6.658  0.0578 -0.1357 -0.2076
  820YOPS   C1A11655   7.928   0.175   6.931  0.0954  0.0997  0.0991
  820YOPS   D2A11656   7.817   0.112   7.276 -0.2398  0.0985  0.0694
  820YOPS   C3A11657   7.544  -0.108   7.467 -0.0950 -0.0789 -0.2993
  820YOPS   C4A11658   7.562  -0.173   7.869 -0.0966  0.0994 -0.1348
  820YOPS   C1B11659   8.345   0.364   7.064 -0.1837 -0.0493 -0.1602
  820YOPS   C2B11660   8.278   0.235   7.475 -0.1058  0.2075  0.0706
  820YOPS   D3B11661   8.195   0.352   7.909 -0.2049 -0.0152 -0.0925
  820YOPS   C4B11662   8.322   0.052   8.231  0.3506  0.0202  0.1945
  821YOPS   CNO11663  12.128  16.081   5.749 -0.2514 -0.0102 -0.1037
  821YOPS   PO411664  12.537  15.857   5.689 -0.0286 -0.2554 -0.2121
  821YOPS   GL111665  12.546  15.938   6.079 -0.1735  0.0036  0.5099
  821YOPS   GL211666  12.217  15.854   6.186 -0.2357 -0.0956 -0.0614
  821YOPS   C1A11667  12.610  15.842   6.580  0.1011 -0.0006 -0.1996
  821YOPS   D2A11668  12.842  15.682   6.867  0.2096  0.0002  0.1452
  821YOPS   C3A11669  13.051  15.314   7.039  0.2436  0.1669 -0.0976
  821YOPS   C4A11670  13.386  15.471   7.259 -0.1861 -0.4123  0.0355
  821YOPS   C1B11671  12.120  15.851   6.609  0.1485 -0.2087 -0.2271
  821YOPS   C2B11672  12.013  15.974   7.047  0.0833  0.3657 -0.1347
  821YOPS   D3B11673  11.822  15.906   7.502  0.1642  0.3344 -0.0657
  821YOPS   C4B11674  12.081  16.115   7.705  0.0875  0.2221  0.1610
  822YOPS   CNO11675   7.252   2.193   5.977 -0.0531  0.0413  0.0911
  822YOPS   PO411676   7.151   2.324   6.331 -0.3240 -0.2619 -0.2865
  822YOPS   GL111677   7.275   2.219   6.703 -0.0888  0.1322 -0.0290
  822YOPS   GL211678   7.469   1.959   6.800 -0.1126  0.0809 -0.0671
  822YOPS   C1A11679   7.138   2.343   7.159 -0.0128 -0.1741  0.0562
  822YOPS   D2A11680   7.101   2.248   7.541  0.3242  0.2668 -0.3430
  822YOPS   C3A11681   7.134   2.249   7.972  0.1169 -0.0751 -0.0151
  822YOPS   C4A11682   6.927   2.588   8.195  0.2889  0.0038 -0.0965
  822YOPS   C1B11683   7.422   1.949   7.223 -0.1573  0.1159  0.0809
  822YOPS   C2B11684   7.401   1.864   7.697 -0.2409 -0.4424  0.1335
  822YOPS   D3B11685   7.253   1.775   8.076  0.1018 -0.2704 -0.0754
  822YOPS   C4B11686   7.084   1.979   8.444  0.0533 -0.1383 -0.1119
  823YOPS   CNO11687   7.755   8.034   6.071 -0.0551 -0.1106 -0.1961
  823YOPS   PO411688   7.699   7.624   6.319 -0.1809  0.2405 -0.0067
  823YOPS   GL111689   7.760   7.874   6.710 -0.1611 -0.3672  0.3534
  823YOPS   GL211690   7.744   8.139   6.563  0.4730 -0.0646  0.1143
  823YOPS   C1A11691   7.698   8.006   7.155  0.0109 -0.0043  0.2225
  823YOPS   D2A11692   7.535   8.052   7.562 -0.0181  0.2237  0.0402
  823YOPS   C3A11693   7.460   7.988   7.966 -0.1544 -0.0942 -0.0998
  823YOPS   C4A11694   7.464   8.332   8.209  0.0696 -0.1800  0.2418
  823YOPS   C1B11695   7.668   8.380   6.876  0.2222 -0.2118  0.3147
  823YOPS   C2B11696   7.647   8.587   7.248  0.2632  0.3587  0.0315
  823YOPS   D3B11697   7.582   8.527   7.687 -0.4164 -0.0996  0.0545
  823YOPS   C4B11698   7.789   8.767   8.048  0.0227  0.0294 -0.1229
  824YOPS   CNO11699   6.886  12.976   5.517  0.4190  0.0821  0.0833
  824YOPS   PO411700   6.571  12.924   5.787 -0.1338  0.3372  0.0716
  824YOPS   GL111701   6.800  12.767   6.055 -0.0169  0.0810  0.2972
  824YOPS   GL211702   7.038  12.936   6.170  0.1446  0.1979  0.2524
  824YOPS   C1A11703   6.890  12.454   6.291 -0.0396 -0.1963 -0.0064
  824YOPS   D2A11704   6.828  12.005   6.384  0.3456 -0.1931  0.0792
  824YOPS   C3A11705   6.970  11.671   6.444 -0.3333  0.1082  0.1318
  824YOPS   C4A11706   6.830  11.711   6.885  0.1466  0.1348 -0.1257
  824YOPS   C1B11707   6.990  13.219   6.530  0.0947  0.4197 -0.1135
  824YOPS   C2B11708   7.163  13.327   6.969 -0.2953 -0.0919  0.1840
  824YOPS   D3B11709   7.559  13.356   7.236  0.1012  0.1167 -0.1885
  824YOPS   C4B11710   7.567  13.344   7.663  0.0337 -0.0093 -0.3043
  825YOPS   CNO11711   2.240  14.185   6.000 -0.0560 -0.2595  0.1915
  825YOPS   PO411712   2.584  14.401   6.165  0.1156  0.0299 -0.0239
  825YOPS   GL111713   2.523  14.620   6.473 -0.1308 -0.1125  0.1959
  825YOPS   GL211714   2.376  14.895   6.567  0.0130 -0.0390  0.2278
  825YOPS   C1A11715   2.420  14.455   6.954  0.1753 -0.0152 -0.0242
  825YOPS   D2A11716   2.292  14.500   7.392  0.0867  0.0976  0.2390
  825YOPS   C3A11717   2.158  14.691   7.707  0.0429 -0.0979  0.1798
  825YOPS   C4A11718   2.339  14.596   8.183  0.0643  0.1588 -0.1558
  825YOPS   C1B11719   2.520  14.990   6.976  0.0201 -0.1928  0.1529
  825YOPS   C2B11720   2.669  15.078   7.404 -0.0581 -0.0026 -0.1564
  825YOPS   D3B11721   2.816  15.426   7.655 -0.0342 -0.1520  0.1573
  825YOPS   C4B11722   2.634  15.558   7.914 -0.2412 -0.1529 -0.2145
  826YOPS   CNO11723  11.975  16.893   5.490 -0.0275  0.3159 -0.0421
  826YOPS   PO411724  12.206  16.611   5.695  0.0160 -0.0630  0.3995
  826YOPS   GL111725  12.283  16.682   6.083  0.3304  0.3127  0.1592
  826YOPS   GL211726  12.306  16.351   6.218  0.0068 -0.0666  0.2202
  826YOPS   C1A11727  12.043  16.779   6.477 -0.1479 -0.1107  0.0893
  826YOPS   D2A11728  11.746  16.868   6.825  0.1694 -0.3915  0.2596
  826YOPS   C3A11729  11.576  16.742   7.144  0.0480  0.0573  0.0130
  826YOPS   C4A11730  11.613  16.958   7.445 -0.3936 -0.0250  0.1498
  826YOPS   C1B11731  12.352  16.268   6.580  0.1374 -0.2282 -0.1168
  826YOPS   C2B11732  12.433  16.212   6.914  0.0204  0.0293 -0.1144
  826YOPS   D3B11733  12.505  15.919   7.155 -0.1081 -0.0693 -0.2167
  826YOPS   C4B11734  12.373  15.575   7.027  0.0412 -0.1402  0.0984
  827YOPS   CNO11735   0.500   5.245   6.049 -0.1802 -0.0885  0.0271
  827YOPS   PO411736   0.579   5.593   6.345  0.1440 -0.1730 -0.0566
  827YOPS   GL111737   0.820   5.655   6.731 -0.3494 -0.2456  0.2509
  827YOPS   GL211738   0.972   5.982   6.734  0.0543 -0.1640 -0.1710
  827YOPS   C1A11739   0.917   5.490   7.119 -0.0945 -0.2525  0.2138
  827YOPS   D2A11740   0.811   5.446   7.535 -0.0718 -0.2547 -0.1199
  827YOPS   C3A11741   0.717   5.267   7.937 -0.2054  0.0305  0.0666
  827YOPS   C4A11742   0.954   5.222   8.338  0.3564 -0.3336 -0.3217
  827YOPS   C1B11743   0.884   6.066   7.039  0.0574  0.3574  0.2545
  827YOPS   C2B11744   0.706   5.961   7.407  0.1284 -0.1301 -0.3437
  827YOPS   D3B11745   0.568   5.815   7.721  0.0432  0.1231  0.3055
  827YOPS   C4B11746   0.238   5.631   8.011 -0.1525 -0.2940  0.0872
  828YOPS   CNO11747  11.183   5.041   7.291 -0.3127 -0.1316 -0.0009
  828YOPS   PO411748  11.600   4.971   7.028 -0.0854  0.0518  0.2882
  828YOPS   GL111749  11.760   5.146   7.322  0.2553 -0.5880 -0.1108
  828YOPS   GL211750  11.518   5.423   7.363 -0.0394  0.1249 -0.0524
  828YOPS   C1A11751  11.817   5.019   7.701 -0.1757 -0.1952  0.1191
  828YOPS   D2A11752  11.669   4.734   7.935 -0.1505 -0.1814  0.3105
  828YOPS   C3A11753  11.634   4.679   8.346 -0.0804 -0.4457 -0.1945
  828YOPS   C4A11754  11.685   4.436   8.585  0.0595  0.1762 -0.0418
  828YOPS   C1B11755  11.613   5.566   7.722  0.0530  0.1337 -0.0573
  828YOPS   C2B11756  12.003   5.473   7.943  0.1361  0.1326 -0.0142
  828YOPS   D3B11757  12.146   5.511   8.408  0.1175  0.3396 -0.0844
  828YOPS   C4B11758  12.022   5.759   8.783 -0.2785  0.1498 -0.0530
  829YOPS   CNO11759   4.335   2.149   5.957 -0.1383 -0.1863  0.0062
  829YOPS   PO411760   4.239   2.234   6.370  0.2101  0.0344 -0.0865
  829YOPS   GL111761   4.258   2.217   6.875 -0.0833  0.0745  0.0451
  829YOPS   GL211762   3.930   2.511   6.968  0.0833  0.1677 -0.3080
  829YOPS   C1A11763   4.454   2.357   7.279  0.0941  0.0562 -0.0953
  829YOPS   D2A11764   4.645   2.140   7.566 -0.2660 -0.0913  0.0601
  829YOPS   C3A11765   4.877   2.236   7.866  0.0214  0.0845  0.3629
  829YOPS   C4A11766   5.061   2.356   8.232  0.1873  0.0442 -0.0933
  829YOPS   C1B11767   4.002   2.625   7.411  0.0383  0.0801  0.0312
  829YOPS   C2B11768   4.291   2.718   7.739 -0.0719  0.1695 -0.3365
  829YOPS   D3B11769   4.698   2.680   8.086  0.2321  0.1525  0.2292
  829YOPS   C4B11770   4.414   2.619   8.494  0.1223 -0.1689 -0.0407
  830YOPS   CNO11771   3.873   0.036   6.139  0.1689  0.0699 -0.0762
  830YOPS   PO411772   3.871  -0.317   6.381 -0.0845 -0.0200 -0.1729
  830YOPS   GL111773   3.939  -0.054   6.867 -0.0617  0.4349  0.1495
  830YOPS   GL211774   4.166  -0.042   6.999 -0.0369  0.2792  0.0104
  830YOPS   C1A11775   3.552   0.043   7.117 -0.0402  0.0106 -0.0260
  830YOPS   D2A11776   3.244  -0.179   7.234 -0.1029 -0.0020  0.0515
  830YOPS   C3A11777   3.204  -0.452   7.485  0.1167 -0.2522 -0.2782
  830YOPS   C4A11778   3.332  -0.407   7.893  0.0315  0.1350 -0.0328
  830YOPS   C1B11779   3.997  -0.021   7.377  0.0156  0.2475 -0.0112
  830YOPS   C2B11780   3.696  -0.096   7.735 -0.2272 -0.3558 -0.0528
  830YOPS   D3B11781   3.755  -0.130   8.228  0.0872  0.1161  0.2515
  830YOPS   C4B11782   3.702  -0.498   8.334 -0.1420  0.2641  0.0942
  831YOPS   CNO11783   3.805   5.802   6.111 -0.1254 -0.1506 -0.0197
  831YOPS   PO411784   3.834   6.212   6.321  0.1859  0.1104 -0.1828
  831YOPS   GL111785   3.881   6.214   6.758  0.5787  0.0099 -0.1722
  831YOPS   GL211786   4.007   6.013   6.937  0.0624  0.1245 -0.0832
  831YOPS   C1A11787   3.679   6.426   7.163  0.1272  0.0841  0.1758
  831YOPS   D2A11788   3.798   6.550   7.503 -0.0868 -0.1723 -0.0966
  831YOPS   C3A11789   3.697   6.836   7.751  0.0313 -0.1571  0.1716
  831YOPS   C4A11790   3.487   6.849   8.279 -0.2552 -0.0543 -0.1453
  831YOPS   C1B11791   4.003   5.970   7.340 -0.0634 -0.2083 -0.0034
  831YOPS   C2B11792   4.001   6.205   7.780 -0.0058  0.1003  0.0985
  831YOPS   D3B11793   3.921   6.507   8.019  0.2156  0.0052  0.1347
  831YOPS   C4B11794   3.904   6.316   8.402  0.1737  0.0719  0.0586
  832YOPS   CNO11795  10.661   7.965   6.274  0.1664  0.1308 -0.0527
  832YOPS   PO411796  10.281   8.134   6.003  0.1858 -0.1305  0.1827
  832YOPS   GL111797  10.136   7.914   6.310  0.0989  0.1246 -0.0324
  832YOPS   GL211798  10.293   8.053   6.585 -0.0185  0.0231  0.3157
  832YOPS   C1A11799   9.815   7.825   6.619 -0.0233 -0.0060 -0.1328
  832YOPS   D2A11800   9.418   7.817   6.611  0.0794 -0.2018 -0.1379
  832YOPS   C3A11801   9.092   8.099   6.725  0.1021  0.1560 -0.0846
  832YOPS   C4A11802   9.117   8.114   7.191 -0.0318  0.1988 -0.0484
  832YOPS   C1B11803  10.067   8.165   6.932  0.0485  0.0366  0.1351
  832YOPS   C2B11804   9.872   8.155   7.328  0.0376  0.2148 -0.4126
  832YOPS   D3B11805   9.535   8.161   7.529 -0.0403  0.2832  0.1002
  832YOPS   C4B11806   9.528   8.427   7.760 -0.0747  0.1597  0.2395
  833YOPS   CNO11807   8.392   4.759   5.899  0.2129 -0.2492 -0.1080
  833YOPS   PO411808   8.215   5.117   6.094  0.0679 -0.1125  0.1327
  833YOPS   GL111809   8.330   4.977   6.580  0.0803 -0.3823 -0.0091
  833YOPS   GL211810   8.507   5.166   6.819  0.1277  0.2711  0.2510
  833YOPS   C1A11811   8.073   4.942   6.985 -0.2394  0.1571  0.0087
  833YOPS   D2A11812   7.923   5.061   7.445 -0.0236 -0.3102 -0.1270
  833YOPS   C3A11813   7.697   5.018   7.890 -0.1755  0.2378  0.1173
  833YOPS   C4A11814   7.666   5.112   8.275 -0.1436  0.0011 -0.2835
  833YOPS   C1B11815   8.733   5.161   7.203 -0.0356 -0.0914  0.0021
  833YOPS   C2B11816   8.642   5.254   7.647 -0.2472 -0.2129  0.2471
  833YOPS   D3B11817   8.426   5.019   7.865  0.1032  0.2244 -0.1259
  833YOPS   C4B11818   8.398   4.991   8.344 -0.2048 -0.2436  0.0983
  834YOPS   CNO11819  12.225   9.474   6.171 -0.1586  0.1976 -0.0605
  834YOPS   PO411820  12.688   9.596   6.093 -0.0662 -0.1352  0.0877
  834YOPS   GL111821  12.760   9.259   6.466 -0.0682  0.0236  0.3194
  834YOPS   GL211822  12.589   9.012   6.360  0.1423 -0.0976 -0.0404
  834YOPS   C1A11823  12.598   9.202   6.887  0.0423 -0.1453 -0.2234
  834YOPS   D2A11824  12.356   9.255   7.262 -0.0032  0.1362  0.1549
  834YOPS   C3A11825  12.334   9.101   7.724 -0.2207 -0.1850  0.1410
  834YOPS   C4A11826  12.450   9.368   7.954  0.1096 -0.3179 -0.1015
  834YOPS   C1B11827  12.476   8.737   6.716  0.2647  0.1748 -0.2300
  834YOPS   C2B11828  12.148   8.772   7.018 -0.0144 -0.1049 -0.1292
  834YOPS   D3B11829  11.802   8.860   7.112 -0.1581  0.1917  0.0490
  834YOPS   C4B11830  11.458   8.993   7.393 -0.0329  0.1646  0.0671
  835YOPS   CNO11831   0.216   9.404   5.525  0.0519 -0.0265 -0.1131
  835YOPS   PO411832   0.322   9.167   5.894  0.0514 -0.0391  0.1315
  835YOPS   GL111833   0.268   9.010   6.293 -0.2333  0.0616 -0.0679
  835YOPS   GL211834   0.167   8.673   6.430 -0.1604 -0.0454  0.0446
  835YOPS   C1A11835   0.165   9.193   6.657  0.1218 -0.2390 -0.0042
  835YOPS   D2A11836   0.053   8.912   7.006  0.0022 -0.3705 -0.0389
  835YOPS   C3A11837   0.280   8.933   7.354 -0.0851  0.0487  0.2090
  835YOPS   C4A11838   0.448   8.543   7.411  0.1769  0.2323 -0.0560
  835YOPS   C1B11839  -0.214   8.598   6.672 -0.0730 -0.0318  0.1639
  835YOPS   C2B11840  -0.431   8.652   7.082 -0.0275 -0.0295 -0.1667
  835YOPS   D3B11841  -0.500   8.816   7.437 -0.1382  0.3397  0.0653
  835YOPS   C4B11842  -0.561   9.122   7.651 -0.1916 -0.1285 -0.1042
  836YOPS   CNO11843  10.672   9.885   5.684 -0.1689  0.0504  0.1565
  836YOPS   PO411844  10.492   9.830   5.988  0.1710  0.2207 -0.0935
  836YOPS   GL111845  10.470  10.131   6.341 -0.1903  0.0222  0.0861
  836YOPS   GL211846  10.255  10.340   6.331  0.3470  0.0770  0.1756
  836YOPS   C1A11847  10.675  10.458   6.573  0.0763  0.0456  0.3344
  836YOPS   D2A11848  11.022  10.387   6.779 -0.1575 -0.0536  0.1198
  836YOPS   C3A11849  11.060  10.542   7.218 -0.0341 -0.1289 -0.1566
  836YOPS   C4A11850  10.702  10.495   7.544 -0.1416  0.0139 -0.2583
  836YOPS   C1B11851   9.995  10.286   6.714 -0.2013 -0.0261  0.0436
  836YOPS   C2B11852  10.051  10.471   7.096  0.1706 -0.2502  0.1996
  836YOPS   D3B11853  10.201  10.344   7.453 -0.2933 -0.0817  0.1251
  836YOPS   C4B11854  10.327  10.625   7.734  0.1271 -0.0530 -0.4225
  837YOPS   CNO11855   4.490  10.737   5.712 -0.1201  0.3824 -0.1902
  837YOPS   PO411856   4.901  10.467   5.834  0.2622 -0.0062  0.0376
  837YOPS   GL111857   5.018  10.384   6.295 -0.1370  0.0126 -0.1449
  837YOPS   GL211858   4.706  10.297   6.335 -0.1158 -0.0622  0.2788
  837YOPS   C1A11859   5.059  10.538   6.694  0.0953 -0.1530  0.1106
  837YOPS   D2A11860   5.000  10.551   7.067  0.0880 -0.1537  0.2330
  837YOPS   C3A11861   4.881  10.271   7.441 -0.2897 -0.1455  0.0069
  837YOPS   C4A11862   4.960   9.934   7.678  0.1162  0.1124  0.1218
  837YOPS   C1B11863   4.906  10.094   6.731  0.2352  0.3074  0.2441
  837YOPS   C2B11864   4.909   9.931   7.122  0.0578 -0.0152 -0.3951
  837YOPS   D3B11865   5.141   9.650   7.318  0.1264 -0.2857 -0.0384
  837YOPS   C4B11866   5.263   9.257   7.259 -0.0297  0.4773 -0.0003
  838YOPS   CNO11867   6.296   9.427   6.327 -0.1965  0.1113 -0.0779
  838YOPS   PO411868   5.962   9.765   6.435 -0.2447  0.1008  0.3656
  838YOPS   GL111869   5.905  10.022   6.784 -0.0500  0.0803  0.1593
  838YOPS   GL211870   5.802   9.678   6.979  0.0719 -0.2169  0.1658
  838YOPS   C1A11871   5.916  10.128   7.213 -0.1416  0.3567 -0.0762
  838YOPS   D2A11872   5.947  10.204   7.497  0.2263  0.1065  0.0053
  838YOPS   C3A11873   6.024  10.086   7.983 -0.2079 -0.0152 -0.3900
  838YOPS   C4A11874   6.388   9.808   8.016 -0.0249 -0.0649  0.2802
  838YOPS   C1B11875   5.610   9.745   7.411  0.1215  0.1137  0.0554
  838YOPS   C2B11876   5.487   9.901   7.849 -0.0752  0.0564 -0.1764
  838YOPS   D3B11877   5.154   9.774   8.057  0.1891 -0.0423 -0.0073
  838YOPS   C4B11878   4.769   9.965   8.146  0.3068  0.3349 -0.1008
  839YOPS   CNO11879   1.123   8.831   5.774 -0.2674  0.1884  0.0651
  839YOPS   PO411880   1.189   8.878   6.231 -0.1416  0.0345  0.0634
  839YOPS   GL111881   1.435   9.027   6.484  0.1330 -0.0000  0.0269
  839YOPS   GL211882   1.506   8.789   6.620 -0.1701  0.0228  0.0369
  839YOPS   C1A11883   1.638   9.305   6.806 -0.0540  0.2842 -0.2122
  839YOPS   D2A11884   1.633   9.202   7.287  0.1293  0.2043 -0.0630
  839YOPS   C3A11885   1.677   8.927   7.773 -0.2137  0.1175  0.2255
  839YOPS   C4A11886   1.707   9.139   8.177 -0.1180 -0.2336  0.4143
  839YOPS   C1B11887   1.409   8.777   7.001  0.1546  0.0730 -0.1540
  839YOPS   C2B11888   1.253   8.818   7.403 -0.2495 -0.2088  0.1601
  839YOPS   D3B11889   1.208   8.813   7.935  0.0465  0.1036  0.1530
  839YOPS   C4B11890   1.143   8.394   8.237 -0.1737 -0.0914  0.0467
  840YOPS   CNO11891   1.407   2.940   6.255  0.1708 -0.0253 -0.0330
  840YOPS   PO411892   1.398   3.405   6.267  0.0056  0.3478  0.0497
  840YOPS   GL111893   1.466   3.521   6.702 -0.0170 -0.3518  0.2836
  840YOPS   GL211894   1.392   3.884   6.683  0.0915 -0.0945 -0.0277
  840YOPS   C1A11895   1.738   3.497   7.130  0.0654 -0.0895 -0.0880
  840YOPS   D2A11896   1.640   3.551   7.625 -0.0755  0.0357  0.1226
  840YOPS   C3A11897   1.839   3.581   8.025 -0.2812 -0.2236 -0.0283
  840YOPS   C4A11898   1.926   3.917   8.315 -0.2100 -0.2118 -0.2864
  840YOPS   C1B11899   1.261   4.008   7.113  0.2519 -0.0813 -0.0708
  840YOPS   C2B11900   1.271   3.876   7.575  0.1241 -0.4725 -0.2280
  840YOPS   D3B11901   1.514   3.909   7.920  0.0452 -0.4241 -0.2972
  840YOPS   C4B11902   1.556   4.316   7.931  0.2096  0.0319 -0.0708
  841YOPS   CNO11903   4.683   3.540   5.835 -0.0379 -0.1882  0.2060
  841YOPS   PO411904   4.802   3.890   6.183  0.3082  0.0279 -0.1309
  841YOPS   GL111905   4.564   3.915   6.571 -0.0782  0.1457  0.1552
  841YOPS   GL211906   4.506   3.616   6.754  0.1640 -0.2578  0.2203
  841YOPS   C1A11907   4.368   4.077   6.939 -0.2421  0.2035 -0.2910
  841YOPS   D2A11908   4.136   4.272   7.275 -0.0633  0.0513  0.3571
  841YOPS   C3A11909   4.085   4.282   7.679  0.1441 -0.2156 -0.0700
  841YOPS   C4A11910   4.227   4.415   8.068  0.2490  0.0654  0.0026
  841YOPS   C1B11911   4.727   3.837   7.132  0.0528  0.0488  0.0894
  841YOPS   C2B11912   4.930   4.014   7.485 -0.0204 -0.4192  0.2140
  841YOPS   D3B11913   5.163   4.025   7.837 -0.1242  0.0639 -0.2504
  841YOPS   C4B11914   4.998   3.840   8.168  0.0463  0.0576 -0.0179
  842POPE   NH311915   4.253   2.677   6.092 -0.1206  0.4300  0.1095
  842POPE   PO411916   4.005   2.741   6.476 -0.1266  0.2248  0.2846
  842POPE   GL111917   3.954   3.055   6.860  0.0889 -0.2097 -0.1553
  842POPE   GL211918   4.242   3.231   6.942  0.0138  0.0440  0.0613
  842POPE   C1A11919   3.985   3.111   7.324 -0.1027  0.1567 -0.2108
  842POPE   D2A11920   4.152   3.270   7.633 -0.0654 -0.0392 -0.2660
  842POPE   C3A11921   4.021   3.305   7.947  0.0365  0.0231  0.3649
  842POPE   C4A11922   3.636   3.197   8.152  0.3024  0.1259  0.0401
  842POPE   C1B11923   4.379   3.464   7.218  0.2456 -0.0380 -0.3278
  842POPE   C2B11924   4.338   3.872   7.533  0.1354  0.0262 -0.0037
  842POPE   C3B11925   4.336   3.984   7.919  0.0613 -0.1611 -0.2326
  842POPE   C4B11926   4.542   4.050   8.277  0.0278 -0.0846  0.0995
  843POPE   NH311927   9.893   1.479   5.153  0.1762  0.1322 -0.2740
  843POPE   PO411928   9.849   1.190   5.487  0.1260 -0.0612  0.3533
  843POPE   GL111929   9.952   1.035   5.855  0.0264 -0.3431 -0.0358
  843POPE   GL211930  10.238   0.894   5.771 -0.2694 -0.1054 -0.3329
  843POPE   C1A11931   9.796   0.999   6.252  0.0337  0.0772  0.2060
  843POPE   D2A11932  10.003   0.963   6.613  0.0263 -0.1566  0.0431
  843POPE   C3A11933   9.753   1.134   6.928 -0.0257 -0.1856  0.1856
  843POPE   C4A11934   9.928   1.505   7.175  0.0681  0.0636 -0.0216
  843POPE   C1B11935  10.292   0.784   6.264 -0.0869 -0.0397 -0.1044
  843POPE   C2B11936  10.488   0.750   6.752  0.0940  0.0386  0.2022
  843POPE   C3B11937  10.814   0.719   6.873 -0.0767 -0.1436 -0.0922
  843POPE   C4B11938  10.999   0.712   7.294 -0.0063 -0.0414  0.2726
  844POPE   NH311939  13.067   8.223   6.119 -0.2117  0.3581 -0.3747
  844POPE   PO411940  12.785   7.974   6.393  0.0878 -0.2141 -0.1576
  844POPE   GL111941  12.597   8.114   6.747 -0.0372 -0.0887  0.1250
  844POPE   GL211942  12.534   7.812   6.987 -0.0333 -0.3085 -0.0562
  844POPE   C1A11943  12.398   8.308   7.081  0.1412 -0.0008 -0.1532
  844POPE   D2A11944  12.317   8.600   7.476 -0.0227  0.2607  0.1277
  844POPE   C3A11945  11.928   8.854   7.567  0.0109 -0.0239 -0.0644
  844POPE   C4A11946  11.897   9.312   7.453 -0.2451  0.0803 -0.0840
  844POPE   C1B11947  12.661   7.967   7.364 -0.0926 -0.0105 -0.1997
  844POPE   C2B11948  12.753   8.339   7.401  0.2739  0.0640 -0.2159
  844POPE   C3B11949  12.806   8.590   7.746  0.1840  0.0745 -0.3012
  844POPE   C4B11950  13.026   8.685   8.052  0.0229  0.0676 -0.0408
  845POPE   NH311951   6.510   3.200   6.369  0.3622 -0.0307 -0.0093
  845POPE   PO411952   6.683   2.834   6.495  0.0300  0.0326  0.0460
  845POPE   GL111953   6.504   2.944   6.821  0.1717 -0.1480 -0.0947
  845POPE   GL211954   6.275   3.127   6.800  0.1844  0.1976 -0.2524
  845POPE   C1A11955   6.531   3.108   7.238  0.0380 -0.2008  0.2577
  845POPE   D2A11956   6.676   3.119   7.609  0.0498  0.1624  0.1065
  845POPE   C3A11957   6.555   2.818   7.997  0.1106 -0.1969  0.1094
  845POPE   C4A11958   6.424   2.488   8.308  0.0886  0.3930 -0.1563
  845POPE   C1B11959   6.045   3.272   7.190  0.0226 -0.1277  0.3235
  845POPE   C2B11960   6.185   3.285   7.627  0.1594  0.0819 -0.1537
  845POPE   C3B11961   6.425   3.345   7.953 -0.1423 -0.4423 -0.1360
  845POPE   C4B11962   6.566   3.235   8.385 -0.0545  0.0087 -0.0601
  846POPE   NH311963   6.080   8.949   6.196  0.0578  0.1711  0.0632
  846POPE   PO411964   6.431   8.766   6.283 -0.0280 -0.0929  0.1060
  846POPE   GL111965   6.383   8.387   6.627 -0.1151 -0.2320  0.0303
  846POPE   GL211966   6.374   8.110   6.546 -0.2288 -0.3748  0.0180
  846POPE   C1A11967   6.197   8.311   7.017  0.3319 -0.0932 -0.1069
  846POPE   D2A11968   6.002   8.359   7.420 -0.0418  0.5086 -0.1071
  846POPE   C3A11969   6.101   8.355   7.804  0.2257 -0.2139 -0.0884
  846POPE   C4A11970   6.190   8.339   8.303 -0.1098  0.0479 -0.0100
  846POPE   C1B11971   6.393   7.781   6.838  0.0432 -0.0061  0.0774
  846POPE   C2B11972   6.258   7.877   7.169 -0.3899 -0.0712  0.0593
  846POPE   C3B11973   6.179   7.810   7.623  0.1250  0.0971  0.0630
  846POPE   C4B11974   6.056   7.731   8.056 -0.0243 -0.1111  0.2861
  847POPE   NH311975   7.619   0.159   6.140  0.1540 -0.0240 -0.0936
  847POPE   PO411976   7.633  -0.203   6.029  0.4716  0.0530  0.1045
  847POPE   GL111977   7.704  -0.524   6.213  0.2285 -0.1364  0.0171
  847POPE   GL211978   7.821  -0.809   6.142  0.1587  0.0335  0.1670
  847POPE   C1A11979   7.476  -0.752   6.576  0.1420  0.0274  0.0132
  847POPE   D2A11980   7.207  -0.970   6.678 -0.1158  0.0334  0.3853
  847POPE   C3A11981   7.006  -1.203   7.006 -0.2036  0.2806 -0.0030
  847POPE   C4A11982   6.918  -1.433   7.379  0.0105 -0.2428  0.0294
  847POPE   C1B11983   7.880  -0.991   6.562  0.0899 -0.2676  0.0888
  847POPE   C2B11984   7.700  -1.025   6.995  0.2805 -0.0745 -0.2386
  847POPE   C3B11985   7.608  -0.976   7.520  0.0389 -0.0038 -0.4328
  847POPE   C4B11986   7.566  -0.782   7.861  0.0895 -0.0537  0.0175
  848POPE   NH311987   5.642   7.530   6.239  0.3795 -0.1455  0.1443
  848POPE   PO411988   6.009   7.315   6.007  0.1885  0.0724 -0.1149
  848POPE   GL111989   6.263   7.434   6.370 -0.2030  0.5262 -0.0272
  848POPE   GL211990   6.094   7.682   6.426  0.0977 -0.0613  0.2953
  848POPE   C1A11991   6.673   7.330   6.680  0.1185 -0.0387 -0.0475
  848POPE   D2A11992   6.902   7.423   7.055 -0.0480  0.1123  0.0852
  848POPE   C3A11993   6.687   7.609   7.470  0.2269 -0.2187 -0.1698
  848POPE   C4A11994   6.514   7.536   7.859 -0.0986 -0.0194  0.0964
  848POPE   C1B11995   5.837   7.651   6.865 -0.2178  0.2226  0.2855
  848POPE   C2B11996   5.827   7.682   7.324 -0.2487  0.4421 -0.0992
  848POPE   C3B11997   5.703   7.559   7.770 -0.0045  0.1453  0.2196
  848POPE   C4B11998   5.319   7.406   8.049  0.2185 -0.0863 -0.1552
  849POPE   NH311999  11.267  15.846   5.947 -0.1638 -0.2612  0.1896
  849POPE   PO412000  11.529  15.449   5.731  0.2871 -0.2834  0.1371
  849POPE   GL112001  11.646  15.571   6.125 -0.1619 -0.1636  0.1679
  849POPE   GL212002  11.380  15.567   6.373 -0.3001 -0.2544 -0.3508
  849POPE   C1A12003  11.925  15.434   6.384  0.0458  0.0864  0.1575
  849POPE   D2A12004  11.771  15.503   6.793  0.0847 -0.2331 -0.1558
  849POPE   C3A12005  11.919  15.480   7.186  0.2619  0.1164  0.1258
  849POPE   C4A12006  11.772  15.419   7.578 -0.1454  0.3188 -0.0670
  849POPE   C1B12007  11.240  15.323   6.779  0.0890 -0.1238  0.1875
  849POPE   C2B12008  10.941  15.231   7.149  0.0475  0.2690  0.1610
  849POPE   C3B12009  10.594  15.337   7.374 -0.3388  0.0693  0.2075
  849POPE   C4B12010  10.190  15.232   7.727 -0.1878 -0.1698  0.0232
  850POPE   NH312011   8.677   9.876   6.265 -0.1473  0.2683 -0.0679
  850POPE   PO412012   9.050   9.567   6.260 -0.0280 -0.1131 -0.2081
  850POPE   GL112013   8.969   9.545   6.555 -0.0861  0.0635 -0.2693
  850POPE   GL212014   8.625   9.443   6.675 -0.0394  0.3448  0.0521
  850POPE   C1A12015   9.261   9.648   6.916  0.1083 -0.2478 -0.0656
  850POPE   D2A12016   9.370   9.832   7.293 -0.2069 -0.1309  0.2905
  850POPE   C3A12017   9.135   9.665   7.628  0.1335 -0.2254 -0.1758
  850POPE   C4A12018   9.211   9.503   8.025  0.0498 -0.1276 -0.0252
  850POPE   C1B12019   8.718   9.772   6.908 -0.0142  0.0048 -0.0051
  850POPE   C2B12020   8.680   9.909   7.280  0.1526 -0.1928  0.1586
  850POPE   C3B12021   8.742  10.131   7.623  0.0314  0.1184 -0.3157
  850POPE   C4B12022   9.109  10.056   7.949 -0.0982  0.3621 -0.1662
  851POPE   NH312023  16.086   7.803   5.980  0.2208  0.1014 -0.0213
  851POPE   PO412024  16.540   7.828   6.027 -0.0701  0.0151 -0.2829
  851POPE   GL112025  16.584   7.758   6.461 -0.0318  0.0780 -0.0133
  851POPE   GL212026  16.380   7.730   6.860  0.1877 -0.1770  0.0602
  851POPE   C1A12027  16.814   7.982   6.743 -0.1089  0.1067  0.1191
  851POPE   D2A12028  16.676   8.087   7.126  0.0739 -0.2205 -0.0678
  851POPE   C3A12029  16.546   7.847   7.496  0.0906 -0.1866 -0.1285
  851POPE   C4A12030  16.119   7.845   7.581  0.0907  0.1513 -0.0749
  851POPE   C1B12031  15.870   7.614   6.940  0.0864  0.3822 -0.2154
  851POPE   C2B12032  15.442   7.813   7.048  0.0084 -0.0647  0.2644
  851POPE   C3B12033  15.222   7.963   7.337  0.0501  0.3328  0.2060
  851POPE   C4B12034  15.150   7.790   7.680 -0.0777 -0.2329 -0.0598
  852POPE   NH312035  16.381  12.998   6.232 -0.0989  0.1525 -0.0182
  852POPE   PO412036  16.459  13.493   6.201 -0.3837 -0.0186 -0.0147
  852POPE   GL112037  16.283  13.392   6.555  0.2944 -0.1191 -0.2137
  852POPE   GL212038  15.965  13.371   6.464  0.0381 -0.0990  0.3312
  852POPE   C1A12039  16.400  13.548   6.999  0.3429 -0.2137  0.2785
  852POPE   D2A12040  16.632  13.605   7.359  0.3450  0.4764  0.1906
  852POPE   C3A12041  16.611  13.268   7.755 -0.2269  0.1113 -0.0089
  852POPE   C4A12042  16.719  13.005   8.099  0.2063 -0.0430 -0.2005
  852POPE   C1B12043  15.889  13.403   6.893 -0.3922 -0.1033 -0.1169
  852POPE   C2B12044  16.004  13.290   7.278 -0.2039  0.0402 -0.0696
  852POPE   C3B12045  16.027  13.193   7.764 -0.1323  0.0519  0.4137
  852POPE   C4B12046  15.833  13.149   8.111 -0.2414 -0.0716 -0.0064
  853POPE   NH312047   2.342   9.035   6.151 -0.2588  0.3081 -0.1647
  853POPE   PO412048   2.124   9.491   6.051 -0.0745  0.0454  0.0474
  853POPE   GL112049   2.076   9.348   6.451 -0.0050 -0.0304 -0.3411
  853POPE   GL212050   1.869   9.596   6.520 -0.0851  0.1002  0.0873
  853POPE   C1A12051   2.133   9.385   6.851 -0.0705 -0.2370 -0.0879
  853POPE   D2A12052   2.067   9.545   7.285 -0.0310  0.0877 -0.0617
  853POPE   C3A12053   1.997   9.799   7.667 -0.1958  0.0053  0.1787
  853POPE   C4A12054   1.723   9.852   8.053 -0.4079  0.0089 -0.1071
  853POPE   C1B12055   1.895   9.861   6.878  0.0839 -0.0294  0.0174
  853POPE   C2B12056   1.802  10.107   7.171 -0.0027  0.0687 -0.2049
  853POPE   C3B12057   1.597  10.254   7.599 -0.2611 -0.0150  0.0558
  853POPE   C4B12058   1.611  10.346   8.054  0.0807 -0.2086  0.2586
  854POPE   NH312059   3.519   2.942   6.559 -0.1954 -0.2795  0.0942
  854POPE   PO412060   3.484   3.380   6.317 -0.2338  0.0189  0.2370
  854POPE   GL112061   3.461   3.365   6.771  0.0582 -0.0731 -0.0165
  854POPE   GL212062   3.159   3.090   6.964  0.0038  0.2016 -0.0997
  854POPE   C1A12063   3.570   3.346   7.224  0.0637 -0.0404  0.1387
  854POPE   D2A12064   3.575   3.266   7.666 -0.3555 -0.1946 -0.2911
  854POPE   C3A12065   3.816   2.819   7.799 -0.1994 -0.1825 -0.3281
  854POPE   C4A12066   3.986   2.555   8.101 -0.0672 -0.1852  0.2677
  854POPE   C1B12067   3.073   3.298   7.345 -0.1851  0.0429 -0.1355
  854POPE   C2B12068   3.010   3.285   7.737 -0.0908  0.0171 -0.3185
  854POPE   C3B12069   3.190   3.127   8.133  0.2382  0.2550 -0.1795
  854POPE   C4B12070   2.977   2.856   8.412  0.0756 -0.0061  0.0921
  855POPE   NH312071  10.624   2.218   5.640  0.1759 -0.1294  0.1489
  855POPE   PO412072  11.036   2.120   5.840 -0.0440 -0.1584  0.0197
  855POPE   GL112073  11.051   1.960   6.334  0.4175 -0.0107  0.3557
  855POPE   GL212074  10.822   1.564   6.395  0.1138  0.1137 -0.0236
  855POPE   C1A12075  11.161   1.928   6.716 -0.0694  0.3580  0.2263
  855POPE   D2A12076  10.987   1.707   7.090  0.0616  0.2848 -0.0159
  855POPE   C3A12077  11.019   1.944   7.469  0.1596  0.4108 -0.3293
  855POPE   C4A12078  11.149   1.854   7.935  0.1106  0.0611 -0.1563
  855POPE   C1B12079  10.856   1.321   6.800  0.0921  0.2866  0.0565
  855POPE   C2B12080  10.881   1.208   7.239  0.0702 -0.0943 -0.1567
  855POPE   C3B12081  10.683   0.982   7.581 -0.0563 -0.0752 -0.1772
  855POPE   C4B12082  10.322   0.941   7.895  0.0686 -0.2056 -0.1165
  856POPE   NH312083   7.035   3.608   6.319 -0.2828 -0.0152 -0.0217
  856POPE   PO412084   7.024   3.258   6.220 -0.3409 -0.1684 -0.1901
  856POPE   GL112085   7.304   2.985   6.481  0.2380 -0.2410 -0.2545
  856POPE   GL212086   7.114   2.702   6.694 -0.0686  0.3613  0.0327
  856POPE   C1A12087   7.405   3.036   6.977 -0.0035 -0.2604  0.2807
  856POPE   D2A12088   7.417   2.799   7.394 -0.0288  0.1672  0.1598
  856POPE   C3A12089   7.116   2.833   7.710 -0.0978  0.2085 -0.0366
  856POPE   C4A12090   6.990   3.164   8.001 -0.0715  0.2575 -0.0357
  856POPE   C1B12091   6.913   2.782   7.153 -0.0299  0.0647 -0.3406
  856POPE   C2B12092   6.746   2.604   7.508  0.0106  0.1747  0.0606
  856POPE   C3B12093   6.683   2.283   7.837 -0.3885 -0.2595  0.0707
  856POPE   C4B12094   6.421   2.009   8.102  0.0854 -0.3836  0.0616
  857POPE   NH312095  11.828  12.230   5.883 -0.2390 -0.2827  0.0528
  857POPE   PO412096  12.230  12.220   5.783  0.2068 -0.2977  0.1076
  857POPE   GL112097  12.269  12.251   6.218  0.0841  0.0913 -0.0388
  857POPE   GL212098  12.012  12.139   6.335 -0.0725 -0.1569  0.0335
  857POPE   C1A12099  12.251  12.366   6.699  0.2045 -0.0360 -0.1449
  857POPE   D2A12100  12.362  12.451   7.080  0.1834 -0.3029  0.0784
  857POPE   C3A12101  12.404  12.782   7.219 -0.0241 -0.1622  0.3365
  857POPE   C4A12102  12.306  13.097   7.581  0.4277 -0.0816 -0.1624
  857POPE   C1B12103  11.807  12.191   6.811 -0.1968 -0.2553 -0.0875
  857POPE   C2B12104  11.883  12.242   7.251 -0.2378 -0.0844 -0.0557
  857POPE   C3B12105  12.123  12.273   7.596  0.2074  0.0578 -0.1199
  857POPE   C4B12106  11.885  12.249   8.034 -0.0829  0.1948 -0.0420
  858POPE   NH312107   2.868   6.035   6.333  0.2319 -0.1676  0.0028
  858POPE   PO412108   2.575   5.676   6.298 -0.1383  0.0189  0.0271
  858POPE   GL112109   2.750   5.749   6.777 -0.0107  0.0479  0.2319
  858POPE   GL212110   2.828   5.360   6.912  0.0090 -0.2254 -0.0046
  858POPE   C1A12111   2.993   5.831   7.104  0.1381  0.0852  0.0254
  858POPE   D2A12112   3.280   5.773   7.438 -0.0223 -0.1092 -0.1311
  858POPE   C3A12113   3.568   6.084   7.520  0.0419  0.1900  0.2145
  858POPE   C4A12114   3.477   6.238   7.921 -0.2071 -0.0570  0.1032
  858POPE   C1B12115   2.813   5.432   7.366 -0.0933  0.1016 -0.0106
  858POPE   C2B12116   2.799   5.502   7.775 -0.2062 -0.0652 -0.0981
  858POPE   C3B12117   2.470   5.511   8.074  0.2357  0.0082  0.0939
  858POPE   C4B12118   2.220   5.631   8.483 -0.0145 -0.2828  0.0462
  859POPE   NH312119  12.418  14.437   5.851  0.0301 -0.0843  0.2303
  859POPE   PO412120  12.574  14.034   5.898 -0.3379  0.0377  0.1927
  859POPE   GL112121  12.852  14.169   6.143  0.0566 -0.0247 -0.2855
  859POPE   GL212122  13.180  14.262   6.249  0.1035  0.0226  0.1686
  859POPE   C1A12123  12.900  13.967   6.550  0.0008  0.0186  0.1148
  859POPE   D2A12124  13.022  14.065   6.920 -0.3884  0.0820  0.1578
  859POPE   C3A12125  12.815  14.148   7.290  0.0902 -0.0321 -0.3096
  859POPE   C4A12126  12.930  14.243   7.669 -0.0836  0.0056  0.1307
  859POPE   C1B12127  12.958  14.450   6.600 -0.0963 -0.0142 -0.2126
  859POPE   C2B12128  12.697  14.533   6.960  0.1509 -0.0040  0.2804
  859POPE   C3B12129  12.710  14.689   7.409  0.1767 -0.2676  0.0191
  859POPE   C4B12130  12.499  14.476   7.847 -0.0917 -0.2544  0.4728
  860POPE   NH312131   3.310  13.465   6.241 -0.0611 -0.1131  0.4820
  860POPE   PO412132   2.999  13.715   6.200 -0.0394  0.0262  0.1662
  860POPE   GL112133   3.110  13.640   6.639 -0.2444 -0.0793  0.1727
  860POPE   GL212134   3.059  13.366   6.843 -0.2464  0.3348 -0.1006
  860POPE   C1A12135   3.434  13.734   6.952  0.2920  0.2658  0.1264
  860POPE   D2A12136   3.555  14.026   7.223  0.0454  0.0860  0.0194
  860POPE   C3A12137   3.698  14.186   7.548  0.1656 -0.3034 -0.0360
  860POPE   C4A12138   3.830  14.182   7.872  0.1388 -0.1905 -0.0662
  860POPE   C1B12139   3.161  13.236   7.170 -0.2250  0.0356 -0.0136
  860POPE   C2B12140   3.141  13.192   7.648 -0.2296  0.1981  0.0828
  860POPE   C3B12141   3.020  13.332   7.987  0.0693 -0.0522 -0.0549
  860POPE   C4B12142   2.775  13.554   8.346 -0.0202 -0.2136 -0.1778
  861POPE   NH312143   0.745  10.865   5.841 -0.2303  0.1406 -0.2614
  861POPE   PO412144   0.347  10.718   5.812 -0.1773  0.0807  0.0688
  861POPE   GL112145   0.074  10.726   6.166  0.2814  0.1459  0.0822
  861POPE   GL212146   0.069  10.329   6.325 -0.0249  0.0044  0.1113
  861POPE   C1A12147  -0.141  10.658   6.687  0.0676 -0.0611 -0.0144
  861POPE   D2A12148  -0.199  10.559   7.049  0.1701 -0.1538  0.1882
  861POPE   C3A12149  -0.063  10.547   7.539 -0.2095  0.0991  0.0015
  861POPE   C4A12150   0.101  10.862   7.776  0.1303 -0.0064  0.1789
  861POPE   C1B12151  -0.004  10.088   6.683  0.1771 -0.0824 -0.2716
  861POPE   C2B12152  -0.105  10.062   7.064  0.2008 -0.0321 -0.0029
  861POPE   C3B12153   0.005  10.074   7.468  0.2128  0.2005  0.0305
  861POPE   C4B12154   0.253  10.184   7.876  0.1432  0.1139 -0.1152
  862POPE   NH312155  15.700   0.460   5.753  0.2133  0.2359 -0.0481
  862POPE   PO412156  15.491   0.042   5.876 -0.0390  0.1180 -0.0264
  862POPE   GL112157  15.630   0.353   6.241 -0.0942  0.1247  0.6226
  862POPE   GL212158  15.898   0.553   6.352 -0.2355 -0.2229 -0.0236
  862POPE   C1A12159  15.439   0.439   6.620  0.2852  0.1233  0.1164
  862POPE   D2A12160  15.390   0.338   7.023 -0.3069 -0.1362 -0.0485
  862POPE   C3A12161  15.539   0.298   7.473  0.2177 -0.0463  0.0224
  862POPE   C4A12162  15.626   0.209   7.784 -0.0810  0.3602  0.0389
  862POPE   C1B12163  15.924   0.317   6.788  0.3018 -0.0303  0.3202
  862POPE   C2B12164  16.250   0.149   7.065 -0.1342 -0.1473 -0.4181
  862POPE   C3B12165  16.105   0.018   7.438  0.0724 -0.0681 -0.2988
  862POPE   C4B12166  16.182   0.035   7.928 -0.1299  0.1815 -0.0620
  863POPE   NH312167  12.646  16.377   5.856  0.0272  0.1345  0.2621
  863POPE   PO412168  13.097  16.491   5.891 -0.1223  0.0331  0.0075
  863POPE   GL112169  13.127  16.461   6.310  0.0320  0.2555 -0.0187
  863POPE   GL212170  12.821  16.257   6.362 -0.0469 -0.1690  0.1230
  863POPE   C1A12171  13.155  16.687   6.744  0.0726 -0.1937  0.0836
  863POPE   D2A12172  13.085  16.896   7.145  0.0186 -0.1160 -0.1363
  863POPE   C3A12173  13.186  16.756   7.519  0.3899  0.2984 -0.1352
  863POPE   C4A12174  13.187  16.969   7.896 -0.3192 -0.3448  0.1809
  863POPE   C1B12175  12.925  16.208   6.780  0.0563  0.1008  0.0415
  863POPE   C2B12176  12.815  16.468   7.176  0.0024  0.1519  0.2008
  863POPE   C3B12177  12.704  16.643   7.487  0.0562  0.0988  0.2308
  863POPE   C4B12178  12.679  16.934   7.778 -0.0405 -0.2386 -0.2705
  864POPE   NH312179  11.574  14.656   5.572  0.3547 -0.0235 -0.0753
  864POPE   PO412180  11.249  14.399   5.619  0.1595 -0.0543  0.2252
  864POPE   GL112181  11.238  14.536   6.036 -0.0301 -0.0767  0.0626
  864POPE   GL212182  11.397  14.650   6.058  0.0661 -0.0055  0.0395
  864POPE   C1A12183  11.045  14.644   6.424 -0.0555 -0.0733 -0.2203
  864POPE   D2A12184  11.266  14.798   6.706 -0.2058 -0.1767 -0.1308
  864POPE   C3A12185  11.213  14.816   7.127  0.1088 -0.2665  0.0122
  864POPE   C4A12186  11.380  14.736   7.449  0.0808 -0.1491 -0.3851
  864POPE   C1B12187  11.676  14.605   6.388  0.0197 -0.1463 -0.0633
  864POPE   C2B12188  11.905  14.652   6.674 -0.1000  0.3707  0.3121
  864POPE   C3B12189  12.219  14.648   6.967 -0.1584  0.0807  0.4456
  864POPE   C4B12190  12.235  14.519   7.388 -0.0401 -0.0820 -0.1654
  865POPE   NH312191   1.184   8.361   5.916  0.2796 -0.0101  0.0191
  865POPE   PO412192   0.753   8.561   6.056  0.0912  0.0084 -0.0466
  865POPE   GL112193   0.670   8.638   6.486  0.0345 -0.1540 -0.1188
  865POPE   GL212194   0.818   8.867   6.545 -0.0470 -0.0098 -0.2255
  865POPE   C1A12195   0.500   8.727   6.906  0.1230  0.0655 -0.1547
  865POPE   D2A12196   0.760   8.928   7.205 -0.1220  0.0339 -0.1922
  865POPE   C3A12197   0.793   8.863   7.636 -0.1759 -0.3028  0.0472
  865POPE   C4A12198   0.713   8.503   7.965  0.0735  0.1882 -0.1110
  865POPE   C1B12199   1.049   9.013   6.805  0.0261 -0.2815  0.1414
  865POPE   C2B12200   1.111   9.250   7.133 -0.1762  0.2513 -0.3407
  865POPE   C3B12201   1.305   9.246   7.638  0.0815  0.0692 -0.1447
  865POPE   C4B12202   1.706   9.438   7.711 -0.2782  0.0976 -0.4111
  866POPE   NH312203   5.401   8.501   6.367  0.2131 -0.0003 -0.2097
  866POPE   PO412204   4.988   8.254   6.412 -0.2391  0.1040  0.1878
  866POPE   GL112205   4.955   8.595   6.746  0.2442 -0.2030 -0.4419
  866POPE   GL212206   4.572   8.475   6.815  0.0503 -0.1924 -0.3377
  866POPE   C1A12207   5.044   8.798   7.190  0.0188 -0.3479  0.0012
  866POPE   D2A12208   4.964   8.755   7.522  0.1729 -0.0910  0.0295
  866POPE   C3A12209   5.147   9.055   7.811 -0.0184  0.3272  0.1623
  866POPE   C4A12210   5.318   9.430   7.748 -0.2139 -0.1910  0.1859
  866POPE   C1B12211   4.701   8.418   7.258 -0.0089  0.0535  0.1126
  866POPE   C2B12212   4.402   8.453   7.595 -0.3163 -0.2087  0.0761
  866POPE   C3B12213   4.320   8.544   8.070 -0.0270  0.0660 -0.0231
  866POPE   C4B12214   4.685   8.455   8.376  0.2914 -0.2184  0.1224
  867POPE   NH312215   7.302  13.355   5.959 -0.0953  0.0786 -0.3847
  867POPE   PO412216   7.037  13.696   5.963 -0.1312 -0.0183 -0.1221
  867POPE   GL112217   7.039  13.766   6.405  0.0458 -0.3836  0.2554
  867POPE   GL212218   7.352  13.641   6.416  0.0468 -0.0930  0.3882
  867POPE   C1A12219   7.151  13.893   6.840  0.2165  0.0165 -0.0227
  867POPE   D2A12220   7.420  13.875   7.188  0.0449 -0.1112 -0.2113
  867POPE   C3A12221   7.375  14.223   7.532  0.3380 -0.2276  0.0491
  867POPE   C4A12222   7.042  14.331   7.789  0.2866  0.0613 -0.0625
  867POPE   C1B12223   7.600  13.424   6.644 -0.0289  0.0084 -0.0486
  867POPE   C2B12224   7.850  13.082   6.811 -0.0283 -0.3906 -0.0949
  867POPE   C3B12225   7.952  12.866   7.150 -0.3718  0.1861 -0.0414
  867POPE   C4B12226   8.024  12.548   7.524 -0.2138 -0.1647 -0.0475
  868POPE   NH312227  10.023   4.304   6.106 -0.1915  0.1026  0.5171
  868POPE   PO412228   9.591   4.363   6.256 -0.0015 -0.0786 -0.0582
  868POPE   GL112229   9.500   4.262   6.695 -0.0181 -0.1425  0.1832
  868POPE   GL212230   9.380   4.513   6.859 -0.1992  0.0062  0.0794
  868POPE   C1A12231   9.462   3.972   7.099  0.0402  0.1448  0.1078
  868POPE   D2A12232   9.302   3.839   7.460  0.3172  0.0571  0.0549
  868POPE   C3A12233   9.430   3.952   7.882  0.3185  0.4649  0.3031
  868POPE   C4A12234   9.675   4.052   8.227 -0.0771 -0.5397  0.1461
  868POPE   C1B12235   9.406   4.410   7.337 -0.0929  0.3465  0.0635
  868POPE   C2B12236   9.277   4.585   7.781 -0.2457  0.0047 -0.0370
  868POPE   C3B12237   9.157   4.381   8.112  0.0515 -0.0072 -0.1294
  868POPE   C4B12238   9.316   4.236   8.553  0.0429  0.2054  0.2097
  869POPE   NH312239  11.173   4.854   6.788  0.1336 -0.0188 -0.2281
  869POPE   PO412240  10.920   4.618   6.596 -0.1868 -0.1182 -0.0671
  869POPE   GL112241  10.996   4.317   6.850 -0.2361  0.2974  0.1123
  869POPE   GL212242  10.676   4.229   6.957 -0.2645  0.0638  0.1827
  869POPE   C1A12243  11.218   4.191   7.262 -0.0258 -0.1923  0.0706
  869POPE   D2A12244  11.440   3.902   7.157 -0.1875  0.2010 -0.0776
  869POPE   C3A12245  11.447   3.623   7.533 -0.0247 -0.1560 -0.0937
  869POPE   C4A12246  11.374   3.309   7.865  0.2271 -0.1144  0.1587
  869POPE   C1B12247  10.612   4.002   7.312 -0.1621  0.1165  0.2391
  869POPE   C2B12248  10.379   4.064   7.698 -0.2671  0.2157 -0.2272
  869POPE   C3B12249  10.200   4.003   8.051 -0.0226  0.0662 -0.0747
  869POPE   C4B12250  10.072   3.782   8.388 -0.0718  0.0199  0.1210
  870POPE   NH312251  15.762   9.026   6.204 -0.1381 -0.0718 -0.0366
  870POPE   PO412252  15.387   9.260   6.159  0.1193  0.0744  0.3610
  870POPE   GL112253  15.147   8.953   6.436 -0.0653 -0.2940  0.1712
  870POPE   GL212254  15.460   8.833   6.657 -0.1505 -0.1471  0.0967
  870POPE   C1A12255  15.115   8.520   6.695  0.2837 -0.1529  0.0436
  870POPE   D2A12256  15.378   8.406   6.962  0.1428  0.0459 -0.0153
  870POPE   C3A12257  15.348   8.466   7.326 -0.0787  0.2484 -0.0341
  870POPE   C4A12258  15.352   8.602   7.732  0.1514  0.0898  0.0096
  870POPE   C1B12259  15.442   8.992   7.014  0.0458 -0.3413 -0.1958
  870POPE   C2B12260  15.400   9.044   7.493  0.1500 -0.1644  0.2411
  870POPE   C3B12261  15.458   9.170   7.874  0.0817  0.0717 -0.1629
  870POPE   C4B12262  15.723   9.078   8.232  0.3886 -0.1361 -0.3897
  871POPE   NH312263  10.358  11.162   5.634 -0.0108  0.1436  0.0733
  871POPE   PO412264  10.443  11.574   5.803 -0.3058 -0.0246 -0.4104
  871POPE   GL112265  10.196  11.663   6.137  0.1234  0.1811 -0.1957
  871POPE   GL212266  10.186  11.251   6.176  0.0748 -0.2605 -0.0613
  871POPE   C1A12267  10.002  11.865   6.491 -0.0615  0.0136 -0.2629
  871POPE   D2A12268   9.787  11.726   6.832 -0.0224  0.1806 -0.2124
  871POPE   C3A12269   9.877  11.497   7.204  0.2137  0.0742 -0.2267
  871POPE   C4A12270  10.186  11.634   7.429  0.0630  0.0774 -0.0992
  871POPE   C1B12271  10.406  11.287   6.536  0.0697  0.1663 -0.1110
  871POPE   C2B12272  10.440  11.254   7.060 -0.0792 -0.0776 -0.1038
  871POPE   C3B12273  10.682  11.260   7.571  0.0683 -0.0569  0.0390
  871POPE   C4B12274  10.565  11.004   7.903  0.0978 -0.1223  0.2372
  872YOPE   NH312275   6.405  17.592   6.224  0.1892 -0.0309 -0.0275
  872YOPE   PO412276   6.702  17.863   6.050  0.2299 -0.0913 -0.0605
  872YOPE   GL112277   6.769  17.825   6.530  0.1921  0.2498 -0.0103
  872YOPE   GL212278   6.862  18.084   6.774 -0.1474  0.0236  0.1695
  872YOPE   C1A12279   6.764  17.539   6.904 -0.1086  0.0809 -0.2609
  872YOPE   D2A12280   6.572  17.675   7.267  0.0756 -0.1385 -0.1800
  872YOPE   C3A12281   6.064  17.639   7.448 -0.1612 -0.1539  0.0530
  872YOPE   C4A12282   5.785  17.782   7.684 -0.2467 -0.0429  0.1802
  872YOPE   C1B12283   6.890  18.078   7.133 -0.0017  0.0735 -0.3275
  872YOPE   C2B12284   6.755  18.120   7.546  0.2199 -0.4313 -0.2566
  872YOPE   D3B12285   6.471  18.395   7.857  0.1021  0.2880  0.4854
  872YOPE   C4B12286   6.457  18.560   8.236  0.0100  0.1798  0.0393
  873YOPE   NH312287   7.145   0.903   6.081  0.0508 -0.1833  0.2841
  873YOPE   PO412288   7.560   1.087   6.191  0.1781 -0.2250 -0.0697
  873YOPE   GL112289   7.673   0.941   6.648  0.1440 -0.1775 -0.2246
  873YOPE   GL212290   7.957   0.787   6.723 -0.0126 -0.3721 -0.3680
  873YOPE   C1A12291   7.562   0.961   7.114  0.0535 -0.0545 -0.0098
  873YOPE   D2A12292   7.495   0.851   7.470 -0.1992 -0.0226 -0.1773
  873YOPE   C3A12293   7.601   1.016   7.803 -0.0671 -0.0129  0.3650
  873YOPE   C4A12294   7.650   1.441   7.912  0.2519 -0.3230  0.1688
  873YOPE   C1B12295   7.908   0.636   7.063  0.2781 -0.2421  0.1819
  873YOPE   C2B12296   7.914   0.573   7.520 -0.0345 -0.1437 -0.1047
  873YOPE   D3B12297   7.653   0.292   7.833 -0.3571  0.1243 -0.1998
  873YOPE   C4B12298   7.357   0.181   8.182 -0.0403  0.4023 -0.0355
  874YOPE   NH312299  13.411  12.003   6.298  0.3510  0.1106 -0.1463
  874YOPE   PO412300  13.654  12.454   6.219  0.0333  0.2033 -0.3948
  874YOPE   GL112301  13.729  12.243   6.660 -0.2170  0.2948 -0.1919
  874YOPE   GL212302  14.038  12.289   6.538 -0.2809 -0.0322  0.0692
  874YOPE   C1A12303  13.745  12.196   7.153 -0.0110 -0.1017  0.1332
  874YOPE   D2A12304  13.905  12.262   7.640  0.3655 -0.0223  0.0903
  874YOPE   C3A12305  14.225  11.991   7.779  0.1531 -0.1903 -0.1183
  874YOPE   C4A12306  14.284  11.644   7.987 -0.0884  0.1839  0.3206
  874YOPE   C1B12307  14.218  12.269   6.988 -0.0339  0.0169 -0.1252
  874YOPE   C2B12308  14.410  12.283   7.380  0.1924 -0.1294 -0.0480
  874YOPE   D3B12309  14.296  12.568   7.716  0.0453 -0.3056 -0.0526
  874YOPE   C4B12310  14.266  12.591   8.178 -0.0794  0.0121 -0.2020
  875YOPE   NH312311   7.127  15.326   5.463  0.0781  0.0675 -0.0795
  875YOPE   PO412312   6.809  15.496   5.780 -0.0823 -0.3799 -0.4526
  875YOPE   GL112313   6.733  15.587   6.207 -0.4526 -0.1794 -0.0636
  875YOPE   GL212314   7.006  15.564   6.255 -0.3942 -0.2794 -0.2653
  875YOPE   C1A12315   6.754  15.398   6.677  0.1573 -0.0221  0.1890
  875YOPE   D2A12316   7.001  15.423   7.039 -0.3624 -0.3133 -0.0555
  875YOPE   C3A12317   7.276  15.033   7.247 -0.1538  0.0757 -0.2196
  875YOPE   C4A12318   7.567  14.729   7.439  0.0141 -0.0408  0.0234
  875YOPE   C1B12319   7.258  15.472   6.588 -0.0994 -0.2112 -0.1448
  875YOPE   C2B12320   7.556  15.250   6.917 -0.0301  0.0256 -0.1331
  875YOPE   D3B12321   7.840  15.013   7.109 -0.1493  0.0990  0.0985
  875YOPE   C4B12322   8.057  14.785   7.383  0.1504 -0.2885  0.0189
  876YOPE   NH312323  14.565   5.953   6.442 -0.0390 -0.0510 -0.0646
  876YOPE   PO412324  14.425   5.539   6.437 -0.2539  0.0476  0.0055
  876YOPE   GL112325  14.361   5.549   6.855  0.1445  0.0666 -0.1252
  876YOPE   GL212326  14.593   5.626   6.986  0.3204 -0.2236  0.1458
  876YOPE   C1A12327  14.053   5.571   7.209  0.0549 -0.2269  0.0126
  876YOPE   D2A12328  13.869   5.586   7.603 -0.0352  0.3753 -0.0001
  876YOPE   C3A12329  13.994   5.471   8.007  0.0022  0.1082  0.1141
  876YOPE   C4A12330  14.110   5.266   8.417 -0.0407  0.0612  0.1210
  876YOPE   C1B12331  14.556   5.557   7.382  0.0828  0.1805  0.0914
  876YOPE   C2B12332  14.357   5.666   7.683  0.3540  0.1190  0.1475
  876YOPE   D3B12333  14.244   5.918   8.100 -0.0146  0.2750 -0.2037
  876YOPE   C4B12334  14.229   6.056   8.547 -0.0097  0.3420  0.0051
  877YOPE   NH312335  10.606   1.753   5.869 -0.2225 -0.1793  0.1750
  877YOPE   PO412336  10.207   1.944   5.849 -0.3160 -0.1130  0.7113
  877YOPE   GL112337  10.280   1.857   6.283  0.2369 -0.1726  0.0690
  877YOPE   GL212338  10.222   2.144   6.418  0.1177 -0.1861  0.3513
  877YOPE   C1A12339  10.511   1.789   6.678 -0.1428 -0.2276 -0.0991
  877YOPE   D2A12340  10.450   1.640   7.092  0.2357  0.1071  0.2319
  877YOPE   C3A12341  10.158   1.855   7.365 -0.2010  0.0513  0.1040
  877YOPE   C4A12342  10.036   2.013   7.783 -0.0574  0.2850 -0.2463
  877YOPE   C1B12343  10.745   2.279   6.594  0.0452  0.1309 -0.2125
  877YOPE   C2B12344  10.909   2.240   7.014  0.1026  0.0097  0.2922
  877YOPE   D3B12345  11.306   2.191   7.143 -0.0913  0.2997 -0.2864
  877YOPE   C4B12346  11.553   1.985   7.482 -0.2302 -0.0598  0.0158
  878YOPE   NH312347   9.447   1.332   5.732 -0.1047  0.2983 -0.0372
  878YOPE   PO412348   9.326   1.722   5.994  0.0792 -0.0802  0.1874
  878YOPE   GL112349   9.554   1.622   6.337 -0.3640  0.0165 -0.0153
  878YOPE   GL212350   9.642   1.891   6.584  0.0899 -0.1829  0.1634
  878YOPE   C1A12351   9.354   1.485   6.790 -0.0862 -0.0005  0.1090
  878YOPE   D2A12352   9.086   1.589   7.169  0.2255  0.2571 -0.0479
  878YOPE   C3A12353   9.054   1.372   7.594  0.1512  0.0260 -0.1853
  878YOPE   C4A12354   8.971   1.219   7.971  0.4309 -0.1710 -0.1728
  878YOPE   C1B12355   9.430   1.930   6.938 -0.4901  0.1522 -0.0276
  878YOPE   C2B12356   9.576   1.844   7.403  0.1231  0.3167 -0.0287
  878YOPE   D3B12357   9.398   1.799   7.730 -0.0422 -0.0608  0.1231
  878YOPE   C4B12358   9.337   1.692   8.054 -0.1083 -0.2923  0.1955
  879YOPE   NH312359  14.617   0.571   6.027  0.2457  0.2833 -0.3123
  879YOPE   PO412360  14.906   0.779   6.141 -0.1605  0.0366 -0.0477
  879YOPE   GL112361  15.060   0.690   6.488 -0.2398  0.0257  0.1086
  879YOPE   GL212362  14.853   0.482   6.557  0.2973  0.1344  0.5485
  879YOPE   C1A12363  15.220   0.822   6.848  0.1325  0.4108 -0.1897
  879YOPE   D2A12364  15.471   0.777   7.266  0.0858 -0.0599  0.0179
  879YOPE   C3A12365  15.436   0.978   7.606 -0.0398  0.0750 -0.3413
  879YOPE   C4A12366  15.213   1.160   8.008 -0.3425  0.1675 -0.1242
  879YOPE   C1B12367  14.925   0.459   7.097 -0.0582  0.1735  0.1751
  879YOPE   C2B12368  15.060   0.523   7.595  0.2120  0.2726 -0.3256
  879YOPE   D3B12369  15.194   0.555   8.013  0.0015 -0.0998  0.0822
  879YOPE   C4B12370  15.457   0.730   8.225 -0.1407  0.0195  0.1070
  880YOPE   NH312371   8.702   3.767   6.529 -0.0384 -0.2119 -0.0064
  880YOPE   PO412372   8.620   4.140   6.377 -0.3977 -0.1005  0.1785
  880YOPE   GL112373   8.767   4.325   6.727  0.1066 -0.2746  0.1071
  880YOPE   GL212374   8.963   4.125   6.853  0.3994 -0.3405  0.0726
  880YOPE   C1A12375   8.897   4.588   7.013 -0.1959 -0.2431 -0.1787
  880YOPE   D2A12376   9.207   4.926   7.156  0.1317  0.1779 -0.4011
  880YOPE   C3A12377   9.222   5.095   7.608  0.3248  0.1503 -0.0059
  880YOPE   C4A12378   8.987   5.059   7.957  0.1141  0.1265  0.0742
  880YOPE   C1B12379   9.011   4.169   7.248  0.1337 -0.0066 -0.2970
  880YOPE   C2B12380   8.972   4.161   7.703 -0.2669 -0.0859 -0.0282
  880YOPE   D3B12381   8.792   4.107   8.036  0.0681  0.2447 -0.2156
  880YOPE   C4B12382   8.705   4.095   8.405 -0.1982 -0.0837  0.2935
  881YOPE   NH312383   6.498   8.322   6.042  0.0188 -0.2730 -0.0544
  881YOPE   PO412384   6.889   8.207   6.091 -0.1459 -0.2595 -0.1017
  881YOPE   GL112385   6.894   8.340   6.508  0.0065 -0.0929 -0.0396
  881YOPE   GL212386   6.815   8.619   6.554 -0.0103 -0.2106  0.0406
  881YOPE   C1A12387   7.145   8.322   6.943  0.2062 -0.0315 -0.1589
  881YOPE   D2A12388   7.221   8.430   7.386 -0.0519 -0.1392  0.1594
  881YOPE   C3A12389   7.099   8.272   7.750 -0.1983 -0.0821 -0.0258
  881YOPE   C4A12390   6.757   8.417   8.073 -0.0170  0.0866 -0.2477
  881YOPE   C1B12391   6.718   8.652   6.945 -0.3155  0.1091  0.0854
  881YOPE   C2B12392   6.843   8.750   7.306 -0.0340 -0.3695  0.0588
  881YOPE   D3B12393   6.851   8.771   7.740 -0.2931 -0.0162  0.0276
  881YOPE   C4B12394   7.211   8.717   8.015 -0.1330 -0.0830 -0.0040
  882YOPE   NH312395  12.416   3.856   6.535  0.0322 -0.1037 -0.0390
  882YOPE   PO412396  12.835   3.895   6.646 -0.3363 -0.1447 -0.0284
  882YOPE   GL112397  12.729   4.060   7.000  0.2134  0.0347 -0.0275
  882YOPE   GL212398  12.339   4.094   6.994 -0.1999 -0.0013 -0.0140
  882YOPE   C1A12399  12.771   4.003   7.513  0.1741  0.0638  0.1758
  882YOPE   D2A12400  12.580   3.805   7.820 -0.0117 -0.1449 -0.1028
  882YOPE   C3A12401  12.607   4.030   8.240  0.0036  0.1838 -0.0903
  882YOPE   C4A12402  12.298   4.168   8.480 -0.0937  0.0147 -0.0148
  882YOPE   C1B12403  12.282   4.102   7.461 -0.0394  0.1671 -0.0508
  882YOPE   C2B12404  12.161   4.126   7.940 -0.1195 -0.0592 -0.1067
  882YOPE   D3B12405  11.965   3.983   8.220  0.2047  0.1143 -0.2329
  882YOPE   C4B12406  11.818   3.905   8.579  0.1311  0.1107 -0.1092
  883YOPE   NH312407  17.524  14.871   5.574 -0.1608  0.0487  0.0298
  883YOPE   PO412408  17.184  15.059   5.797  0.1487  0.0374 -0.2096
  883YOPE   GL112409  17.245  14.969   6.186 -0.1483 -0.0567  0.1116
  883YOPE   GL212410  17.535  14.753   6.430  0.2162 -0.1545 -0.0222
  883YOPE   C1A12411  17.141  15.010   6.695 -0.2644 -0.2001  0.1739
  883YOPE   D2A12412  17.266  15.003   7.153 -0.1256 -0.0250  0.2952
  883YOPE   C3A12413  17.052  15.106   7.576 -0.0771  0.1752  0.0299
  883YOPE   C4A12414  17.206  15.220   7.909  0.2503 -0.1467 -0.0816
  883YOPE   C1B12415  17.707  14.985   6.863 -0.0138  0.2348  0.4169
  883YOPE   C2B12416  17.705  15.020   7.367 -0.1354  0.1323  0.3019
  883YOPE   D3B12417  17.613  14.982   7.716 -0.1850 -0.2990  0.0379
  883YOPE   C4B12418  17.250  14.722   7.945 -0.4108 -0.2552  0.0148
  884YOPE   NH312419   8.250   3.078   6.127 -0.0093  0.0586 -0.3276
  884YOPE   PO412420   8.610   2.881   6.246 -0.0610 -0.2932  0.2098
  884YOPE   GL112421   8.605   3.073   6.670 -0.0788 -0.1531 -0.2038
  884YOPE   GL212422   8.479   3.331   6.661 -0.2835  0.1096 -0.5390
  884YOPE   C1A12423   8.751   3.117   7.069  0.3397  0.0626 -0.0541
  884YOPE   D2A12424   8.421   2.948   7.363 -0.1325 -0.1408 -0.1057
  884YOPE   C3A12425   8.457   2.857   7.788  0.1790 -0.2216  0.1600
  884YOPE   C4A12426   8.392   2.719   8.122  0.2052 -0.0891  0.2465
  884YOPE   C1B12427   8.236   3.356   7.043 -0.0113 -0.1837 -0.0188
  884YOPE   C2B12428   8.099   3.396   7.454  0.1159  0.0432  0.2911
  884YOPE   D3B12429   8.111   3.279   7.829  0.0052 -0.2503  0.2134
  884YOPE   C4B12430   7.902   3.016   8.115  0.2071  0.1449 -0.0476
  885YOPE   NH312431  13.882   7.753   6.356  0.1989  0.2264 -0.2344
  885YOPE   PO412432  13.741   8.103   6.415 -0.0464  0.1096 -0.0599
  885YOPE   GL112433  13.824   8.171   6.770 -0.1060 -0.4049  0.0018
  885YOPE   GL212434  13.888   7.848   6.846 -0.2865 -0.1414 -0.2206
  885YOPE   C1A12435  13.791   8.427   7.107 -0.2274 -0.0386  0.0732
  885YOPE   D2A12436  13.821   8.529   7.553  0.2137  0.1732 -0.0592
  885YOPE   C3A12437  13.986   8.471   7.955  0.0987  0.4961 -0.0383
  885YOPE   C4A12438  13.850   8.226   8.296  0.2637  0.0397  0.0521
  885YOPE   C1B12439  13.724   7.700   7.282  0.2128  0.2858  0.1174
  885YOPE   C2B12440  13.877   7.709   7.675  0.0081  0.2623 -0.3029
  885YOPE   D3B12441  13.879   7.804   8.054  0.2328  0.2554 -0.1827
  885YOPE   C4B12442  13.777   7.707   8.458  0.1448 -0.0009  0.1943
  886YOPE   NH312443   3.712   7.200   6.177 -0.1249  0.0066  0.0153
  886YOPE   PO412444   3.658   7.698   6.193  0.0574 -0.1774 -0.0428
  886YOPE   GL112445   3.765   7.578   6.559  0.1410  0.1212  0.1495
  886YOPE   GL212446   3.732   7.286   6.667 -0.1491  0.0452 -0.1131
  886YOPE   C1A12447   3.906   7.776   6.835 -0.2450  0.1692 -0.2617
  886YOPE   D2A12448   4.185   8.003   7.000 -0.1763 -0.0453 -0.2801
  886YOPE   C3A12449   4.179   8.410   7.091  0.1433 -0.0923 -0.2751
  886YOPE   C4A12450   4.002   8.629   7.385  0.0292 -0.0617 -0.0305
  886YOPE   C1B12451   3.692   7.365   7.100 -0.1294  0.1117 -0.1294
  886YOPE   C2B12452   3.671   7.322   7.602  0.0554 -0.3406  0.0554
  886YOPE   D3B12453   3.691   7.318   8.075 -0.1234  0.1953  0.2677
  886YOPE   C4B12454   3.630   7.232   8.589  0.3079 -0.1598  0.1357
  887YOPE   NH312455  17.727   0.021   5.973 -0.0124  0.0487 -0.1718
  887YOPE   PO412456  18.125  -0.170   6.135  0.0063  0.3193 -0.0219
  887YOPE   GL112457  18.351  -0.267   6.446 -0.0450 -0.2798 -0.0048
  887YOPE   GL212458  18.445  -0.531   6.537  0.1220 -0.2591  0.2444
  887YOPE   C1A12459  18.685  -0.148   6.786 -0.1444 -0.2625  0.0720
  887YOPE   D2A12460  19.045   0.157   7.057  0.1444 -0.0532 -0.0564
  887YOPE   C3A12461  19.089   0.375   7.408  0.1335  0.0605  0.0137
  887YOPE   C4A12462  19.090   0.447   7.866  0.1132 -0.2826 -0.1623
  887YOPE   C1B12463  18.239  -0.590   6.901  0.3775 -0.2117  0.0270
  887YOPE   C2B12464  18.122  -0.618   7.327 -0.2430  0.0645 -0.0465
  887YOPE   D3B12465  18.376  -0.595   7.618  0.1123 -0.4434 -0.0175
  887YOPE   C4B12466  18.706  -0.460   7.838  0.0083 -0.0419  0.0169
  888YOPE   NH312467   6.620   5.250   6.378 -0.2396 -0.1987 -0.0333
  888YOPE   PO412468   6.302   5.481   6.220  0.0271  0.0527  0.3909
  888YOPE   GL112469   6.237   5.508   6.585  0.2520 -0.0717 -0.2619
  888YOPE   GL212470   6.485   5.564   6.798  0.1697 -0.1706  0.1774
  888YOPE   C1A12471   6.097   5.517   7.039  0.3133  0.0324 -0.0050
  888YOPE   D2A12472   5.987   5.255   7.394  0.0437  0.0150  0.4636
  888YOPE   C3A12473   5.974   5.167   7.775  0.0921  0.0840  0.0253
  888YOPE   C4A12474   6.123   5.193   8.274  0.0812  0.2994  0.1991
  888YOPE   C1B12475   6.627   5.570   7.142  0.0288 -0.2912  0.0998
  888YOPE   C2B12476   6.908   5.526   7.536 -0.0872  0.3785  0.0932
  888YOPE   D3B12477   7.152   5.645   7.953  0.1566  0.0789 -0.0641
  888YOPE   C4B12478   7.320   5.463   8.393  0.2012 -0.0556 -0.0602
  889YOPE   NH312479   1.945   4.770   6.370  0.1303 -0.1733  0.0658
  889YOPE   PO412480   2.173   5.164   6.391  0.2581 -0.1875  0.2749
  889YOPE   GL112481   2.138   5.018   6.767 -0.1481 -0.0629 -0.2084
  889YOPE   GL212482   2.501   5.043   6.815  0.2815  0.2550 -0.3500
  889YOPE   C1A12483   2.043   4.814   7.052 -0.1661 -0.1497 -0.0783
  889YOPE   D2A12484   2.020   4.610   7.450 -0.1322  0.0423 -0.2334
  889YOPE   C3A12485   1.948   4.824   7.837 -0.2746 -0.0071 -0.0354
  889YOPE   C4A12486   2.157   5.154   8.131  0.0233 -0.0332  0.2227
  889YOPE   C1B12487   2.419   5.065   7.262 -0.0878  0.2117 -0.1666
  889YOPE   C2B12488   2.391   5.121   7.689  0.1385 -0.0225  0.1612
  889YOPE   D3B12489   2.629   5.034   7.998 -0.0060 -0.0718  0.1383
  889YOPE   C4B12490   2.963   5.100   8.117 -0.0720 -0.3239 -0.2912
  890YOPE   NH312491  11.991   2.306   5.907  0.2146  0.3332  0.0870
  890YOPE   PO412492  11.685   2.566   6.113 -0.2722 -0.0786  0.1340
  890YOPE   GL112493  11.468   2.392   6.506 -0.2075 -0.2380  0.0832
  890YOPE   GL212494  11.260   2.545   6.703  0.2879 -0.2150 -0.2308
  890YOPE   C1A12495  11.629   2.102   6.789 -0.1809 -0.0741  0.0888
  890YOPE   D2A12496  11.632   1.702   6.939  0.0992 -0.0070  0.4437
  890YOPE   C3A12497  11.403   1.407   6.728 -0.2147 -0.1445 -0.1101
  890YOPE   C4A12498  11.272   1.228   6.373  0.0466  0.1965  0.1215
  890YOPE   C1B12499  11.602   2.589   7.033 -0.2757 -0.3452  0.0706
  890YOPE   C2B12500  11.633   2.498   7.437  0.1238  0.1950 -0.0324
  890YOPE   D3B12501  11.803   2.233   7.895  0.0956 -0.0503 -0.1291
  890YOPE   C4B12502  11.871   2.338   8.374 -0.2325  0.0085  0.1625
  891YOPE   NH312503   9.998   0.705   5.388  0.1447 -0.1018 -0.2846
  891YOPE   PO412504   9.803   0.519   5.733 -0.4033 -0.2227  0.4936
  891YOPE   GL112505   9.961   0.535   6.013  0.0303  0.0484 -0.1895
  891YOPE   GL212506   9.905   0.156   6.030  0.1901 -0.1520  0.1214
  891YOPE   C1A12507  10.114   0.416   6.549  0.1318  0.2530 -0.2431
  891YOPE   D2A12508  10.266   0.306   6.962 -0.0361 -0.0276  0.2813
  891YOPE   C3A12509  10.260   0.242   7.411  0.2320 -0.1596  0.0484
  891YOPE   C4A12510  10.195   0.387   7.805  0.1709 -0.0539 -0.1812
  891YOPE   C1B12511   9.717  -0.007   6.363  0.0300 -0.4953 -0.1147
  891YOPE   C2B12512   9.670   0.064   6.859 -0.1648  0.0997 -0.4231
  891YOPE   D3B12513   9.749   0.290   7.142  0.1532 -0.2370  0.1258
  891YOPE   C4B12514   9.589   0.734   7.338 -0.3474 -0.1852 -0.1526
  892YOPE   NH312515  13.997  11.405   6.111  0.1807  0.2015  0.1103
  892YOPE   PO412516  13.717  11.662   5.965 -0.3048 -0.2688  0.2500
  892YOPE   GL112517  13.792  11.709   6.516  0.1204  0.0716  0.1635
  892YOPE   GL212518  14.168  11.791   6.492 -0.1056 -0.1312 -0.0191
  892YOPE   C1A12519  13.689  11.655   7.004  0.0589  0.1587 -0.0470
  892YOPE   D2A12520  13.634  11.793   7.493 -0.0207  0.0297 -0.2813
  892YOPE   C3A12521  13.632  11.407   7.760 -0.6458 -0.0119  0.1096
  892YOPE   C4A12522  13.456  11.425   8.225 -0.0856  0.3052 -0.2114
  892YOPE   C1B12523  14.129  11.799   6.859 -0.1117 -0.1084  0.0967
  892YOPE   C2B12524  14.174  11.813   7.267 -0.0446 -0.0356 -0.0476
  892YOPE   D3B12525  14.085  11.539   7.578 -0.1549  0.0263  0.0730
  892YOPE   C4B12526  14.024  11.119   7.537  0.0032 -0.2836 -0.0136
  893YOPE   NH312527  10.101  10.227   5.809  0.3102  0.0406  0.0060
  893YOPE   PO412528  10.128  10.659   5.733 -0.4307 -0.1600 -0.2947
  893YOPE   GL112529   9.865  10.690   6.158  0.2932 -0.1055 -0.3927
  893YOPE   GL212530   9.694  10.434   6.266 -0.1287  0.2109 -0.1222
  893YOPE   C1A12531   9.610  10.933   6.312  0.0921 -0.1878  0.1688
  893YOPE   D2A12532   9.410  10.990   6.691 -0.1664 -0.0891  0.0905
  893YOPE   C3A12533   9.394  11.431   6.837  0.0970 -0.4818 -0.0696
  893YOPE   C4A12534   9.424  11.623   7.317  0.1708 -0.1121  0.1762
  893YOPE   C1B12535   9.474  10.391   6.556  0.1985 -0.2297 -0.1461
  893YOPE   C2B12536   9.619  10.253   7.014 -0.0971 -0.2883 -0.0591
  893YOPE   D3B12537   9.699  10.185   7.368  0.1270 -0.0867 -0.3084
  893YOPE   C4B12538   9.569   9.964   7.743 -0.0454 -0.1121 -0.0528
  894YOPE   NH312539  15.898  14.676   5.781 -0.0320  0.5583  0.1426
  894YOPE   PO412540  15.807  15.167   5.733  0.1034  0.1258  0.0815
  894YOPE   GL112541  15.803  15.331   6.186  0.2762 -0.0235  0.0443
  894YOPE   GL212542  15.487  15.290   6.424  0.1622  0.2189 -0.1552
  894YOPE   C1A12543  15.999  15.160   6.601 -0.0466  0.0017 -0.2252
  894YOPE   D2A12544  16.059  14.917   6.977  0.0373  0.3797  0.0087
  894YOPE   C3A12545  16.243  14.950   7.333  0.1286  0.0557 -0.0213
  894YOPE   C4A12546  16.394  14.736   7.646  0.1036 -0.0633  0.1749
  894YOPE   C1B12547  15.330  15.167   6.805 -0.1833  0.1912 -0.2553
  894YOPE   C2B12548  15.019  15.027   7.227 -0.1710 -0.0538 -0.1876
  894YOPE   D3B12549  15.240  15.005   7.627  0.0101 -0.1903  0.0994
  894YOPE   C4B12550  15.498  14.779   7.928  0.2586 -0.1330 -0.0384
  895YOPE   NH312551   1.609   8.630   6.159 -0.0397  0.0397 -0.3706
  895YOPE   PO412552   1.531   8.160   6.205 -0.0907 -0.1597  0.1339
  895YOPE   GL112553   1.718   8.338   6.593 -0.0826 -0.1357  0.0830
  895YOPE   GL212554   1.533   8.222   6.769 -0.1167  0.0923  0.0669
  895YOPE   C1A12555   1.840   8.572   6.986  0.0515  0.0073  0.0530
  895YOPE   D2A12556   1.822   8.697   7.392 -0.0913 -0.0527  0.1508
  895YOPE   C3A12557   2.064   8.468   7.780  0.1697 -0.0483  0.2643
  895YOPE   C4A12558   2.336   8.174   7.783 -0.2362 -0.1603 -0.0436
  895YOPE   C1B12559   1.533   8.221   7.216 -0.0645 -0.1107  0.1047
  895YOPE   C2B12560   1.444   8.367   7.624 -0.0908 -0.0809  0.2095
  895YOPE   D3B12561   1.478   8.150   8.034 -0.0135  0.3706 -0.0877
  895YOPE   C4B12562   1.412   8.059   8.470 -0.2887  0.2672 -0.2438
  896YOPE   NH312563  10.313  15.639   5.816  0.0370 -0.0701 -0.2229
  896YOPE   PO412564  10.053  15.355   5.679 -0.2374  0.1894  0.1101
  896YOPE   GL112565   9.930  15.232   5.998 -0.1795  0.1451  0.2471
  896YOPE   GL212566   9.996  15.479   6.183 -0.0237  0.0736  0.0128
  896YOPE   C1A12567  10.132  14.902   6.317  0.0861 -0.2386  0.1149
  896YOPE   D2A12568  10.559  14.661   6.356  0.1409  0.3744  0.1563
  896YOPE   C3A12569  10.608  14.505   6.732  0.0579 -0.0349 -0.0330
  896YOPE   C4A12570  10.973  14.379   7.053 -0.4881 -0.3330  0.2824
  896YOPE   C1B12571   9.924  15.672   6.534  0.0615 -0.0827 -0.0312
  896YOPE   C2B12572   9.828  15.781   6.997  0.1522 -0.0016 -0.1815
  896YOPE   D3B12573   9.780  15.667   7.447  0.2295  0.0503  0.3214
  896YOPE   C4B12574   9.684  15.279   7.745  0.0868  0.0427  0.0486
  897YOPE   NH312575   4.161  16.972   6.334  0.2330  0.1383  0.0027
  897YOPE   PO412576   4.452  17.192   6.427 -0.0030 -0.0311 -0.0867
  897YOPE   GL112577   4.267  17.254   6.767  0.0225 -0.1127 -0.1317
  897YOPE   GL212578   3.943  17.121   6.785 -0.0151  0.0554 -0.0692
  897YOPE   C1A12579   4.202  17.248   7.289 -0.2715  0.1478  0.0310
  897YOPE   D2A12580   4.280  17.249   7.685 -0.0556  0.1732 -0.3605
  897YOPE   C3A12581   4.216  17.675   7.902 -0.0045 -0.0879  0.0469
  897YOPE   C4A12582   4.245  17.796   8.253 -0.0839 -0.1843 -0.2336
  897YOPE   C1B12583   3.942  16.863   7.111  0.0965  0.0912  0.1476
  897YOPE   C2B12584   3.728  16.695   7.450 -0.2530  0.0823 -0.2597
  897YOPE   D3B12585   3.727  16.422   7.821  0.1247  0.0865 -0.2220
  897YOPE   C4B12586   3.726  16.046   8.209 -0.1246 -0.1580  0.0150
  898YOPE   NH312587   2.864  15.823   6.184  0.0576  0.0653  0.1156
  898YOPE   PO412588   3.055  16.239   6.212 -0.0633 -0.1191 -0.3401
  898YOPE   GL112589   2.897  15.960   6.658 -0.3567  0.1883  0.1718
  898YOPE   GL212590   2.495  15.878   6.510 -0.0650 -0.1183  0.1914
  898YOPE   C1A12591   2.907  15.982   7.007  0.0070 -0.3390  0.0892
  898YOPE   D2A12592   2.915  15.919   7.436 -0.2656  0.0330  0.0150
  898YOPE   C3A12593   2.870  16.199   7.789 -0.1222  0.0437 -0.0625
  898YOPE   C4A12594   2.728  16.501   8.093  0.1028 -0.2071  0.0347
  898YOPE   C1B12595   2.425  15.953   6.982  0.1138  0.0628  0.2589
  898YOPE   C2B12596   2.133  16.217   7.134  0.0699  0.0759 -0.2741
  898YOPE   D3B12597   2.025  16.159   7.604  0.0888  0.2356 -0.0741
  898YOPE   C4B12598   2.042  16.348   8.104  0.0586  0.2633  0.1107
  899YOPE   NH312599  10.158   5.600   6.713 -0.2733 -0.0841 -0.0960
  899YOPE   PO412600  10.496   5.198   6.812 -0.1214  0.2019  0.0777
  899YOPE   GL112601  10.607   5.003   7.166  0.0166 -0.0981 -0.2338
  899YOPE   GL212602  10.818   4.734   7.151  0.2109  0.1230 -0.2223
  899YOPE   C1A12603  10.784   4.967   7.595  0.2290  0.0042  0.0831
  899YOPE   D2A12604  10.986   5.173   8.095 -0.1811 -0.0938 -0.3666
  899YOPE   C3A12605  11.227   4.869   8.313  0.1976 -0.5076 -0.2698
  899YOPE   C4A12606  11.103   4.487   8.571 -0.1574 -0.1898  0.2005
  899YOPE   C1B12607  10.823   4.447   7.418 -0.1104 -0.1059 -0.1723
  899YOPE   C2B12608  10.848   4.156   7.708 -0.0891 -0.3054 -0.1542
  899YOPE   D3B12609  11.156   3.944   7.868 -0.3081 -0.1220  0.1035
  899YOPE   C4B12610  11.581   3.781   7.957 -0.3343 -0.0508 -0.0105
  900YOPE   NH312611  16.498   6.733   6.302 -0.1436  0.2346  0.0026
  900YOPE   PO412612  16.912   6.568   6.396 -0.2425 -0.1564 -0.0609
  900YOPE   GL112613  17.226   6.625   6.750 -0.5191 -0.1839 -0.2140
  900YOPE   GL212614  17.287   6.236   6.860  0.0966  0.1607  0.0634
  900YOPE   C1A12615  17.184   6.602   7.194  0.3234 -0.0432 -0.1912
  900YOPE   D2A12616  17.371   6.292   7.470 -0.0115  0.1703 -0.1892
  900YOPE   C3A12617  17.564   6.069   7.784 -0.1060 -0.1931 -0.0454
  900YOPE   C4A12618  18.007   6.149   8.009  0.1485 -0.0356  0.1050
  900YOPE   C1B12619  17.635   5.927   7.161  0.1637  0.2821 -0.0425
  900YOPE   C2B12620  17.883   5.651   7.518 -0.0448 -0.0961 -0.0177
  900YOPE   D3B12621  18.114   5.248   7.558 -0.2196 -0.1888 -0.1020
  900YOPE   C4B12622  18.092   4.920   7.341  0.2165 -0.0239  0.0495
  901YOPE   NH312623   0.786  16.481   5.830  0.1572 -0.0938  0.0599
  901YOPE   PO412624   0.933  16.911   5.965 -0.1184 -0.0827 -0.0448
  901YOPE   GL112625   0.778  16.712   6.311 -0.0198  0.0504  0.2189
  901YOPE   GL212626   1.021  16.376   6.330  0.1157  0.0536  0.2704
  901YOPE   C1A12627   0.881  16.714   6.720 -0.0521  0.0655  0.0101
  901YOPE   D2A12628   0.717  16.801   7.169 -0.0700  0.0707  0.0280
  901YOPE   C3A12629   0.324  16.602   7.313  0.5445 -0.1620 -0.0826
  901YOPE   C4A12630   0.149  16.628   7.767  0.0328  0.0951 -0.2133
  901YOPE   C1B12631   1.068  16.159   6.864  0.0509 -0.3639 -0.0195
  901YOPE   C2B12632   1.063  15.868   7.212  0.1814 -0.1757 -0.1986
  901YOPE   D3B12633   0.966  15.778   7.617 -0.1273  0.1688 -0.3343
  901YOPE   C4B12634   1.020  15.751   8.079 -0.1613  0.2019  0.0413
  902YOPE   NH312635   4.777   2.858   6.250 -0.0114 -0.1620 -0.1934
  902YOPE   PO412636   4.700   2.451   6.063 -0.1577 -0.2425 -0.1802
  902YOPE   GL112637   4.659   2.445   6.559 -0.0192  0.2327 -0.1592
  902YOPE   GL212638   4.465   2.658   6.614  0.3714 -0.3636  0.1719
  902YOPE   C1A12639   4.730   2.122   6.885 -0.0699  0.0526  0.1082
  902YOPE   D2A12640   4.480   1.866   7.118 -0.2088 -0.2295 -0.0995
  902YOPE   C3A12641   4.353   1.729   7.493 -0.2635  0.0353  0.1146
  902YOPE   C4A12642   4.466   1.380   7.820 -0.0831  0.1151  0.4483
  902YOPE   C1B12643   4.374   2.755   7.025 -0.2310 -0.0318  0.0153
  902YOPE   C2B12644   4.458   2.999   7.375  0.0840  0.1145 -0.1632
  902YOPE   D3B12645   4.702   3.202   7.667  0.2522 -0.2522  0.2222
  902YOPE   C4B12646   4.849   3.275   8.149  0.2045  0.3780 -0.0301
  903YOPE   NH312647  16.018   0.127   5.986 -0.1365 -0.0715 -0.0324
  903YOPE   PO412648  16.216   0.467   5.865  0.1557 -0.1187  0.3783
  903YOPE   GL112649  16.379   0.542   6.249  0.0271 -0.1977 -0.1321
  903YOPE   GL212650  16.382   0.720   6.478 -0.0147  0.0417 -0.3284
  903YOPE   C1A12651  16.473   0.197   6.484 -0.1851 -0.1183  0.0595
  903YOPE   D2A12652  16.250  -0.125   6.568  0.1616  0.0667  0.0461
  903YOPE   C3A12653  16.177  -0.337   6.964  0.0268 -0.1456 -0.2356
  903YOPE   C4A12654  16.209  -0.733   7.147 -0.0609  0.0984  0.0169
  903YOPE   C1B12655  16.378   0.564   6.879 -0.1289 -0.1570 -0.0891
  903YOPE   C2B12656  16.490   0.583   7.351  0.0463 -0.1027  0.0110
  903YOPE   D3B12657  16.318   0.522   7.799 -0.0763 -0.0993 -0.0689
  903YOPE   C4B12658  16.264   0.808   8.164 -0.0481  0.0061 -0.0835
  904YOPE   NH312659   8.784   5.788   6.425 -0.2161  0.1804 -0.0838
  904YOPE   PO412660   9.253   6.006   6.637 -0.1298 -0.1310 -0.0228
  904YOPE   GL112661   9.125   5.704   6.917  0.0318  0.0895  0.2305
  904YOPE   GL212662   9.417   5.690   7.067 -0.1692  0.4412 -0.0917
  904YOPE   C1A12663   9.050   5.568   7.348  0.1456  0.1036 -0.0712
  904YOPE   D2A12664   9.094   5.646   7.843 -0.0992  0.1573  0.1715
  904YOPE   C3A12665   9.252   5.409   8.204 -0.0061  0.0370 -0.1328
  904YOPE   C4A12666   8.991   5.112   8.474  0.0959 -0.0314  0.3884
  904YOPE   C1B12667   9.552   5.520   7.519  0.0014  0.2217 -0.0746
  904YOPE   C2B12668   9.643   5.554   7.947  0.1901  0.3248 -0.1860
  904YOPE   D3B12669   9.764   5.514   8.387  0.1452  0.0285 -0.0989
  904YOPE   C4B12670  10.140   5.716   8.531 -0.1870  0.0499  0.0867
  905YOPE   NH312671   8.262  10.808   5.783 -0.0683 -0.1557 -0.3849
  905YOPE   PO412672   8.173  11.142   5.941 -0.0920  0.4083  0.1614
  905YOPE   GL112673   8.154  11.236   6.397 -0.0345  0.0556  0.1036
  905YOPE   GL212674   8.480  11.325   6.493 -0.1336 -0.3243  0.2334
  905YOPE   C1A12675   8.069  11.025   6.817  0.1821 -0.1523 -0.2443
  905YOPE   D2A12676   7.794  11.025   7.098  0.1416 -0.0103 -0.1047
  905YOPE   C3A12677   7.850  11.120   7.540 -0.1442 -0.2746  0.1581
  905YOPE   C4A12678   7.831  11.376   8.010 -0.1846  0.0283 -0.0254
  905YOPE   C1B12679   8.410  11.476   6.865 -0.0488 -0.3632 -0.0111
  905YOPE   C2B12680   8.484  11.454   7.313 -0.0115  0.1247 -0.0617
  905YOPE   D3B12681   8.178  11.671   7.677 -0.0475  0.1885 -0.2260
  905YOPE   C4B12682   8.161  11.817   8.135 -0.4756  0.1770  0.1272
  906YOPE   NH312683   1.983  11.835   6.286 -0.1093 -0.0777  0.1801
  906YOPE   PO412684   1.749  11.404   6.165  0.0377 -0.1043 -0.1086
  906YOPE   GL112685   1.746  11.519   6.647 -0.4159 -0.1398  0.1057
  906YOPE   GL212686   2.038  11.418   6.696 -0.0450 -0.1477 -0.0354
  906YOPE   C1A12687   1.564  11.367   7.050  0.1078 -0.0596  0.3112
  906YOPE   D2A12688   1.180  11.317   7.264  0.0544 -0.1328 -0.0390
  906YOPE   C3A12689   1.252  11.072   7.793 -0.1317  0.3652 -0.2362
  906YOPE   C4A12690   0.934  10.915   8.159  0.0241  0.1287 -0.1921
  906YOPE   C1B12691   2.074  11.547   7.007  0.1067 -0.0739 -0.1714
  906YOPE   C2B12692   2.183  11.645   7.405 -0.0833  0.3573  0.1217
  906YOPE   D3B12693   2.093  11.734   7.824  0.0476 -0.0530  0.2375
  906YOPE   C4B12694   2.112  11.766   8.163 -0.0806 -0.0081 -0.1710
  907YOPE   NH312695  12.791   2.821   5.892  0.0032 -0.1824 -0.1955
  907YOPE   PO412696  12.970   3.248   6.027 -0.3802  0.4867  0.1490
  907YOPE   GL112697  13.113   2.924   6.334  0.0553 -0.0318  0.1052
  907YOPE   GL212698  13.325   3.085   6.636 -0.2604  0.1266  0.0461
  907YOPE   C1A12699  12.956   2.606   6.706 -0.0393 -0.4034 -0.0594
  907YOPE   D2A12700  12.890   2.216   6.904 -0.2943  0.2274 -0.2265
  907YOPE   C3A12701  12.966   2.191   7.345  0.0231  0.1479  0.0046
  907YOPE   C4A12702  13.052   2.023   7.738  0.2944 -0.2727  0.1092
  907YOPE   C1B12703  13.763   3.054   6.868 -0.0837 -0.2369 -0.0066
  907YOPE   C2B12704  13.856   3.150   7.261 -0.0455  0.0715  0.1346
  907YOPE   D3B12705  13.898   3.296   7.724 -0.1048  0.1204 -0.1030
  907YOPE   C4B12706  13.932   3.643   8.033  0.1111  0.0260  0.2286
  908YOPE   NH312707  11.591   7.660   6.785  0.2130  0.0269  0.1104
  908YOPE   PO412708  11.993   7.412   6.715  0.1539  0.0025 -0.0867
  908YOPE   GL112709  12.048   7.762   6.981 -0.2096 -0.2308  0.1257
  908YOPE   GL212710  11.862   7.517   7.263  0.2795  0.4248 -0.0099
  908YOPE   C1A12711  12.169   7.948   7.418 -0.0773  0.0488 -0.0207
  908YOPE   D2A12712  12.398   8.127   7.722 -0.0328 -0.2796 -0.0480
  908YOPE   C3A12713  12.300   8.429   7.981 -0.2968  0.0189 -0.0044
  908YOPE   C4A12714  12.522   8.824   8.117  0.1773 -0.2310  0.0246
  908YOPE   C1B12715  11.481   7.409   7.467 -0.1037 -0.0329 -0.0281
  908YOPE   C2B12716  11.408   7.225   7.873 -0.0366  0.0986  0.2567
  908YOPE   D3B12717  11.335   7.296   8.284 -0.1191  0.0414  0.5437
  908YOPE   C4B12718  11.081   7.324   8.691  0.0662 -0.1099 -0.0902
  909YOPE   NH312719  16.715   9.477   6.073  0.0104  0.0742 -0.0047
  909YOPE   PO412720  16.259   9.212   6.150 -0.2577 -0.0248 -0.3123
  909YOPE   GL112721  16.178   9.071   6.477 -0.2234  0.1157  0.2180
  909YOPE   GL212722  16.341   8.884   6.694 -0.2780  0.2295 -0.1439
  909YOPE   C1A12723  15.943   9.168   6.879  0.0940  0.4471  0.2011
  909YOPE   D2A12724  15.880   9.180   7.335 -0.0341 -0.0745  0.2071
  909YOPE   C3A12725  16.088   9.389   7.689 -0.1601  0.1634 -0.0509
  909YOPE   C4A12726  16.015   9.481   8.113  0.2319 -0.0660  0.2941
  909YOPE   C1B12727  16.319   8.940   7.037 -0.2173 -0.2004 -0.3300
  909YOPE   C2B12728  16.230   8.925   7.549  0.3399  0.3549  0.1175
  909YOPE   D3B12729  16.271   9.049   7.959 -0.1126 -0.1531 -0.1146
  909YOPE   C4B12730  16.433   9.084   8.397 -0.0393 -0.0980 -0.0763
  910YOPE   NH312731   5.512  16.666   6.306  0.0275 -0.0110 -0.1313
  910YOPE   PO412732   5.051  16.843   6.181 -0.4445 -0.0867 -0.0210
  910YOPE   GL112733   5.140  16.897   6.662 -0.1109  0.0524 -0.0917
  910YOPE   GL212734   4.747  16.952   6.753 -0.2191  0.0628 -0.2596
  910YOPE   C1A12735   5.166  16.867   7.038  0.0914  0.0212  0.1479
  910YOPE   D2A12736   5.211  16.602   7.317 -0.2195 -0.1481  0.2145
  910YOPE   C3A12737   5.031  16.580   7.707 -0.0396 -0.0739 -0.2397
  910YOPE   C4A12738   5.070  16.706   8.142 -0.2417  0.1583 -0.3812
  910YOPE   C1B12739   4.737  16.942   7.243  0.1718  0.0310  0.0313
  910YOPE   C2B12740   4.721  16.950   7.665 -0.0106  0.2172  0.1784
  910YOPE   D3B12741   4.566  16.903   8.043 -0.0869 -0.0370  0.1229
  910YOPE   C4B12742   4.483  16.491   8.329  0.0464  0.0422  0.2849
  911YOPE   NH312743   7.994  14.632   5.724 -0.0444  0.1964 -0.0645
  911YOPE   PO412744   8.337  14.985   5.605  0.2623 -0.1578  0.0197
  911YOPE   GL112745   8.541  14.849   5.981 -0.3701  0.0159  0.1103
  911YOPE   GL212746   8.811  14.850   6.081  0.0365  0.0911  0.1133
  911YOPE   C1A12747   8.399  14.958   6.406  0.1317  0.0245  0.0571
  911YOPE   D2A12748   8.435  15.296   6.743 -0.2258  0.0047 -0.0389
  911YOPE   C3A12749   8.441  15.194   7.221  0.1314 -0.0906 -0.0899
  911YOPE   C4A12750   8.341  15.102   7.711 -0.0300  0.3128  0.1192
  911YOPE   C1B12751   8.778  14.638   6.464 -0.1394  0.0303 -0.1567
  911YOPE   C2B12752   8.558  14.438   6.785  0.3597  0.3146 -0.1157
  911YOPE   D3B12753   8.750  14.147   7.076  0.1490  0.1567 -0.2164
  911YOPE   C4B12754   9.095  13.875   7.265  0.1669 -0.1404  0.0103
  912YOPE   NH312755  15.384  15.331   5.887  0.0156 -0.1064 -0.0539
  912YOPE   PO412756  15.457  14.895   5.980 -0.1183 -0.0945  0.0919
  912YOPE   GL112757  15.746  14.768   6.360  0.0008  0.0750  0.0413
  912YOPE   GL212758  16.009  14.884   6.198  0.0474 -0.2157  0.0118
  912YOPE   C1A12759  15.599  14.759   6.811  0.0960  0.1506  0.2238
  912YOPE   D2A12760  15.669  14.679   7.299  0.1243  0.2181 -0.0201
  912YOPE   C3A12761  15.746  15.013   7.530 -0.0411  0.2563  0.0003
  912YOPE   C4A12762  15.991  15.155   7.889  0.0723  0.0839  0.1666
  912YOPE   C1B12763  16.203  14.638   6.558 -0.5192  0.1099 -0.2655
  912YOPE   C2B12764  16.472  14.722   6.897 -0.0113 -0.0830  0.0517
  912YOPE   D3B12765  16.758  14.690   7.216 -0.1168  0.3009  0.3342
  912YOPE   C4B12766  16.981  14.563   7.524  0.1829 -0.2492  0.2671
  913YOPE   NH312767   9.751   8.543   6.032 -0.1256 -0.2587  0.0640
  913YOPE   PO412768   9.313   8.786   5.998  0.0750  0.2102  0.1818
  913YOPE   GL112769   9.443   8.823   6.411  0.3488  0.1243 -0.1800
  913YOPE   GL212770   9.234   9.121   6.461 -0.1718  0.1136  0.1580
  913YOPE   C1A12771   9.575   8.790   6.836  0.0011 -0.1304  0.0628
  913YOPE   D2A12772   9.466   8.997   7.155 -0.1525 -0.2460 -0.0601
  913YOPE   C3A12773   9.589   8.926   7.588  0.1783  0.0727  0.5614
  913YOPE   C4A12774   9.428   9.004   7.952 -0.0235  0.2104 -0.1833
  913YOPE   C1B12775   9.111   9.139   6.844  0.0614 -0.0144 -0.2561
  913YOPE   C2B12776   8.885   9.414   7.169 -0.0244 -0.1060  0.0762
  913YOPE   D3B12777   8.690   9.417   7.471  0.2109  0.2187  0.0190
  913YOPE   C4B12778   8.697   9.679   7.934 -0.0888 -0.1853 -0.1233
  914YOPE   NH312779  12.346   6.163   6.778  0.0892  0.0054 -0.2171
  914YOPE   PO412780  12.141   5.781   6.607 -0.0408  0.3458 -0.0035
  914YOPE   GL112781  11.864   5.933   6.935  0.1247  0.3476  0.1819
  914YOPE   GL212782  11.915   6.230   7.002 -0.2430  0.2525  0.1377
  914YOPE   C1A12783  11.633   5.926   7.343 -0.0327  0.0529  0.1672
  914YOPE   D2A12784  11.499   6.277   7.560 -0.0298 -0.1241  0.0505
  914YOPE   C3A12785  11.383   6.078   7.916  0.2183  0.1333  0.0214
  914YOPE   C4A12786  11.308   5.636   8.159 -0.2180  0.0715  0.1722
  914YOPE   C1B12787  11.882   6.514   7.265  0.1775 -0.0408 -0.0911
  914YOPE   C2B12788  11.889   6.496   7.765 -0.2529  0.1261 -0.2555
  914YOPE   D3B12789  11.713   6.373   8.089  0.1379 -0.0255  0.1445
  914YOPE   C4B12790  11.344   6.246   8.394 -0.1274  0.1169  0.0401
  915YOPE   NH312791  14.156   2.541   6.297  0.1735 -0.2481  0.1990
  915YOPE   PO412792  13.819   2.775   6.025  0.2544 -0.1841 -0.1947
  915YOPE   GL112793  13.573   2.556   6.291 -0.0821 -0.2845  0.2376
  915YOPE   GL212794  13.259   2.375   6.233  0.3260  0.1885  0.1366
  915YOPE   C1A12795  13.512   2.633   6.641 -0.0037 -0.1669  0.1633
  915YOPE   D2A12796  13.339   2.424   6.989  0.2028 -0.0121 -0.0371
  915YOPE   C3A12797  13.381   2.404   7.473 -0.0064 -0.0274 -0.0965
  915YOPE   C4A12798  13.425   2.480   7.952 -0.2078 -0.0064  0.0445
  915YOPE   C1B12799  12.924   2.086   6.352 -0.0623 -0.1140 -0.1830
  915YOPE   C2B12800  12.529   1.985   6.558  0.3325 -0.1284 -0.1075
  915YOPE   D3B12801  12.657   1.797   6.917 -0.0328 -0.1335  0.0521
  915YOPE   C4B12802  12.727   1.774   7.279  0.0746  0.1571 -0.0141
  916YOPE   NH312803  16.909   0.613   6.151 -0.0663  0.3316 -0.1094
  916YOPE   PO412804  16.960   1.069   6.152  0.0757 -0.1081  0.2475
  916YOPE   GL112805  16.877   0.975   6.570 -0.0643  0.3051  0.1495
  916YOPE   GL212806  16.874   0.473   6.625 -0.1259 -0.0416 -0.3879
  916YOPE   C1A12807  16.898   0.859   7.032  0.0686 -0.0195 -0.0432
  916YOPE   D2A12808  16.939   0.756   7.475  0.1561  0.0854  0.0764
  916YOPE   C3A12809  16.878   0.544   7.715  0.0503  0.0171  0.0242
  916YOPE   C4A12810  16.842   0.370   8.106  0.3114 -0.2042 -0.2083
  916YOPE   C1B12811  16.825   0.344   7.013 -0.1030 -0.0104  0.0704
  916YOPE   C2B12812  16.672   0.163   7.463 -0.0621 -0.1569  0.1199
  916YOPE   D3B12813  16.713  -0.095   7.828  0.3953  0.3016  0.0503
  916YOPE   C4B12814  17.031  -0.120   8.229  0.2761  0.3354  0.4184
  917YOPE   NH312815  17.329  10.054   6.140 -0.2477 -0.0931  0.0916
  917YOPE   PO412816  17.758   9.875   6.064  0.0915  0.1340  0.2041
  917YOPE   GL112817  18.032   9.714   6.399 -0.2467  0.0033 -0.1004
  917YOPE   GL212818  18.237   9.426   6.418 -0.0500 -0.2136 -0.0554
  917YOPE   C1A12819  18.064   9.743   6.860 -0.0349  0.2037  0.0542
  917YOPE   D2A12820  18.087   9.920   7.177  0.0998 -0.1039  0.0184
  917YOPE   C3A12821  18.229   9.791   7.609  0.0823  0.1578  0.4690
  917YOPE   C4A12822  18.426   9.843   8.000  0.1078  0.2556 -0.0105
  917YOPE   C1B12823  18.318   9.277   6.849  0.1282  0.2037 -0.1472
  917YOPE   C2B12824  18.128   9.405   7.294 -0.2111  0.0537 -0.1702
  917YOPE   D3B12825  18.081   9.291   7.677  0.0643  0.1349  0.0673
  917YOPE   C4B12826  18.076   9.487   8.034 -0.3844 -0.0422  0.0800
  918YOPE   NH312827   4.626  16.452   6.516  0.1633  0.1596  0.2224
  918YOPE   PO412828   5.130  16.399   6.483 -0.1549  0.0558  0.0628
  918YOPE   GL112829   5.006  16.357   6.861  0.0469 -0.0874  0.0340
  918YOPE   GL212830   4.675  16.515   6.986 -0.0072  0.1851 -0.2393
  918YOPE   C1A12831   5.181  16.148   7.232  0.2808 -0.3363 -0.3545
  918YOPE   D2A12832   5.247  16.052   7.691 -0.2372  0.0914 -0.4971
  918YOPE   C3A12833   5.006  15.973   7.928 -0.2580 -0.0752  0.1537
  918YOPE   C4A12834   4.600  15.885   8.192 -0.2986  0.0732  0.0643
  918YOPE   C1B12835   4.372  16.558   7.254 -0.0983  0.1583 -0.3020
  918YOPE   C2B12836   4.190  16.750   7.554 -0.1197 -0.0369 -0.3681
  918YOPE   D3B12837   4.120  16.731   7.875  0.0256  0.2232 -0.1062
  918YOPE   C4B12838   4.141  17.105   8.130 -0.1098  0.2606 -0.0370
  919YOPE   NH312839  17.363   3.217   6.469 -0.0434  0.0944  0.1737
  919YOPE   PO412840  17.747   2.973   6.292  0.2025 -0.0386  0.0161
  919YOPE   GL112841  17.802   2.780   6.673 -0.2690 -0.2163 -0.0492
  919YOPE   GL212842  18.045   2.429   6.676 -0.0528  0.1190 -0.2728
  919YOPE   C1A12843  17.983   3.018   7.007 -0.0798  0.0468 -0.0186
  919YOPE   D2A12844  17.792   3.153   7.357 -0.1805  0.1884 -0.2435
  919YOPE   C3A12845  17.649   3.244   7.760 -0.1370  0.3008  0.0470
  919YOPE   C4A12846  17.702   3.372   8.138  0.3717 -0.3823 -0.3075
  919YOPE   C1B12847  18.042   2.549   7.072 -0.1792  0.0934 -0.0130
  919YOPE   C2B12848  18.182   2.562   7.549 -0.1073 -0.1238  0.0704
  919YOPE   D3B12849  17.912   2.451   7.882 -0.0779 -0.0032  0.0713
  919YOPE   C4B12850  17.694   2.440   8.268  0.1186  0.4049 -0.0360
  920YOPE   NH312851   2.913   1.573   6.577  0.0029  0.4471 -0.1954
  920YOPE   PO412852   2.649   1.236   6.377 -0.1755 -0.2704 -0.2965
  920YOPE   GL112853   2.495   1.016   6.732 -0.1712 -0.2822 -0.2916
  920YOPE   GL212854   2.723   1.075   7.044 -0.1569  0.0537  0.2522
  920YOPE   C1A12855   2.229   1.020   7.114 -0.4145 -0.2110  0.1598
  920YOPE   D2A12856   1.798   0.907   7.248  0.3623  0.0143 -0.4947
  920YOPE   C3A12857   1.733   0.695   7.636  0.0690 -0.0267  0.1471
  920YOPE   C4A12858   1.772   0.779   7.995  0.0041 -0.1046  0.0338
  920YOPE   C1B12859   2.657   0.963   7.408 -0.0047 -0.2564  0.0122
  920YOPE   C2B12860   2.667   0.995   7.826 -0.1309 -0.1147 -0.1560
  920YOPE   D3B12861   2.739   0.999   8.275 -0.1175 -0.2092  0.0737
  920YOPE   C4B12862   3.081   0.921   8.514  0.0511 -0.0072  0.1568
  921YOPE   NH312863   4.983  16.083   6.138  0.1461 -0.0807  0.0263
  921YOPE   PO412864   5.247  15.668   6.165 -0.0183 -0.0416  0.1932
  921YOPE   GL112865   5.170  15.767   6.635 -0.1895  0.2105  0.1604
  921YOPE   GL212866   5.413  15.915   6.872  0.1255 -0.1146  0.0002
  921YOPE   C1A12867   5.173  15.568   7.058  0.0137  0.0790  0.2178
  921YOPE   D2A12868   5.249  15.556   7.516  0.2668  0.1441 -0.1038
  921YOPE   C3A12869   5.602  15.433   7.673 -0.0539 -0.6098  0.0534
  921YOPE   C4A12870   5.673  15.250   8.083  0.0933  0.2332 -0.0695
  921YOPE   C1B12871   5.591  15.914   7.283  0.2705  0.2875 -0.0570
  921YOPE   C2B12872   5.938  15.786   7.628  0.0051  0.0925 -0.3699
  921YOPE   D3B12873   6.223  16.053   8.004  0.0843 -0.2083 -0.0927
  921YOPE   C4B12874   6.676  16.110   8.219  0.0106  0.1809 -0.0215
  922YOPE   NH312875   0.737   1.356   6.271 -0.1350  0.1140 -0.1052
  922YOPE   PO412876   0.491   1.590   6.544  0.0231 -0.1958 -0.1112
  922YOPE   GL112877   0.636   1.427   6.871  0.3364  0.1407  0.1986
  922YOPE   GL212878   0.845   1.223   6.780  0.0664 -0.1697 -0.0835
  922YOPE   C1A12879   0.587   1.237   7.237 -0.0132  0.1843  0.1085
  922YOPE   D2A12880   0.882   1.235   7.656 -0.2689 -0.1775 -0.0502
  922YOPE   C3A12881   0.826   1.167   7.963  0.1680  0.2966 -0.1204
  922YOPE   C4A12882   0.535   1.062   8.325 -0.0162  0.1465 -0.0941
  922YOPE   C1B12883   1.068   1.203   7.184  0.0278  0.1381  0.2438
  922YOPE   C2B12884   1.277   0.884   7.493  0.0138 -0.2890 -0.3927
  922YOPE   D3B12885   1.289   0.936   7.912 -0.0090 -0.0331 -0.1134
  922YOPE   C4B12886   1.450   0.652   8.332  0.4451 -0.0911  0.0159
  923YOPE   NH312887  12.536  12.625   6.041 -0.0833  0.2699  0.2345
  923YOPE   PO412888  12.820  12.817   5.958 -0.2816 -0.4018  0.0318
  923YOPE   GL112889  12.790  12.993   6.355 -0.0878 -0.3379 -0.0558
  923YOPE   GL212890  12.638  13.253   6.387  0.0309 -0.0019 -0.1888
  923YOPE   C1A12891  12.965  13.116   6.780  0.0152  0.1264  0.0119
  923YOPE   D2A12892  12.885  13.168   7.071  0.0167  0.0488  0.0693
  923YOPE   C3A12893  12.743  13.062   7.392  0.0275  0.0789  0.5359
  923YOPE   C4A12894  12.772  13.160   7.742 -0.1556 -0.0440  0.0155
  923YOPE   C1B12895  12.654  13.554   6.711 -0.0773  0.0319 -0.0429
  923YOPE   C2B12896  12.655  13.741   7.063  0.3037  0.0881  0.1985
  923YOPE   D3B12897  12.573  13.529   7.495 -0.1173  0.1430 -0.3480
  923YOPE   C4B12898  12.386  13.469   7.935 -0.1526 -0.3290 -0.3011
  924YOPE   NH312899   9.486   0.099   5.717 -0.0490 -0.1638  0.0272
  924YOPE   PO412900   9.310  -0.312   5.765  0.1673  0.3088 -0.1881
  924YOPE   GL112901   9.262  -0.076   6.155 -0.1323  0.2201 -0.2274
  924YOPE   GL212902   9.320   0.301   6.137 -0.2020  0.1259  0.1345
  924YOPE   C1A12903   9.262   0.059   6.571 -0.2176 -0.0827 -0.2148
  924YOPE   D2A12904   9.306  -0.231   6.910  0.0037  0.0034 -0.0564
  924YOPE   C3A12905   9.265  -0.200   7.383  0.1657  0.2639  0.0018
  924YOPE   C4A12906   9.224  -0.108   7.779  0.0255 -0.2902 -0.1977
  924YOPE   C1B12907   9.617   0.536   6.446 -0.2304 -0.0510  0.0744
  924YOPE   C2B12908   9.658   0.677   6.846 -0.2308 -0.1309  0.1334
  924YOPE   D3B12909  10.042   0.723   7.159  0.1272 -0.3917 -0.2085
  924YOPE   C4B12910  10.444   0.695   7.298  0.0730 -0.3126  0.0190
  925YOPE   NH312911   7.821  10.019   6.084 -0.1554 -0.3629 -0.0457
  925YOPE   PO412912   8.112  10.238   6.292 -0.1094  0.0480 -0.1741
  925YOPE   GL112913   7.898  10.316   6.557  0.0544 -0.0113  0.0612
  925YOPE   GL212914   7.619  10.145   6.650  0.1443 -0.3356 -0.2473
  925YOPE   C1A12915   7.852  10.547   6.971  0.2905 -0.0313  0.3202
  925YOPE   D2A12916   7.880  10.601   7.419 -0.1647  0.1930 -0.0065
  925YOPE   C3A12917   7.730  10.554   7.760  0.0985  0.0647 -0.2480
  925YOPE   C4A12918   7.333  10.376   7.853 -0.0388  0.2036 -0.1427
  925YOPE   C1B12919   7.745  10.110   7.097 -0.0291  0.6081  0.2839
  925YOPE   C2B12920   7.863  10.042   7.488  0.6081 -0.2374  0.2241
  925YOPE   D3B12921   7.766  10.066   7.916 -0.0063 -0.2442 -0.0080
  925YOPE   C4B12922   7.756  10.356   8.228 -0.0642 -0.0473  0.0269
  926YOPE   NH312923   1.704  14.162   6.034  0.1590 -0.0112 -0.5625
  926YOPE   PO412924   1.336  14.002   6.035  0.2014  0.2004 -0.0717
  926YOPE   GL112925   1.458  14.153   6.473  0.1540  0.1168  0.1804
  926YOPE   GL212926   1.213  14.303   6.606 -0.1270  0.0069  0.3129
  926YOPE   C1A12927   1.656  14.265   6.855  0.1900  0.1367 -0.1319
  926YOPE   D2A12928   2.015  14.158   7.078  0.1536 -0.2106  0.1727
  926YOPE   C3A12929   1.932  14.162   7.462  0.1277 -0.1565 -0.1696
  926YOPE   C4A12930   1.519  13.954   7.752  0.0501  0.2072 -0.1267
  926YOPE   C1B12931   1.091  14.327   7.034 -0.0548  0.0637 -0.0894
  926YOPE   C2B12932   1.026  14.412   7.428 -0.2594  0.3029  0.1009
  926YOPE   D3B12933   0.750  14.425   7.804  0.0323  0.1858 -0.1335
  926YOPE   C4B12934   0.305  14.387   7.957  0.3982  0.2847 -0.1648
  927YOPE   NH312935   5.222   6.164   6.318  0.2297  0.1716  0.1737
  927YOPE   PO412936   5.387   6.614   6.172 -0.2213  0.1362  0.0781
  927YOPE   GL112937   5.387   6.768   6.542  0.2004  0.1278  0.1631
  927YOPE   GL212938   5.376   6.497   6.757 -0.1390 -0.0944  0.2789
  927YOPE   C1A12939   5.853   6.745   6.806  0.1436 -0.2799 -0.0580
  927YOPE   D2A12940   6.218   6.881   7.136 -0.0374  0.0324  0.0925
  927YOPE   C3A12941   6.599   6.997   7.003  0.0173  0.0847 -0.0997
  927YOPE   C4A12942   6.840   6.767   6.724  0.0576 -0.0110 -0.1978
  927YOPE   C1B12943   5.314   6.552   7.125  0.1051  0.1044 -0.0931
  927YOPE   C2B12944   5.437   6.748   7.473  0.0756 -0.0042  0.2301
  927YOPE   D3B12945   5.638   7.050   7.775 -0.0450  0.0494 -0.0933
  927YOPE   C4B12946   5.905   7.192   8.110 -0.2474 -0.0390  0.0086
  928YOPE   NH312947   7.537   7.070   6.402 -0.0482 -0.0524 -0.0561
  928YOPE   PO412948   7.932   6.835   6.409 -0.1041  0.1603  0.1757
  928YOPE   GL112949   7.821   6.863   6.796 -0.0675 -0.1073 -0.2195
  928YOPE   GL212950   8.063   6.668   6.935 -0.0095 -0.2466 -0.1152
  928YOPE   C1A12951   7.738   6.894   7.252 -0.0206  0.1929  0.0520
  928YOPE   D2A12952   7.856   6.754   7.647 -0.3835 -0.0159  0.0121
  928YOPE   C3A12953   7.743   6.953   7.906 -0.1870 -0.2059 -0.2884
  928YOPE   C4A12954   7.375   6.978   8.207  0.0881 -0.3035 -0.1583
  928YOPE   C1B12955   8.228   7.144   6.981  0.5188  0.3463  0.0226
  928YOPE   C2B12956   8.132   7.324   7.358 -0.0225 -0.1659 -0.2998
  928YOPE   D3B12957   8.149   7.539   7.717  0.0911 -0.0439 -0.1241
  928YOPE   C4B12958   7.952   7.781   8.017  0.1840  0.4740  0.4334
  929YOPE   NH312959   0.426  14.939   6.038 -0.0493  0.1270  0.0977
  929YOPE   PO412960   0.018  15.067   5.940  0.1489  0.0230 -0.1113
  929YOPE   GL112961  -0.021  15.178   6.292  0.2240 -0.0237 -0.3044
  929YOPE   GL212962   0.281  15.169   6.503  0.1416 -0.0548  0.1788
  929YOPE   C1A12963  -0.294  15.359   6.569  0.0501 -0.3406 -0.0808
  929YOPE   D2A12964  -0.210  15.466   7.055 -0.1283  0.1515  0.0997
  929YOPE   C3A12965  -0.281  15.398   7.466 -0.0377  0.2297  0.2342
  929YOPE   C4A12966  -0.282  15.622   7.829 -0.1029 -0.0180  0.0077
  929YOPE   C1B12967   0.279  15.385   6.971  0.1446  0.2197 -0.1728
  929YOPE   C2B12968   0.195  15.442   7.356  0.0169 -0.0219  0.3316
  929YOPE   D3B12969   0.150  15.413   7.864 -0.2618  0.2303  0.1276
  929YOPE   C4B12970  -0.077  15.217   8.166 -0.0666 -0.0170  0.0832
  930YOPE   NH312971   7.778   3.824   6.453 -0.0207 -0.1630 -0.0900
  930YOPE   PO412972   7.433   3.955   6.345 -0.1677 -0.1649 -0.1923
  930YOPE   GL112973   7.108   4.129   6.563 -0.1925  0.0667  0.1494
  930YOPE   GL212974   6.979   4.438   6.640 -0.0042  0.3485  0.1004
  930YOPE   C1A12975   7.298   4.315   7.030  0.3957 -0.1095  0.4327
  930YOPE   D2A12976   7.108   4.601   7.416 -0.2192 -0.1232 -0.1701
  930YOPE   C3A12977   7.015   4.745   7.870  0.2146 -0.0988 -0.1573
  930YOPE   C4A12978   6.956   4.840   8.319  0.0379  0.0784  0.0219
  930YOPE   C1B12979   7.126   4.778   6.808 -0.3494  0.1472  0.2337
  930YOPE   C2B12980   7.013   5.075   7.098 -0.1037  0.1671  0.0573
  930YOPE   D3B12981   7.206   5.117   7.465  0.2694  0.2122 -0.2045
  930YOPE   C4B12982   7.270   5.190   7.937 -0.0823 -0.1091  0.3421
  931YOPE   NH312983   6.142  14.698   6.039 -0.1365  0.2076 -0.0034
  931YOPE   PO412984   6.018  15.104   5.784  0.1303  0.0933  0.2263
  931YOPE   GL112985   6.130  15.134   6.239  0.0318  0.2575  0.0795
  931YOPE   GL212986   5.802  14.888   6.428  0.0634 -0.0694 -0.1091
  931YOPE   C1A12987   6.538  15.061   6.392 -0.1221  0.1105  0.0987
  931YOPE   D2A12988   6.981  15.066   6.360 -0.0587  0.1069 -0.4395
  931YOPE   C3A12989   7.266  14.968   6.637  0.1247  0.2527 -0.3913
  931YOPE   C4A12990   7.508  14.756   6.867 -0.1954  0.1174 -0.1671
  931YOPE   C1B12991   6.197  15.025   6.712  0.0615 -0.0027  0.0616
  931YOPE   C2B12992   6.264  14.985   7.214 -0.0374  0.0906  0.1947
  931YOPE   D3B12993   6.411  15.007   7.612  0.0707 -0.0730  0.1624
  931YOPE   C4B12994   6.619  15.143   7.926 -0.0401  0.0448 -0.3115
  932YOPE   NH312995   5.621   4.397   6.285  0.2032  0.0623  0.7792
  932YOPE   PO412996   5.863   4.061   6.120 -0.1687 -0.1910  0.1622
  932YOPE   GL112997   5.746   3.872   6.497 -0.4368 -0.1118 -0.0769
  932YOPE   GL212998   5.530   4.008   6.708  0.1177 -0.2401  0.2060
  932YOPE   C1A12999   5.888   3.556   6.689 -0.1064 -0.1715 -0.0018
  932YOPE   D2A13000   5.706   3.109   6.816  0.0868 -0.0491 -0.0110
  932YOPE   C3A13001   5.657   2.923   7.305  0.0606  0.3865  0.3037
  932YOPE   C4A13002   5.422   2.646   7.621 -0.2853  0.1761  0.0350
  932YOPE   C1B13003   5.701   3.947   7.041  0.3821 -0.1154  0.5434
  932YOPE   C2B13004   5.841   3.747   7.363 -0.3938  0.0027 -0.3638
  932YOPE   D3B13005   6.108   3.809   7.716  0.4114  0.0483  0.2124
  932YOPE   C4B13006   6.254   3.715   8.205 -0.0764  0.0388 -0.0321
  933YOPE   NH313007  15.829   3.025   6.153 -0.0283  0.1861  0.1545
  933YOPE   PO413008  16.146   2.690   6.284 -0.0949  0.0402 -0.1485
  933YOPE   GL113009  16.427   2.816   6.571  0.1971  0.0642 -0.2923
  933YOPE   GL213010  16.188   3.047   6.804  0.0718  0.1606  0.2993
  933YOPE   C1A13011  16.494   2.757   6.997 -0.1666  0.2527  0.0637
  933YOPE   D2A13012  16.491   2.871   7.416  0.4058 -0.0485  0.3804
  933YOPE   C3A13013  16.422   2.679   7.759  0.0649  0.1993 -0.1296
  933YOPE   C4A13014  16.575   2.310   7.893  0.0354 -0.1938  0.1817
  933YOPE   C1B13015  16.114   3.157   7.231 -0.1912 -0.1866 -0.0824
  933YOPE   C2B13016  16.110   3.082   7.741  0.0915  0.0507  0.1281
  933YOPE   D3B13017  16.048   3.279   8.133  0.0367  0.1410  0.0061
  933YOPE   C4B13018  15.916   3.145   8.568  0.2457  0.1432  0.0142
  934YOPE   NH313019   8.675   0.695   5.853 -0.0737 -0.3644 -0.0945
  934YOPE   PO413020   8.767   0.277   5.913  0.1896  0.0416 -0.1631
  934YOPE   GL113021   8.475   0.058   6.227 -0.2963  0.1444 -0.0837
  934YOPE   GL213022   8.739  -0.114   6.249  0.0321 -0.0384 -0.0325
  934YOPE   C1A13023   8.305  -0.170   6.641 -0.0522 -0.0013  0.2640
  934YOPE   D2A13024   8.390  -0.402   7.003 -0.0200 -0.0605  0.4462
  934YOPE   C3A13025   8.221  -0.237   7.363 -0.1050 -0.1914 -0.2724
  934YOPE   C4A13026   8.109  -0.121   7.815  0.2761 -0.1281 -0.3966
  934YOPE   C1B13027   8.747  -0.444   6.584  0.0950 -0.0288  0.5379
  934YOPE   C2B13028   8.758  -0.761   6.907  0.0868  0.1083  0.1800
  934YOPE   D3B13029   8.928  -0.607   7.290 -0.0474 -0.0485  0.2462
  934YOPE   C4B13030   8.969  -0.522   7.733 -0.1160 -0.3507 -0.1843
  935YOPE   NH313031   2.239   2.284   6.806  0.3401  0.0435 -0.3325
  935YOPE   PO413032   2.508   1.968   6.674  0.4217 -0.2800 -0.2566
  935YOPE   GL113033   2.582   1.965   7.042 -0.0806  0.1306  0.0394
  935YOPE   GL213034   2.835   2.014   7.186  0.1888 -0.2591 -0.1080
  935YOPE   C1A13035   2.366   2.192   7.427 -0.1066 -0.0842 -0.1573
  935YOPE   D2A13036   2.286   2.036   7.860 -0.1722 -0.1519 -0.0326
  935YOPE   C3A13037   2.356   2.187   8.222 -0.1617  0.2263  0.1866
  935YOPE   C4A13038   2.185   2.277   8.602 -0.0875 -0.2413 -0.1234
  935YOPE   C1B13039   2.747   1.881   7.606  0.0448  0.0252 -0.2785
  935YOPE   C2B13040   2.687   1.751   8.060  0.1035  0.0863 -0.0547
  935YOPE   D3B13041   2.707   1.530   8.413 -0.0985  0.0493  0.3049
  935YOPE   C4B13042   2.607   1.259   8.727  0.0377  0.2018 -0.3285
  936YOPE   NH313043  13.963   0.257   5.953 -0.4399 -0.0805 -0.1009
  936YOPE   PO413044  14.224   0.329   6.287  0.2303 -0.4438  0.0383
  936YOPE   GL113045  14.206  -0.002   6.632 -0.0337 -0.2719  0.1149
  936YOPE   GL213046  14.463   0.124   6.709 -0.1460  0.2165 -0.2689
  936YOPE   C1A13047  14.172  -0.155   7.047  0.3485  0.1204  0.0765
  936YOPE   D2A13048  14.083  -0.529   7.250 -0.0064  0.4859 -0.3028
  936YOPE   C3A13049  14.217  -0.404   7.662 -0.0943  0.0270  0.2605
  936YOPE   C4A13050  14.149  -0.622   7.945 -0.2422  0.3585 -0.1149
  936YOPE   C1B13051  14.575   0.153   7.148 -0.0912  0.2513  0.0904
  936YOPE   C2B13052  14.486   0.032   7.510  0.1962  0.0499 -0.0142
  936YOPE   D3B13053  14.384  -0.006   7.979 -0.2362 -0.5262  0.0166
  936YOPE   C4B13054  14.656  -0.062   8.310 -0.1153 -0.0617  0.0915
  937YOPE   NH313055  14.726   1.284   6.060  0.4555  0.1510 -0.0531
  937YOPE   PO413056  14.728   1.664   6.099  0.2086  0.1732  0.2229
  937YOPE   GL113057  14.500   1.574   6.432 -0.1118  0.0314  0.0466
  937YOPE   GL213058  14.250   1.269   6.373 -0.1249  0.0712 -0.1241
  937YOPE   C1A13059  14.538   1.538   6.878  0.1977 -0.0978  0.0556
  937YOPE   D2A13060  14.884   1.513   7.179  0.1021 -0.2375  0.2766
  937YOPE   C3A13061  15.193   1.500   7.548  0.0469 -0.0435  0.1189
  937YOPE   C4A13062  15.511   1.532   7.856 -0.3872  0.1734  0.2103
  937YOPE   C1B13063  14.319   1.103   6.800 -0.0513  0.3479 -0.3305
  937YOPE   C2B13064  14.311   1.205   7.187  0.1784  0.1002 -0.0491
  937YOPE   D3B13065  14.360   1.046   7.627  0.3402  0.0109 -0.3883
  937YOPE   C4B13066  14.396   0.797   8.026 -0.2958 -0.1629  0.0371
  938YOPE   NH313067   8.493  13.429   5.632 -0.0009 -0.0838  0.2029
  938YOPE   PO413068   8.814  13.238   5.544 -0.2758 -0.0407  0.2311
  938YOPE   GL113069   8.746  13.199   5.990  0.2663  0.0902  0.1214
  938YOPE   GL213070   8.945  13.374   6.045 -0.0372 -0.3735  0.1608
  938YOPE   C1A13071   8.569  13.111   6.385  0.0512 -0.0710 -0.0381
  938YOPE   D2A13072   8.786  13.134   6.752 -0.0762 -0.5197  0.0118
  938YOPE   C3A13073   8.867  13.260   7.179 -0.0526 -0.2887  0.0521
  938YOPE   C4A13074   9.163  13.387   7.512  0.1939  0.2967 -0.0482
  938YOPE   C1B13075   9.117  13.477   6.541  0.4083  0.1353  0.2422
  938YOPE   C2B13076   9.273  13.447   6.994  0.3230 -0.1269 -0.1941
  938YOPE   D3B13077   9.599  13.649   7.231 -0.0411 -0.2073 -0.0001
  938YOPE   C4B13078   9.909  13.738   7.531 -0.0634  0.1160 -0.0615
  939YOPE   NH313079   6.252  13.744   5.749  0.0359 -0.2597 -0.2938
  939YOPE   PO413080   5.856  13.574   5.968 -0.0781  0.0203 -0.1911
  939YOPE   GL113081   6.193  13.490   6.292  0.1374  0.0881  0.2175
  939YOPE   GL213082   6.093  13.240   6.449 -0.2509 -0.1429 -0.0139
  939YOPE   C1A13083   6.599  13.543   6.627  0.4027  0.3021 -0.0596
  939YOPE   D2A13084   6.757  13.578   7.021 -0.1957 -0.1606 -0.1999
  939YOPE   C3A13085   6.583  13.572   7.388  0.2136 -0.4942 -0.2089
  939YOPE   C4A13086   6.448  13.469   7.700 -0.2547 -0.2381 -0.1114
  939YOPE   C1B13087   6.184  13.277   6.941 -0.2237  0.0326  0.2294
  939YOPE   C2B13088   6.091  13.370   7.402 -0.1074 -0.0264 -0.0956
  939YOPE   D3B13089   5.999  13.560   7.846  0.0751  0.0956 -0.2614
  939YOPE   C4B13090   5.734  13.791   8.081 -0.2538  0.1759  0.1794
  940YOPE   NH313091   8.537   2.398   6.130  0.0355 -0.0973  0.0446
  940YOPE   PO413092   8.896   2.326   6.271  0.0438 -0.1748 -0.0204
  940YOPE   GL113093   8.922   2.252   6.661 -0.0567 -0.0111  0.0622
  940YOPE   GL213094   8.912   1.978   6.854 -0.0803 -0.2086 -0.1442
  940YOPE   C1A13095   8.725   2.533   7.034  0.0308  0.1516 -0.2703
  940YOPE   D2A13096   8.858   2.767   7.437  0.1197 -0.1541  0.0170
  940YOPE   C3A13097   8.900   2.692   7.885  0.0335  0.0269  0.0494
  940YOPE   C4A13098   8.960   2.586   8.247 -0.1953 -0.2193 -0.0412
  940YOPE   C1B13099   8.762   1.987   7.200 -0.1496  0.2185  0.0532
  940YOPE   C2B13100   8.897   1.861   7.616 -0.0826 -0.1132 -0.3464
  940YOPE   D3B13101   8.855   1.701   8.018  0.2253  0.1693  0.2348
  940YOPE   C4B13102   8.885   1.463   8.418  0.0082  0.1075 -0.5001
  941YOPE   NH313103   3.707  11.703   6.172  0.2053 -0.2252  0.2176
  941YOPE   PO413104   4.029  11.978   6.284  0.0527 -0.0682  0.3439
  941YOPE   GL113105   4.061  12.214   6.642  0.3648 -0.0297 -0.1193
  941YOPE   GL213106   3.949  12.588   6.728 -0.0666 -0.4761  0.0233
  941YOPE   C1A13107   4.250  12.400   7.097  0.0513 -0.0231 -0.0928
  941YOPE   D2A13108   4.520  12.479   7.293  0.1783 -0.2423 -0.3479
  941YOPE   C3A13109   4.571  12.374   7.694 -0.1924 -0.0745  0.0178
  941YOPE   C4A13110   4.429  12.312   8.142 -0.0418 -0.0628 -0.0559
  941YOPE   C1B13111   3.947  12.885   7.066 -0.1488  0.3903 -0.1422
  941YOPE   C2B13112   4.142  12.839   7.464  0.4257 -0.0022  0.0975
  941YOPE   D3B13113   4.291  12.777   7.875  0.0713  0.1419  0.0612
  941YOPE   C4B13114   4.217  12.842   8.370 -0.2638  0.0412  0.0264
  942POPC   NC313115   7.569   2.587   6.423 -0.2391  0.0121 -0.0893
  942POPC   PO413116   8.042   2.534   6.259  0.0958 -0.2097 -0.2068
  942POPC   GL113117   8.040   2.823   6.586 -0.1528 -0.1640  0.4325
  942POPC   GL213118   7.817   2.916   6.744  0.2859 -0.0931  0.0171
  942POPC   C1A13119   8.271   2.809   6.908  0.0316 -0.2122  0.3502
  942POPC   D2A13120   8.229   2.519   7.234  0.0577 -0.1816 -0.2363
  942POPC   C3A13121   8.605   2.347   7.560 -0.0615 -0.3019  0.0543
  942POPC   C4A13122   8.625   2.208   7.986 -0.3305 -0.2455 -0.0047
  942POPC   C1B13123   7.831   2.878   7.174  0.0263  0.1159  0.3408
  942POPC   C2B13124   7.893   2.832   7.614 -0.0334  0.2257 -0.0619
  942POPC   C3B13125   8.121   2.533   7.722 -0.0525  0.0631  0.0102
  942POPC   C4B13126   8.107   2.206   7.978  0.1389 -0.1525 -0.1685
  943POPC   NC313127  13.024   6.250   6.427 -0.0543  0.1531  0.1094
  943POPC   PO413128  13.352   6.489   6.170 -0.2137  0.1489 -0.3183
  943POPC   GL113129  13.518   6.736   6.601  0.2151  0.1246  0.1135
  943POPC   GL213130  13.674   6.941   6.348  0.0224  0.0119  0.1353
  943POPC   C1A13131  13.590   6.768   7.022  0.1458  0.4243 -0.3681
  943POPC   D2A13132  13.626   6.849   7.518 -0.2698 -0.1165 -0.1620
  943POPC   C3A13133  13.748   7.060   7.830  0.3624 -0.2763  0.2576
  943POPC   C4A13134  13.750   7.297   8.154  0.1300  0.1189  0.0139
  943POPC   C1B13135  13.872   7.132   6.771  0.0785 -0.1842 -0.0635
  943POPC   C2B13136  13.965   7.318   7.114  0.0901  0.0311 -0.1941
  943POPC   C3B13137  14.259   7.638   7.312 -0.0237  0.0225  0.3546
  943POPC   C4B13138  14.655   7.992   7.398 -0.1996 -0.2582  0.2411
  944POPC   NC313139   4.611   4.339   6.319 -0.0150 -0.0364  0.0288
  944POPC   PO413140   4.167   4.103   6.328  0.2421  0.1210  0.0170
  944POPC   GL113141   3.991   3.925   6.638 -0.2127  0.2729 -0.0948
  944POPC   GL213142   3.904   3.479   6.593  0.1718 -0.1740 -0.1027
  944POPC   C1A13143   3.755   4.073   7.056  0.0551 -0.1996 -0.2314
  944POPC   D2A13144   3.638   4.235   7.497 -0.0950 -0.0698 -0.0210
  944POPC   C3A13145   3.306   4.274   7.666  0.1475 -0.2406  0.4387
  944POPC   C4A13146   2.887   4.074   7.690  0.0946 -0.0439 -0.1725
  944POPC   C1B13147   3.911   3.614   7.003 -0.0963 -0.1472 -0.0004
  944POPC   C2B13148   3.916   3.708   7.376  0.1794  0.1894  0.1106
  944POPC   C3B13149   3.834   3.727   7.748  0.4485 -0.1536  0.2708
  944POPC   C4B13150   3.995   3.757   8.201 -0.0526  0.4608  0.0107
  945POPC   NC313151  11.670   8.562   6.629  0.1733  0.0475 -0.3040
  945POPC   PO413152  11.367   8.907   6.543 -0.1138  0.0904  0.1856
  945POPC   GL113153  11.313   9.085   6.901 -0.1885  0.0742  0.0953
  945POPC   GL213154  11.054   9.238   6.789  0.1998  0.3689  0.1302
  945POPC   C1A13155  11.060   9.356   7.288  0.2134 -0.1004  0.1443
  945POPC   D2A13156  10.952   9.527   7.518  0.4171  0.0827 -0.1288
  945POPC   C3A13157  10.786   9.356   7.803 -0.0098  0.1731 -0.2536
  945POPC   C4A13158  10.394   9.225   8.114  0.1717 -0.0137  0.0850
  945POPC   C1B13159  10.676   9.196   6.973 -0.1119  0.0332  0.5446
  945POPC   C2B13160  10.550   9.279   7.329 -0.2002 -0.3115 -0.1159
  945POPC   C3B13161  10.329   9.490   7.710 -0.3869 -0.0878 -0.1249
  945POPC   C4B13162  10.380   9.734   8.163  0.2233 -0.1147  0.2137
  946POPC   NC313163   8.395   8.448   5.552 -0.0615  0.2234 -0.0752
  946POPC   PO413164   8.445   8.585   5.989  0.0495  0.0848 -0.0735
  946POPC   GL113165   8.739   8.770   6.243  0.2764  0.2533 -0.2637
  946POPC   GL213166   9.011   8.614   6.463 -0.2261  0.3399  0.3358
  946POPC   C1A13167   8.639   8.907   6.623 -0.2888  0.2536  0.0032
  946POPC   D2A13168   8.510   9.052   6.948 -0.0775  0.0841  0.0313
  946POPC   C3A13169   8.857   8.963   7.267  0.0452 -0.0753  0.0156
  946POPC   C4A13170   9.169   9.195   7.515 -0.1438 -0.4725  0.0221
  946POPC   C1B13171   9.102   8.585   6.958  0.3175 -0.2185  0.0526
  946POPC   C2B13172   9.137   8.609   7.465  0.1084  0.1183  0.2356
  946POPC   C3B13173   8.780   8.771   7.751  0.0891 -0.0635 -0.0946
  946POPC   C4B13174   8.824   9.157   7.858  0.1323 -0.4101  0.2642
  947POPC   NC313175  15.509   3.363   5.810 -0.0348  0.0281  0.1469
  947POPC   PO413176  15.477   3.600   6.175 -0.0488  0.0422 -0.1663
  947POPC   GL113177  15.251   3.675   6.598  0.0272  0.0402  0.3003
  947POPC   GL213178  15.237   3.396   6.630 -0.0468  0.1454  0.0973
  947POPC   C1A13179  15.212   3.918   6.920  0.0090 -0.0998 -0.1581
  947POPC   D2A13180  15.218   3.942   7.384  0.1395 -0.0790  0.1511
  947POPC   C3A13181  15.155   3.824   7.815 -0.0820  0.0108 -0.3380
  947POPC   C4A13182  15.032   3.792   8.239  0.2027  0.0731 -0.0856
  947POPC   C1B13183  15.303   3.469   7.114  0.1614 -0.2313 -0.1325
  947POPC   C2B13184  15.171   3.291   7.475  0.0519  0.1949  0.3740
  947POPC   C3B13185  15.073   3.354   8.045 -0.1412 -0.0644 -0.0754
  947POPC   C4B13186  15.131   3.105   8.366  0.3649  0.2601  0.2156
  948POPC   NC313187  12.201  14.547   4.982  0.1929  0.0602  0.1170
  948POPC   PO413188  12.066  14.590   5.470  0.2152  0.2131 -0.2094
  948POPC   GL113189  11.951  14.661   5.925 -0.0781  0.0609  0.2186
  948POPC   GL213190  11.730  14.326   5.967  0.1589 -0.1249  0.1495
  948POPC   C1A13191  12.082  14.942   6.228  0.0547  0.2633  0.1250
  948POPC   D2A13192  12.365  14.873   6.484 -0.1508  0.1247  0.1228
  948POPC   C3A13193  12.390  14.454   6.499 -0.0078  0.0347 -0.0401
  948POPC   C4A13194  12.462  14.119   6.774  0.1898  0.1187 -0.2116
  948POPC   C1B13195  11.981  14.117   6.278 -0.0844 -0.1910 -0.0697
  948POPC   C2B13196  11.914  14.178   6.697 -0.3211  0.0925 -0.0888
  948POPC   C3B13197  11.759  14.018   7.123  0.0433 -0.0836 -0.2609
  948POPC   C4B13198  11.355  14.215   7.388  0.1410  0.1636 -0.3496
  949POPC   NC313199  12.157  13.407   5.675  0.1944  0.1691  0.2670
  949POPC   PO413200  12.348  13.196   6.033  0.1969  0.3302 -0.1498
  949POPC   GL113201  12.062  13.253   6.334  0.0912  0.0522 -0.0764
  949POPC   GL213202  12.149  13.515   6.562 -0.2001 -0.3406  0.1259
  949POPC   C1A13203  11.718  13.247   6.695  0.1005  0.0305 -0.1863
  949POPC   D2A13204  11.527  13.176   7.019 -0.1693 -0.1544 -0.0226
  949POPC   C3A13205  11.731  13.211   7.426 -0.0959 -0.1441 -0.0681
  949POPC   C4A13206  11.914  13.274   7.880  0.0034 -0.0414  0.1959
  949POPC   C1B13207  12.110  13.763   6.897 -0.0901  0.1677  0.1090
  949POPC   C2B13208  12.263  14.007   7.294 -0.2159  0.0967 -0.1723
  949POPC   C3B13209  12.484  14.033   7.680 -0.0703 -0.0430  0.1162
  949POPC   C4B13210  12.833  13.664   7.894 -0.0436 -0.0449  0.0368
  950POPC   NC313211   9.675   5.481   6.703 -0.2581 -0.1031  0.0362
  950POPC   PO413212   9.450   5.221   6.908  0.1142  0.2192  0.3684
  950POPC   GL113213   9.821   5.264   7.223 -0.1119  0.1361  0.3742
  950POPC   GL213214  10.124   5.328   7.134  0.0832 -0.1713  0.1001
  950POPC   C1A13215   9.918   5.188   7.683  0.2431 -0.0849 -0.2756
  950POPC   D2A13216  10.099   5.442   7.968 -0.0061 -0.1551 -0.1732
  950POPC   C3A13217  10.508   5.380   8.024 -0.0548 -0.1132  0.1984
  950POPC   C4A13218  10.804   5.625   8.255  0.0438  0.1726  0.1435
  950POPC   C1B13219  10.306   5.389   7.457 -0.0723 -0.0357  0.2675
  950POPC   C2B13220  10.412   5.704   7.645  0.1903  0.1056 -0.1328
  950POPC   C3B13221  10.432   5.936   8.116  0.2045 -0.0152  0.0029
  950POPC   C4B13222  10.308   6.302   8.347 -0.0286  0.0119  0.2299
  951POPC   NC313223  12.225  11.695   5.674 -0.1633 -0.0034  0.2648
  951POPC   PO413224  12.219  11.795   6.045  0.0879  0.2691 -0.0485
  951POPC   GL113225  12.371  11.833   6.506 -0.0638 -0.1192  0.0003
  951POPC   GL213226  12.058  11.701   6.623 -0.0536 -0.1814  0.1382
  951POPC   C1A13227  12.396  11.915   6.901  0.1937  0.2612 -0.1409
  951POPC   D2A13228  12.325  11.862   7.367  0.3781  0.0117 -0.0435
  951POPC   C3A13229  12.129  11.804   7.759  0.0731  0.1522  0.1359
  951POPC   C4A13230  11.781  11.735   8.092  0.2846 -0.1196 -0.0553
  951POPC   C1B13231  11.929  11.714   7.029 -0.1119  0.2607  0.0043
  951POPC   C2B13232  11.899  11.515   7.428  0.0610  0.2588  0.0826
  951POPC   C3B13233  11.896  11.237   7.754 -0.1408 -0.1902  0.3332
  951POPC   C4B13234  11.759  11.080   8.078 -0.0356 -0.5867  0.1124
  952POPC   NC313235   6.123   5.984   6.122 -0.0439 -0.0209  0.4492
  952POPC   PO413236   6.403   6.244   6.135  0.3465  0.0074 -0.0377
  952POPC   GL113237   6.326   6.058   6.569  0.0543  0.1260 -0.4713
  952POPC   GL213238   6.013   6.021   6.695 -0.0407 -0.1572  0.1370
  952POPC   C1A13239   6.311   5.947   7.064  0.1010 -0.0865  0.2734
  952POPC   D2A13240   6.282   6.273   7.334  0.0280  0.0676  0.2785
  952POPC   C3A13241   6.552   6.399   7.637 -0.0644  0.0175 -0.3585
  952POPC   C4A13242   6.557   6.543   8.050  0.0825 -0.1427 -0.0350
  952POPC   C1B13243   5.970   6.309   6.904  0.0417  0.0901 -0.2242
  952POPC   C2B13244   5.801   6.474   7.324 -0.0803 -0.2350  0.0395
  952POPC   C3B13245   5.732   6.384   7.771 -0.1573  0.0274 -0.0733
  952POPC   C4B13246   5.571   6.591   8.122 -0.0855  0.1085  0.0626
  953POPC   NC313247  14.354   4.238   6.386  0.1042  0.0518  0.1577
  953POPC   PO413248  13.988   4.652   6.473  0.0417  0.0069 -0.1901
  953POPC   GL113249  14.009   4.576   6.820  0.1097  0.0674  0.0055
  953POPC   GL213250  14.237   4.317   6.927  0.2450  0.0196 -0.1142
  953POPC   C1A13251  14.163   4.578   7.318  0.0978  0.0006 -0.2793
  953POPC   D2A13252  14.122   4.458   7.763 -0.1605 -0.0147  0.2294
  953POPC   C3A13253  14.423   4.526   7.957 -0.4129 -0.2536  0.1266
  953POPC   C4A13254  14.541   4.408   8.315 -0.0374  0.1567 -0.1405
  953POPC   C1B13255  14.168   4.017   7.326 -0.3596  0.0648 -0.0225
  953POPC   C2B13256  14.233   3.926   7.728 -0.1842 -0.0696 -0.2737
  953POPC   C3B13257  14.150   4.108   8.125  0.0061 -0.1846  0.0952
  953POPC   C4B13258  13.850   3.961   8.546  0.0643 -0.0051  0.2978
  954POPC   NC313259  16.969   3.778   6.505  0.3915  0.2126 -0.1003
  954POPC   PO413260  16.618   3.834   6.722  0.0114 -0.2355 -0.0298
  954POPC   GL113261  16.753   3.738   7.050 -0.0059  0.0769  0.2668
  954POPC   GL213262  17.064   3.836   7.024  0.0450  0.0398  0.2821
  954POPC   C1A13263  16.614   3.905   7.517 -0.1039 -0.0480 -0.1806
  954POPC   D2A13264  16.801   4.191   7.784  0.3637 -0.0017  0.1399
  954POPC   C3A13265  16.876   4.165   8.195  0.0798 -0.0487  0.2768
  954POPC   C4A13266  16.953   4.480   8.528  0.0682 -0.1328 -0.2822
  954POPC   C1B13267  17.094   3.756   7.428  0.0961  0.0417 -0.0645
  954POPC   C2B13268  17.070   3.800   7.897  0.0460  0.0338 -0.0178
  954POPC   C3B13269  17.229   3.792   8.299  0.1230  0.1360 -0.2297
  954POPC   C4B13270  17.374   3.489   8.553  0.0916  0.0452 -0.0058
  955POPC   NC313271   2.458  11.418   6.381  0.2610  0.1860 -0.1208
  955POPC   PO413272   2.924  11.346   6.471 -0.2268 -0.1340  0.2028
  955POPC   GL113273   3.019  11.364   6.864 -0.2291  0.1030 -0.1891
  955POPC   GL213274   3.364  11.427   6.713  0.2959 -0.1954 -0.0903
  955POPC   C1A13275   3.144  11.492   7.272 -0.4161 -0.1553  0.0254
  955POPC   D2A13276   3.238  11.714   7.561  0.1548  0.3434  0.2091
  955POPC   C3A13277   3.020  11.494   7.906  0.2057  0.1527  0.0837
  955POPC   C4A13278   3.057  11.132   8.168  0.1444  0.0792  0.0846
  955POPC   C1B13279   3.417  11.882   7.000  0.3046 -0.0008  0.0547
  955POPC   C2B13280   3.365  12.276   7.333 -0.2152 -0.0042 -0.1898
  955POPC   C3B13281   3.467  12.453   7.796 -0.2054 -0.1906  0.1462
  955POPC   C4B13282   3.816  12.738   8.073 -0.0714 -0.1731  0.2787
  956POPC   NC313283  17.504   5.986   6.234 -0.2774  0.2024 -0.0481
  956POPC   PO413284  17.574   6.554   6.325  0.2742  0.1829 -0.2640
  956POPC   GL113285  17.697   6.597   6.673 -0.1265 -0.2654 -0.1345
  956POPC   GL213286  17.697   6.910   6.780  0.2082  0.2384  0.4524
  956POPC   C1A13287  17.709   6.427   7.076  0.0488 -0.1297  0.1115
  956POPC   D2A13288  18.058   6.202   7.230  0.2675  0.2125  0.2169
  956POPC   C3A13289  18.144   5.810   7.056  0.0147  0.1759  0.2064
  956POPC   C4A13290  18.154   5.366   7.088 -0.2094  0.2644 -0.0300
  956POPC   C1B13291  17.542   6.911   7.143  0.2870  0.3094  0.0832
  956POPC   C2B13292  17.412   6.859   7.605 -0.4593 -0.3346  0.1627
  956POPC   C3B13293  17.303   6.963   7.990  0.0456  0.0889  0.2288
  956POPC   C4B13294  17.255   7.067   8.459  0.1264 -0.0516 -0.2246
  957POPC   NC313295  17.089   6.663   5.908 -0.0388  0.2046 -0.0883
  957POPC   PO413296  16.942   7.026   6.034  0.0484 -0.1482  0.0170
  957POPC   GL113297  16.865   7.227   6.531  0.0376  0.1709  0.0060
  957POPC   GL213298  16.803   6.999   6.755  0.1714  0.0884 -0.1025
  957POPC   C1A13299  16.804   7.503   6.862 -0.2647 -0.1538 -0.1709
  957POPC   D2A13300  17.045   7.722   7.151  0.0589  0.1100  0.1035
  957POPC   C3A13301  17.021   7.858   7.609  0.1084 -0.0430  0.2290
  957POPC   C4A13302  16.781   7.895   8.027 -0.1079 -0.2217 -0.0755
  957POPC   C1B13303  16.716   7.065   7.061  0.0657  0.0409  0.4504
  957POPC   C2B13304  16.696   7.348   7.427 -0.3410 -0.0503 -0.2306
  957POPC   C3B13305  16.690   7.434   7.896  0.0399 -0.0593 -0.1345
  957POPC   C4B13306  16.885   7.372   8.372  0.0011 -0.0386  0.0134
  958POPC   NC313307  13.807  14.448   5.856 -0.1683  0.0118  0.1610
  958POPC   PO413308  14.054  14.881   5.765 -0.1278 -0.0608  0.0249
  958POPC   GL113309  13.924  14.844   6.171  0.0922  0.1839  0.0030
  958POPC   GL213310  13.633  14.965   6.166  0.2835 -0.1140  0.2526
  958POPC   C1A13311  13.789  14.845   6.611  0.1338 -0.1400  0.0036
  958POPC   D2A13312  13.930  14.793   6.997  0.2004  0.0349  0.0780
  958POPC   C3A13313  13.742  14.491   7.240 -0.1330  0.3487  0.0619
  958POPC   C4A13314  13.536  14.431   7.666 -0.2503 -0.1183 -0.2954
  958POPC   C1B13315  13.313  14.803   6.432 -0.1546 -0.1195  0.0311
  958POPC   C2B13316  13.166  14.836   6.875  0.0753  0.0133  0.2327
  958POPC   C3B13317  13.425  14.949   7.168  0.1248  0.1750  0.0276
  958POPC   C4B13318  13.725  14.883   7.474  0.0943  0.1969 -0.0040
  959POPC   NC313319  11.962   3.072   6.309  0.0640  0.2118  0.3104
  959POPC   PO413320  11.566   2.978   6.543  0.0547 -0.0823  0.2830
  959POPC   GL113321  11.349   3.055   6.838 -0.0286 -0.0403 -0.2869
  959POPC   GL213322  11.263   3.398   7.052 -0.0670  0.2612  0.1160
  959POPC   C1A13323  11.136   2.795   7.182 -0.1482  0.0357 -0.1161
  959POPC   D2A13324  11.025   2.488   7.467 -0.1071  0.0149  0.2953
  959POPC   C3A13325  11.301   2.365   7.832 -0.1608  0.1150 -0.0758
  959POPC   C4A13326  11.544   2.658   8.162  0.0350  0.2756 -0.3473
  959POPC   C1B13327  11.365   3.184   7.345 -0.1374  0.1154  0.1128
  959POPC   C2B13328  11.365   2.895   7.681 -0.0470 -0.1252  0.0357
  959POPC   C3B13329  11.097   2.802   8.025 -0.2682 -0.0033 -0.1318
  959POPC   C4B13330  10.913   2.991   8.436  0.0653 -0.1687  0.0574
  960POPC   NC313331  11.339   4.262   6.402  0.2902  0.1202 -0.0479
  960POPC   PO413332  11.691   4.036   6.424  0.0170  0.1102 -0.0358
  960POPC   GL113333  11.878   4.066   6.786 -0.1339 -0.3129 -0.2095
  960POPC   GL213334  11.977   3.752   6.859 -0.0011  0.0380 -0.1048
  960POPC   C1A13335  11.882   4.161   7.226 -0.2877  0.1771  0.1274
  960POPC   D2A13336  11.625   4.186   7.659  0.1024 -0.1755  0.4032
  960POPC   C3A13337  11.593   4.280   8.122  0.0993  0.2624 -0.0649
  960POPC   C4A13338  11.368   3.903   8.369 -0.0399  0.0464 -0.1173
  960POPC   C1B13339  11.865   3.617   7.290 -0.2858  0.1034 -0.0141
  960POPC   C2B13340  11.995   3.667   7.716 -0.0230  0.1863  0.1876
  960POPC   C3B13341  12.139   3.567   8.089  0.0171 -0.0705 -0.4000
  960POPC   C4B13342  12.159   3.515   8.541 -0.0575  0.1403 -0.1829
  961POPC   NC313343   5.366  13.307   5.972  0.0594 -0.2926  0.4346
  961POPC   PO413344   5.678  12.928   5.819 -0.1270 -0.0961  0.0090
  961POPC   GL113345   5.752  12.931   6.269 -0.1867 -0.1809  0.0677
  961POPC   GL213346   5.610  13.229   6.387  0.1872 -0.0293  0.0331
  961POPC   C1A13347   5.837  12.908   6.720 -0.1448  0.1796  0.2331
  961POPC   D2A13348   5.664  13.187   6.924 -0.2828  0.0801  0.0732
  961POPC   C3A13349   5.585  13.225   7.288 -0.3211 -0.0301  0.2032
  961POPC   C4A13350   5.579  13.016   7.701  0.2189 -0.0750 -0.1149
  961POPC   C1B13351   5.648  13.620   6.627 -0.1400 -0.2702  0.2953
  961POPC   C2B13352   5.744  13.668   7.051 -0.1159 -0.0250 -0.0629
  961POPC   C3B13353   5.807  13.789   7.482 -0.0170  0.0753  0.0428
  961POPC   C4B13354   5.876  14.099   7.623  0.0134  0.0944  0.0364
  962POPC   NC313355  12.938   1.098   5.928  0.3154  0.1147  0.1601
  962POPC   PO413356  12.527   1.350   6.026 -0.0797  0.1220  0.0407
  962POPC   GL113357  12.587   1.341   6.431 -0.2396 -0.2857 -0.0859
  962POPC   GL213358  12.866   1.477   6.554 -0.0102 -0.2873 -0.0050
  962POPC   C1A13359  12.493   1.290   6.852 -0.2265 -0.1644 -0.0654
  962POPC   D2A13360  12.539   1.267   7.207  0.1595  0.0238 -0.0450
  962POPC   C3A13361  12.278   1.009   7.504  0.1381  0.3094  0.0622
  962POPC   C4A13362  11.995   0.658   7.673  0.0808 -0.3631 -0.0708
  962POPC   C1B13363  12.974   1.370   6.928  0.2407  0.0091  0.1458
  962POPC   C2B13364  13.062   1.232   7.309 -0.2480  0.0214  0.1912
  962POPC   C3B13365  12.802   1.369   7.637 -0.0511  0.0241 -0.0391
  962POPC   C4B13366  12.851   1.606   8.019  0.1793 -0.1878 -0.0193
  963POPC   NC313367  12.731   9.168   5.881  0.0903  0.3885 -0.2251
  963POPC   PO413368  12.217   8.980   5.983  0.0244 -0.3191  0.2047
  963POPC   GL113369  12.093   9.092   6.464  0.3661 -0.0776  0.0386
  963POPC   GL213370  11.792   9.155   6.570  0.2128  0.1831 -0.0142
  963POPC   C1A13371  12.215   9.443   6.747 -0.0439 -0.2467  0.1269
  963POPC   D2A13372  12.075   9.654   7.135 -0.0455 -0.2893  0.1506
  963POPC   C3A13373  12.395   9.793   7.361  0.1510  0.0010 -0.3820
  963POPC   C4A13374  12.530   9.857   7.802 -0.1799  0.1964 -0.2701
  963POPC   C1B13375  11.747   9.357   6.932 -0.0260 -0.0476  0.3266
  963POPC   C2B13376  11.533   9.403   7.162  0.0509  0.2509 -0.1394
  963POPC   C3B13377  11.454   9.546   7.640  0.1487 -0.0232 -0.1812
  963POPC   C4B13378  11.476   9.981   7.903  0.0767 -0.0959 -0.1781
  964POPC   NC313379   4.280  17.675   6.377 -0.0439 -0.2297 -0.1426
  964POPC   PO413380   4.715  17.646   6.619 -0.1892  0.3592 -0.1340
  964POPC   GL113381   4.723  17.665   7.037  0.0019  0.1042 -0.2136
  964POPC   GL213382   4.622  17.388   7.067 -0.0017 -0.3049  0.3574
  964POPC   C1A13383   4.945  17.933   7.317 -0.0706 -0.1570 -0.5160
  964POPC   D2A13384   5.000  18.280   7.531 -0.5361 -0.0492  0.0156
  964POPC   C3A13385   4.933  18.400   7.996 -0.1264 -0.1725 -0.1474
  964POPC   C4A13386   4.976  18.547   8.430 -0.2863 -0.0758  0.3573
  964POPC   C1B13387   4.658  17.496   7.510  0.0006 -0.0543  0.1150
  964POPC   C2B13388   4.641  17.456   7.937  0.0850  0.2179  0.4389
  964POPC   C3B13389   4.520  17.367   8.329 -0.1081  0.2437 -0.0336
  964POPC   C4B13390   4.542  17.115   8.648  0.0398  0.2243  0.1607
  965POPC   NC313391   5.604  17.473   6.137 -0.2070  0.0734  0.0295
  965POPC   PO413392   5.439  17.137   6.404  0.0470 -0.0177 -0.0269
  965POPC   GL113393   5.656  16.962   6.778  0.1146 -0.2058  0.1898
  965POPC   GL213394   5.891  16.816   6.681  0.0255 -0.1853  0.2380
  965POPC   C1A13395   5.630  16.895   7.141 -0.2160  0.2472 -0.0626
  965POPC   D2A13396   5.530  16.784   7.579 -0.0070  0.0938 -0.1065
  965POPC   C3A13397   5.495  16.473   7.791 -0.2579 -0.2579 -0.2270
  965POPC   C4A13398   5.715  16.160   7.953 -0.2946  0.1730 -0.0957
  965POPC   C1B13399   6.111  16.804   7.079 -0.1349 -0.1065  0.0968
  965POPC   C2B13400   6.013  16.876   7.548 -0.1455 -0.0871  0.1211
  965POPC   C3B13401   5.852  16.815   7.984  0.1179  0.0203  0.0729
  965POPC   C4B13402   5.594  16.713   8.307  0.1196  0.0965  0.0866
  966POPC   NC313403   4.192   6.440   6.126  0.2767  0.1719  0.2862
  966POPC   PO413404   4.486   6.709   6.357 -0.1111  0.4352  0.0213
  966POPC   GL113405   4.633   6.987   6.705  0.0783 -0.3596 -0.0320
  966POPC   GL213406   4.946   6.986   6.775 -0.0430  0.1132  0.4345
  966POPC   C1A13407   4.537   7.053   7.158  0.0074 -0.0947 -0.1245
  966POPC   D2A13408   4.719   6.930   7.566 -0.0378  0.0740  0.1471
  966POPC   C3A13409   4.876   6.564   7.460  0.0270 -0.0794  0.2220
  966POPC   C4A13410   4.719   6.623   7.008 -0.0911 -0.0812 -0.0390
  966POPC   C1B13411   5.067   7.015   7.180 -0.1311  0.0808  0.2610
  966POPC   C2B13412   5.161   7.140   7.644  0.0524  0.0234  0.0475
  966POPC   C3B13413   5.033   6.870   7.976  0.0449  0.0771  0.1606
  966POPC   C4B13414   5.046   6.710   8.421  0.0090 -0.0778 -0.0087
  967POPC   NC313415   9.583  15.457   5.531 -0.0030 -0.2868 -0.2107
  967POPC   PO413416   9.252  15.170   5.573  0.0206  0.2285 -0.0672
  967POPC   GL113417   9.449  15.285   5.968  0.0885 -0.1056 -0.2369
  967POPC   GL213418   9.568  15.650   5.986  0.1331  0.3588  0.2546
  967POPC   C1A13419   9.567  15.294   6.353  0.0116  0.1264 -0.0733
  967POPC   D2A13420   9.466  15.411   6.686  0.1122  0.0722  0.2676
  967POPC   C3A13421   9.309  15.070   6.915 -0.0724 -0.1655  0.0011
  967POPC   C4A13422   9.271  14.773   7.296  0.1642  0.1496  0.1187
  967POPC   C1B13423   9.491  15.796   6.325 -0.1809 -0.2661 -0.0933
  967POPC   C2B13424   9.457  15.931   6.738  0.4972  0.1595  0.2420
  967POPC   C3B13425   9.310  15.754   7.115  0.1921 -0.0886 -0.0742
  967POPC   C4B13426   9.243  15.899   7.490 -0.1002  0.2193  0.0615
  968POPC   NC313427   3.487   4.204   6.197 -0.1208  0.3989 -0.0533
  968POPC   PO413428   3.482   4.615   6.220 -0.1242  0.2612 -0.0443
  968POPC   GL113429   3.624   4.605   6.620  0.2557  0.0693  0.1545
  968POPC   GL213430   3.681   4.306   6.652 -0.2884 -0.0688  0.1319
  968POPC   C1A13431   3.555   4.978   6.936  0.1691 -0.1727  0.1880
  968POPC   D2A13432   3.550   5.154   7.424  0.0293 -0.0214 -0.2778
  968POPC   C3A13433   3.307   5.320   7.746 -0.1782 -0.0610 -0.3815
  968POPC   C4A13434   3.251   5.791   7.945 -0.2869 -0.0204 -0.0548
  968POPC   C1B13435   3.433   4.442   7.022  0.0239  0.1613 -0.3901
  968POPC   C2B13436   3.347   4.730   7.376 -0.1991 -0.1990 -0.0409
  968POPC   C3B13437   3.289   4.809   7.816  0.0783 -0.1854  0.0190
  968POPC   C4B13438   3.397   4.667   8.143  0.0220  0.2381 -0.0894
  969POPC   NC313439   3.739  12.461   6.260  0.1177  0.2714 -0.1240
  969POPC   PO413440   3.424  12.146   6.235 -0.1116  0.0222  0.1565
  969POPC   GL113441   3.406  12.343   6.617 -0.1730 -0.2806  0.0498
  969POPC   GL213442   3.217  12.208   6.762 -0.0923 -0.2384 -0.0110
  969POPC   C1A13443   3.691  12.259   6.940  0.0578 -0.2926 -0.1818
  969POPC   D2A13444   3.776  12.550   7.396 -0.2953  0.7709  0.1682
  969POPC   C3A13445   4.085  12.345   7.662 -0.1784  0.1086  0.3062
  969POPC   C4A13446   4.199  11.916   7.809  0.2162 -0.1256  0.1886
  969POPC   C1B13447   3.029  12.471   7.076 -0.1642 -0.0363  0.2130
  969POPC   C2B13448   2.782  12.414   7.416  0.0666  0.0727  0.0489
  969POPC   C3B13449   2.624  12.440   7.853  0.1253 -0.0623  0.1253
  969POPC   C4B13450   2.413  12.345   8.316 -0.0379  0.0108  0.1413
  970POPC   NC313451   3.007   3.442   6.494  0.0580 -0.1251  0.1808
  970POPC   PO413452   2.845   3.797   6.249 -0.3341  0.4085 -0.0090
  970POPC   GL113453   2.795   3.880   6.648 -0.0833 -0.0813 -0.0525
  970POPC   GL213454   2.466   4.015   6.711  0.2521  0.0060 -0.1428
  970POPC   C1A13455   2.766   4.061   7.128 -0.1702  0.1246 -0.1251
  970POPC   D2A13456   3.003   4.447   7.211 -0.1525 -0.0553  0.1635
  970POPC   C3A13457   2.919   4.572   7.540 -0.0087 -0.0792 -0.2266
  970POPC   C4A13458   2.828   4.951   7.564  0.1054  0.1657  0.1052
  970POPC   C1B13459   2.236   4.253   7.072  0.1203  0.1027  0.1368
  970POPC   C2B13460   2.389   4.079   7.557 -0.3803  0.0246  0.1582
  970POPC   C3B13461   2.510   4.091   7.995  0.0645 -0.2731 -0.3385
  970POPC   C4B13462   2.725   4.229   8.397  0.0273  0.0571 -0.1904
  971POPC   NC313463   0.505   6.896   5.893  0.1324  0.0530  0.1632
  971POPC   PO413464   0.883   7.008   6.273 -0.1291  0.4042  0.2647
  971POPC   GL113465   0.715   7.117   6.613 -0.1043  0.0883  0.1175
  971POPC   GL213466   0.451   6.906   6.703  0.3670 -0.0814 -0.1389
  971POPC   C1A13467   0.655   7.128   7.098  0.1122  0.1651  0.3096
  971POPC   D2A13468   0.808   6.979   7.504  0.1741 -0.0620 -0.2158
  971POPC   C3A13469   0.662   6.877   7.895 -0.1177 -0.2080 -0.0020
  971POPC   C4A13470   0.364   6.649   8.052 -0.3918  0.2539 -0.0828
  971POPC   C1B13471   0.389   6.769   7.217 -0.0531 -0.0887 -0.1125
  971POPC   C2B13472   0.287   6.989   7.495  0.1851 -0.1764  0.1857
  971POPC   C3B13473   0.167   7.064   7.940  0.0604  0.1050  0.0456
  971POPC   C4B13474  -0.046   7.046   8.255 -0.0768  0.1388 -0.0259
  972POPC   NC313475  12.406   9.877   5.869 -0.0540 -0.0785  0.1441
  972POPC   PO413476  11.939   9.955   5.892  0.2064  0.0260  0.3858
  972POPC   GL113477  11.754  10.002   6.230  0.2023  0.0314 -0.0975
  972POPC   GL213478  11.824   9.682   6.311 -0.0084  0.2725 -0.1300
  972POPC   C1A13479  11.620  10.218   6.537 -0.4118  0.2127 -0.0403
  972POPC   D2A13480  11.549  10.402   6.946  0.4113 -0.0448  0.1360
  972POPC   C3A13481  11.549  10.695   7.254 -0.0733  0.3661 -0.2884
  972POPC   C4A13482  11.585  10.871   7.671 -0.0263 -0.0130 -0.0401
  972POPC   C1B13483  11.800   9.781   6.694  0.1347  0.0460 -0.0401
  972POPC   C2B13484  11.648   9.884   7.193 -0.2719 -0.0380  0.1790
  972POPC   C3B13485  11.420  10.221   7.375  0.1544  0.1147 -0.0773
  972POPC   C4B13486  11.239  10.513   7.696  0.1618 -0.0227  0.2443
  973POPC   NC313487  15.652  15.619   5.577  0.2355 -0.3085  0.1683
  973POPC   PO413488  15.706  15.986   5.761 -0.2222 -0.1919 -0.2725
  973POPC   GL113489  15.967  15.965   6.143  0.0249 -0.1395  0.1585
  973POPC   GL213490  16.286  16.064   6.244 -0.0770  0.1528 -0.0838
  973POPC   C1A13491  15.775  16.129   6.515 -0.3022  0.0052  0.0170
  973POPC   D2A13492  15.604  16.299   6.939 -0.0695  0.0473 -0.1663
  973POPC   C3A13493  15.665  16.227   7.387  0.0155  0.1060  0.1016
  973POPC   C4A13494  15.600  16.093   7.798  0.0011 -0.3487 -0.1500
  973POPC   C1B13495  16.357  16.055   6.644 -0.1627  0.0104 -0.1101
  973POPC   C2B13496  16.474  15.996   7.048  0.1161  0.0888  0.0725
  973POPC   C3B13497  16.537  15.763   7.357 -0.1120  0.0100 -0.0656
  973POPC   C4B13498  16.494  15.802   7.834 -0.0725 -0.0938 -0.2557
  974POPC   NC313499  14.517   6.880   6.006 -0.3909  0.0187  0.0718
  974POPC   PO413500  14.600   6.505   6.270  0.0877 -0.2775  0.2543
  974POPC   GL113501  14.460   6.503   6.679 -0.2624  0.2498  0.0061
  974POPC   GL213502  14.722   6.309   6.835  0.1142  0.1248  0.1561
  974POPC   C1A13503  14.541   6.683   7.128 -0.0126  0.0378  0.2334
  974POPC   D2A13504  14.666   6.804   7.531 -0.0203  0.0032 -0.2886
  974POPC   C3A13505  14.383   6.852   7.906  0.0564  0.0567 -0.0334
  974POPC   C4A13506  14.131   6.941   8.114  0.1827  0.2505  0.3956
  974POPC   C1B13507  14.973   6.440   7.228 -0.2611 -0.3528  0.1021
  974POPC   C2B13508  15.085   6.501   7.637  0.3174 -0.0260 -0.0495
  974POPC   C3B13509  15.378   6.574   7.940 -0.2407 -0.2608 -0.3317
  974POPC   C4B13510  15.549   6.788   8.268  0.1014  0.1396  0.0374
  975POPC   NC313511   3.278  13.800   5.815  0.3233 -0.0757 -0.1743
  975POPC   PO413512   3.681  13.708   5.954  0.1756 -0.0742 -0.0830
  975POPC   GL113513   3.711  13.961   6.280  0.1937  0.1859 -0.0575
  975POPC   GL213514   3.483  13.909   6.408  0.1028 -0.0101 -0.2505
  975POPC   C1A13515   3.854  13.775   6.707  0.4896  0.0595  0.1040
  975POPC   D2A13516   3.890  13.714   7.173  0.0373 -0.0264 -0.1282
  975POPC   C3A13517   3.997  13.812   7.593 -0.1254 -0.0000 -0.0216
  975POPC   C4A13518   4.132  13.883   8.125  0.0052 -0.2593  0.1836
  975POPC   C1B13519   3.495  14.133   6.695  0.1247 -0.0944  0.3985
  975POPC   C2B13520   3.277  14.445   7.076 -0.1746  0.0822 -0.0645
  975POPC   C3B13521   3.202  14.372   7.500 -0.0283 -0.3057 -0.3215
  975POPC   C4B13522   3.174  14.518   7.967 -0.1538  0.0423  0.0098
  976POPC   NC313523  16.259  15.113   5.862 -0.0116 -0.0803 -0.1987
  976POPC   PO413524  16.371  14.662   5.882 -0.0240  0.1869  0.3252
  976POPC   GL113525  16.825  14.668   6.042 -0.2002 -0.0450  0.0530
  976POPC   GL213526  16.642  14.771   6.414 -0.2654 -0.0902  0.0229
  976POPC   C1A13527  17.061  14.534   6.506 -0.1060  0.0937  0.2794
  976POPC   D2A13528  17.310  14.545   6.801  0.2646  0.1265 -0.5336
  976POPC   C3A13529  17.124  14.285   7.148 -0.1563  0.1480  0.1264
  976POPC   C4A13530  17.254  14.127   7.595 -0.1474 -0.0851  0.0056
  976POPC   C1B13531  16.694  15.114   6.696  0.0214 -0.2861  0.0633
  976POPC   C2B13532  16.754  15.185   7.149 -0.0002  0.0766  0.1118
  976POPC   C3B13533  16.597  15.272   7.564  0.1522 -0.1019  0.2293
  976POPC   C4B13534  16.477  15.170   8.064 -0.2205 -0.1186  0.1960
  977POPC   NC313535  15.384   4.712   6.539  0.0086  0.1266  0.0787
  977POPC   PO413536  15.668   4.342   6.413  0.0199 -0.1208 -0.0194
  977POPC   GL113537  15.562   4.251   6.836  0.3461  0.2164 -0.1164
  977POPC   GL213538  15.674   4.462   6.967  0.0587 -0.1355  0.2109
  977POPC   C1A13539  15.170   4.394   7.195  0.0913 -0.2904  0.2985
  977POPC   D2A13540  14.990   4.479   7.650 -0.1961 -0.0009  0.1398
  977POPC   C3A13541  14.851   4.767   7.980 -0.2604 -0.2215  0.0567
  977POPC   C4A13542  14.978   4.667   8.442 -0.0636 -0.0570  0.1880
  977POPC   C1B13543  15.622   4.242   7.328 -0.2317 -0.0429  0.0829
  977POPC   C2B13544  15.464   4.266   7.719  0.1107  0.2724  0.0320
  977POPC   C3B13545  15.479   4.108   8.179  0.3043  0.1969  0.2412
  977POPC   C4B13546  15.501   3.962   8.610  0.0542 -0.1433  0.0719
  978POPC   NC313547  17.735  12.761   6.289 -0.1195  0.2610 -0.3419
  978POPC   PO413548  17.574  12.434   6.028 -0.0521  0.1456 -0.2602
  978POPC   GL113549  17.708  12.260   6.400 -0.1697 -0.0367  0.1898
  978POPC   GL213550  17.442  12.153   6.519  0.2643 -0.2298  0.0259
  978POPC   C1A13551  18.103  12.034   6.719 -0.1076 -0.0921 -0.1427
  978POPC   D2A13552  18.230  12.055   7.249 -0.0163  0.0681 -0.0088
  978POPC   C3A13553  18.176  12.196   7.703  0.0846 -0.1108  0.0277
  978POPC   C4A13554  17.976  12.510   7.729  0.1288  0.2040  0.1700
  978POPC   C1B13555  17.617  12.169   6.962  0.0286 -0.0374 -0.0819
  978POPC   C2B13556  17.714  12.169   7.407  0.3138  0.2747  0.1490
  978POPC   C3B13557  17.513  12.345   7.856 -0.1574 -0.1234 -0.0510
  978POPC   C4B13558  17.630  12.378   8.265  0.2581 -0.0046  0.1526
  979POPC   NC313559   7.169   8.859   6.172 -0.2391  0.0576 -0.0569
  979POPC   PO413560   7.317   9.219   6.254  0.2349  0.0768 -0.0377
  979POPC   GL113561   7.189   9.216   6.672 -0.2598 -0.1287 -0.1218
  979POPC   GL213562   6.905   9.074   6.725 -0.2790  0.0403 -0.0389
  979POPC   C1A13563   7.190   9.358   7.121  0.0929 -0.0671 -0.1319
  979POPC   D2A13564   6.937   9.229   7.523 -0.3850  0.2308  0.4172
  979POPC   C3A13565   6.891   9.356   7.918 -0.1953  0.1119  0.1726
  979POPC   C4A13566   6.840   9.693   8.266  0.1447 -0.3771 -0.1746
  979POPC   C1B13567   6.732   9.167   7.061  0.1839  0.0626 -0.0336
  979POPC   C2B13568   6.457   9.177   7.334 -0.1539  0.1333  0.4462
  979POPC   C3B13569   6.461   9.143   7.649 -0.1245  0.1947  0.0579
  979POPC   C4B13570   6.403   9.251   8.108 -0.2118  0.2068  0.0757
  980POPC   NC313571   2.258   1.682   6.360 -0.0666 -0.0243 -0.0025
  980POPC   PO413572   1.833   2.034   6.387  0.0640 -0.0694  0.1311
  980POPC   GL113573   1.996   1.770   6.824 -0.1133  0.3357 -0.1027
  980POPC   GL213574   2.002   1.874   7.027  0.1267  0.0110 -0.0303
  980POPC   C1A13575   1.958   1.401   7.096  0.0828 -0.0424  0.0952
  980POPC   D2A13576   1.869   1.278   7.543 -0.1326 -0.1864  0.2147
  980POPC   C3A13577   2.127   1.010   7.668 -0.3168 -0.0543 -0.0416
  980POPC   C4A13578   2.247   0.747   8.009  0.0213  0.0638  0.1748
  980POPC   C1B13579   1.937   1.754   7.438  0.0148  0.0179 -0.3034
  980POPC   C2B13580   1.794   1.608   7.867  0.2351 -0.2604 -0.1145
  980POPC   C3B13581   1.771   1.340   8.199  0.1579 -0.0093  0.0527
  980POPC   C4B13582   1.657   1.372   8.546 -0.0182 -0.1399 -0.1249
  981POPC   NC313583   9.025   3.122   6.094 -0.0068  0.1175  0.0702
  981POPC   PO413584   9.003   3.319   6.523  0.0396 -0.0943 -0.4341
  981POPC   GL113585   9.339   3.249   6.857 -0.2903 -0.1397  0.2580
  981POPC   GL213586   9.431   3.488   7.164 -0.0085 -0.1639 -0.1631
  981POPC   C1A13587   9.421   2.953   7.171  0.3212  0.0325  0.1876
  981POPC   D2A13588   9.329   2.903   7.620 -0.2042 -0.0920  0.1760
  981POPC   C3A13589   9.378   2.648   7.908  0.0237 -0.0303 -0.2310
  981POPC   C4A13590   9.463   2.503   8.268  0.0111  0.1743 -0.0932
  981POPC   C1B13591   9.143   3.335   7.396  0.2716  0.1618  0.0053
  981POPC   C2B13592   8.900   3.171   7.752 -0.0207 -0.0658  0.1154
  981POPC   C3B13593   8.648   3.174   8.116 -0.0527 -0.0725  0.0873
  981POPC   C4B13594   8.282   3.270   8.357 -0.0681  0.2209  0.2558
  982YOPC   NC313595  13.462  13.733   5.555  0.0290  0.0409  0.0485
  982YOPC   PO413596  13.165  13.773   5.852 -0.1047 -0.3001 -0.3979
  982YOPC   GL113597  13.245  13.725   6.263 -0.0249  0.0093  0.1098
  982YOPC   GL213598  13.115  13.523   6.510  0.2510 -0.0715  0.0172
  982YOPC   C1A13599  13.373  13.987   6.589  0.2891  0.0542 -0.3160
  982YOPC   D2A13600  13.423  14.408   6.788  0.2685  0.1952 -0.2720
  982YOPC   C3A13601  13.203  14.476   7.286  0.5883  0.2271  0.1373
  982YOPC   C4A13602  13.156  14.802   7.631  0.1819  0.1951 -0.2157
  982YOPC   C1B13603  13.149  13.580   6.896 -0.1302  0.1105  0.2597
  982YOPC   C2B13604  13.014  13.519   7.331 -0.1124  0.1255 -0.0569
  982YOPC   D3B13605  13.233  13.442   7.653 -0.1814  0.3462 -0.2419
  982YOPC   C4B13606  13.334  13.643   7.997  0.1542  0.0199  0.0717
  983YOPC   NC313607   6.892  14.140   5.944 -0.2639 -0.3678 -0.0798
  983YOPC   PO413608   7.200  14.424   5.885  0.1891 -0.1193  0.0548
  983YOPC   GL113609   7.300  14.673   6.190 -0.1456 -0.0089 -0.2443
  983YOPC   GL213610   7.391  15.074   6.068  0.4231 -0.2139 -0.0049
  983YOPC   C1A13611   7.670  14.838   6.344  0.1783 -0.1524  0.0216
  983YOPC   D2A13612   7.973  15.012   6.603 -0.0760  0.2651 -0.2371
  983YOPC   C3A13613   8.301  14.846   6.877  0.0342 -0.1017 -0.2573
  983YOPC   C4A13614   8.766  14.842   7.026  0.1350 -0.0973 -0.4229
  983YOPC   C1B13615   7.586  15.396   6.240 -0.1851  0.0174  0.1137
  983YOPC   C2B13616   7.776  15.681   6.657 -0.1978  0.1975  0.1212
  983YOPC   D3B13617   8.006  15.521   6.921  0.2488 -0.0758 -0.0776
  983YOPC   C4B13618   8.169  15.544   7.395  0.0981  0.0096  0.1555
  984YOPC   NC313619  17.292  12.016   6.068  0.3082 -0.1218  0.0362
  984YOPC   PO413620  17.255  11.582   5.993  0.2440 -0.3764 -0.3358
  984YOPC   GL113621  17.424  11.564   6.432  0.1850  0.1843 -0.1257
  984YOPC   GL213622  17.749  11.631   6.513  0.2742 -0.0116 -0.0336
  984YOPC   C1A13623  17.383  11.237   6.773 -0.0386  0.0682 -0.2184
  984YOPC   D2A13624  17.317  11.024   7.164  0.1030 -0.0996  0.0792
  984YOPC   C3A13625  17.508  11.255   7.513  0.3041  0.0153  0.0735
  984YOPC   C4A13626  17.664  11.364   7.875  0.1026 -0.1829  0.1120
  984YOPC   C1B13627  17.838  11.667   6.910  0.0013  0.0235 -0.0341
  984YOPC   C2B13628  17.793  11.660   7.357  0.2240  0.3156  0.0043
  984YOPC   D3B13629  18.073  11.722   7.618 -0.0627  0.0240  0.0641
  984YOPC   C4B13630  18.341  11.720   7.901 -0.2608 -0.0469 -0.1426
  985YOPC   NC313631   6.700   1.586   5.650  0.0404 -0.0092  0.0648
  985YOPC   PO413632   6.319   1.382   5.784 -0.3280 -0.1276 -0.1276
  985YOPC   GL113633   6.249   1.308   6.183 -0.1044  0.1112 -0.1000
  985YOPC   GL213634   6.351   1.529   6.436  0.1824  0.2574 -0.0762
  985YOPC   C1A13635   6.134   0.860   6.402 -0.1584  0.1551 -0.1395
  985YOPC   D2A13636   6.210   0.709   6.804 -0.0789 -0.0127  0.1677
  985YOPC   C3A13637   6.591   0.840   6.798  0.0772  0.1227 -0.0715
  985YOPC   C4A13638   6.994   0.851   7.082 -0.0853 -0.1469  0.0294
  985YOPC   C1B13639   6.246   1.272   6.758  0.5373 -0.1139 -0.2569
  985YOPC   C2B13640   6.317   1.121   7.111  0.2452 -0.0754  0.1764
  985YOPC   D3B13641   6.476   0.692   7.229  0.0516  0.2213  0.0509
  985YOPC   C4B13642   6.408   0.310   7.072  0.0634 -0.3036 -0.0636
  986YOPC   NC313643   0.394  13.503   5.857  0.0339  0.1011 -0.2596
  986YOPC   PO413644   0.654  13.450   6.295  0.0977 -0.0185  0.1810
  986YOPC   GL113645   0.969  13.413   6.588 -0.0588 -0.2992  0.5004
  986YOPC   GL213646   1.288  13.590   6.560 -0.4501 -0.0670 -0.1315
  986YOPC   C1A13647   1.258  13.376   7.033 -0.0369 -0.0496 -0.0365
  986YOPC   D2A13648   1.352  13.584   7.420  0.2757 -0.0929  0.1042
  986YOPC   C3A13649   1.135  13.444   7.670 -0.0059  0.1355  0.0579
  986YOPC   C4A13650   0.687  13.429   7.923  0.2295 -0.0693 -0.2108
  986YOPC   C1B13651   1.318  13.890   6.906  0.2052 -0.1543  0.1309
  986YOPC   C2B13652   1.446  14.100   7.309 -0.2173 -0.2296 -0.1373
  986YOPC   D3B13653   1.510  14.475   7.344 -0.0071  0.0309 -0.2548
  986YOPC   C4B13654   1.733  14.772   7.407 -0.2203  0.0297  0.0303
  987YOPC   NC313655  12.444  11.335   6.162 -0.1616 -0.0316  0.1610
  987YOPC   PO413656  12.760  11.372   6.370 -0.2597 -0.0080  0.3652
  987YOPC   GL113657  12.983  11.168   6.719  0.0488  0.0939  0.1821
  987YOPC   GL213658  12.873  10.804   6.823  0.0873 -0.1971  0.3846
  987YOPC   C1A13659  12.930  11.210   7.083  0.0469  0.0742  0.0574
  987YOPC   D2A13660  12.960  11.207   7.474 -0.0160  0.2830  0.0504
  987YOPC   C3A13661  13.300  11.035   7.749  0.2049  0.1313  0.0929
  987YOPC   C4A13662  13.212  10.886   8.109  0.0058 -0.0110  0.0565
  987YOPC   C1B13663  12.720  10.719   7.285 -0.0207 -0.2107  0.0017
  987YOPC   C2B13664  12.852  10.751   7.699 -0.0139  0.1747  0.1601
  987YOPC   D3B13665  12.876  10.398   8.040 -0.0214 -0.2580 -0.0406
  987YOPC   C4B13666  13.054  10.301   8.349 -0.4084 -0.2103  0.1966
  988YOPC   NC313667  12.889   4.508   6.637 -0.0618 -0.2000  0.2310
  988YOPC   PO413668  13.162   4.335   6.895  0.0339  0.1435  0.1303
  988YOPC   GL113669  13.193   4.194   7.278 -0.2230  0.0028  0.0243
  988YOPC   GL213670  13.210   3.880   7.363 -0.0806  0.4447  0.2626
  988YOPC   C1A13671  13.256   4.353   7.722  0.2887 -0.1055 -0.2669
  988YOPC   D2A13672  13.065   4.194   8.007 -0.1226  0.0371 -0.1195
  988YOPC   C3A13673  13.143   4.213   8.445  0.1500  0.1791 -0.0460
  988YOPC   C4A13674  12.981   4.294   8.822  0.1668 -0.0137 -0.3475
  988YOPC   C1B13675  13.108   3.747   7.736 -0.3161  0.1448  0.0107
  988YOPC   C2B13676  13.018   3.704   8.119 -0.0407 -0.0285 -0.2163
  988YOPC   D3B13677  13.131   3.362   8.310  0.1008  0.1418  0.0002
  988YOPC   C4B13678  12.960   3.164   8.659 -0.0438  0.3367 -0.1215
  989YOPC   NC313679   3.050  15.107   5.765 -0.2704 -0.0026 -0.0152
  989YOPC   PO413680   2.742  15.361   5.935 -0.0954  0.0812 -0.1924
  989YOPC   GL113681   2.716  15.355   6.409 -0.2308 -0.1805  0.3674
  989YOPC   GL213682   2.835  15.108   6.606 -0.0277  0.3810 -0.0012
  989YOPC   C1A13683   2.891  15.490   6.841  0.2501  0.1512  0.1218
  989YOPC   D2A13684   2.740  15.511   7.173 -0.2586  0.3553 -0.1027
  989YOPC   C3A13685   2.312  15.410   7.126  0.1506  0.1578  0.0817
  989YOPC   C4A13686   1.953  15.324   7.053 -0.1859 -0.2459  0.0861
  989YOPC   C1B13687   3.078  15.053   7.019 -0.2092 -0.0104  0.1615
  989YOPC   C2B13688   3.116  14.836   7.437 -0.1343  0.0226  0.0078
  989YOPC   D3B13689   3.121  15.012   7.830 -0.1732  0.0761 -0.3233
  989YOPC   C4B13690   3.143  15.429   8.041  0.1641  0.3385 -0.1269
  990YOPC   NC313691   2.413  13.310   6.213 -0.2827  0.0496 -0.0855
  990YOPC   PO413692   2.861  13.214   6.373  0.0216  0.0669  0.0125
  990YOPC   GL113693   2.568  13.329   6.747  0.2437  0.0435 -0.0460
  990YOPC   GL213694   2.202  13.358   6.674  0.0684 -0.3475 -0.4166
  990YOPC   C1A13695   2.647  13.495   7.130 -0.0925  0.0728 -0.0614
  990YOPC   D2A13696   2.577  13.472   7.593  0.2182  0.1202 -0.2461
  990YOPC   C3A13697   2.275  13.270   7.938  0.0680  0.0052 -0.2436
  990YOPC   C4A13698   2.257  13.236   8.346  0.0350  0.1232  0.2390
  990YOPC   C1B13699   2.263  13.152   7.103 -0.1614  0.2215  0.1552
  990YOPC   C2B13700   2.140  13.133   7.478 -0.1592  0.1161 -0.1089
  990YOPC   D3B13701   2.141  12.784   7.800 -0.1293  0.1045  0.2020
  990YOPC   C4B13702   2.095  12.686   8.233  0.1846  0.1532  0.0340
  991YOPC   NC313703  11.723  16.480   5.802 -0.2426  0.0200 -0.0157
  991YOPC   PO413704  11.779  16.052   6.070 -0.2461 -0.2776 -0.2622
  991YOPC   GL113705  11.826  16.358   6.291 -0.0177 -0.3284 -0.0141
  991YOPC   GL213706  11.573  16.549   6.381 -0.2938 -0.5457  0.1172
  991YOPC   C1A13707  11.849  16.396   6.789  0.1390 -0.0797  0.1052
  991YOPC   D2A13708  11.959  16.407   7.201 -0.0399  0.1386  0.1557
  991YOPC   C3A13709  12.340  16.385   7.388  0.1073  0.1156 -0.0750
  991YOPC   C4A13710  12.417  16.428   7.833 -0.4670 -0.0494 -0.0174
  991YOPC   C1B13711  11.391  16.496   6.789  0.0461  0.3248 -0.0740
  991YOPC   C2B13712  11.190  16.281   7.181  0.1291 -0.2141 -0.1060
  991YOPC   D3B13713  11.516  16.341   7.459  0.0814 -0.4720  0.3069
  991YOPC   C4B13714  11.922  16.563   7.660  0.1775  0.0347  0.0334
  992YOPC   NC313715   7.942  13.928   5.513 -0.1182 -0.0478  0.0671
  992YOPC   PO413716   8.373  13.918   5.628  0.0990 -0.0669 -0.0364
  992YOPC   GL113717   8.475  13.811   5.991  0.2297  0.0335 -0.2421
  992YOPC   GL213718   8.273  13.589   6.092  0.1623  0.1614  0.1426
  992YOPC   C1A13719   8.660  13.627   6.454  0.0769 -0.2232  0.0317
  992YOPC   D2A13720   8.793  13.627   6.865 -0.2643  0.2277  0.2342
  992YOPC   C3A13721   8.614  13.669   7.275 -0.0435  0.0435  0.1058
  992YOPC   C4A13722   8.660  13.348   7.619  0.2427  0.1756  0.0361
  992YOPC   C1B13723   8.093  13.452   6.452 -0.2158 -0.0546 -0.0599
  992YOPC   C2B13724   8.292  13.387   6.867 -0.0294  0.1901 -0.1483
  992YOPC   D3B13725   8.349  13.044   6.972 -0.1208  0.1331  0.0576
  992YOPC   C4B13726   8.496  12.913   7.362 -0.1607 -0.3527  0.5640
  993YOPC   NC313727   4.104   9.542   6.169  0.2288  0.2050  0.2689
  993YOPC   PO413728   4.273   9.904   6.183  0.1706 -0.0020  0.0860
  993YOPC   GL113729   4.520   9.682   6.488  0.2972 -0.1046  0.4737
  993YOPC   GL213730   4.410   9.446   6.650 -0.1060 -0.1140  0.3506
  993YOPC   C1A13731   4.966   9.599   6.612  0.0984  0.2503 -0.0796
  993YOPC   D2A13732   5.331   9.627   6.857 -0.0783  0.0501 -0.0293
  993YOPC   C3A13733   5.386  10.058   7.094 -0.0324  0.0765  0.0788
  993YOPC   C4A13734   5.357  10.223   7.423 -0.2444  0.1565  0.2461
  993YOPC   C1B13735   4.513   9.439   7.098 -0.0965  0.2026 -0.0909
  993YOPC   C2B13736   4.827   9.230   7.378  0.0247  0.1602  0.0628
  993YOPC   D3B13737   4.733   9.296   7.761  0.1602  0.0623  0.0611
  993YOPC   C4B13738   4.599   9.568   7.969 -0.0233 -0.0837 -0.2494
  994YOPC   NC313739   2.740   5.168   6.412 -0.4367 -0.0917 -0.0481
  994YOPC   PO413740   2.459   4.764   6.303 -0.2189  0.3801 -0.0435
  994YOPC   GL113741   2.444   4.542   6.712  0.3357  0.1381 -0.1167
  994YOPC   GL213742   2.719   4.446   6.768 -0.1787  0.0064 -0.3376
  994YOPC   C1A13743   2.536   4.594   7.267  0.2451 -0.3089  0.2632
  994YOPC   D2A13744   2.447   4.564   7.716  0.3943 -0.3145  0.3033
  994YOPC   C3A13745   2.744   4.515   8.002 -0.4067 -0.1246  0.2341
  994YOPC   C4A13746   2.930   4.668   8.324 -0.2071 -0.1234 -0.1505
  994YOPC   C1B13747   2.873   4.821   6.950 -0.2028  0.0456  0.1180
  994YOPC   C2B13748   3.123   5.124   7.186  0.1338  0.2315 -0.4725
  994YOPC   D3B13749   3.380   5.445   7.043 -0.1802  0.3432  0.2479
  994YOPC   C4B13750   3.538   5.864   7.007 -0.1114  0.0786  0.3079
  995YOPC   NC313751  11.839   4.917   6.549 -0.0743 -0.0883 -0.0166
  995YOPC   PO413752  12.210   4.836   6.473  0.0426  0.1230  0.2141
  995YOPC   GL113753  12.171   5.008   6.963 -0.0186 -0.2015  0.1796
  995YOPC   GL213754  12.500   5.128   7.040  0.1785  0.2929 -0.3120
  995YOPC   C1A13755  12.172   4.872   7.322  0.1148  0.1076 -0.1622
  995YOPC   D2A13756  12.014   4.539   7.629 -0.0817  0.1621  0.2283
  995YOPC   C3A13757  12.045   4.499   8.234  0.1734 -0.1893 -0.1374
  995YOPC   C4A13758  12.157   4.620   8.649  0.0985 -0.1462  0.0122
  995YOPC   C1B13759  12.333   5.244   7.532 -0.1458 -0.2616  0.0702
  995YOPC   C2B13760  12.533   5.531   7.840 -0.2136  0.4001 -0.0838
  995YOPC   D3B13761  12.550   5.298   8.214  0.3334  0.2747 -0.3034
  995YOPC   C4B13762  12.541   4.959   8.412 -0.1194  0.0250  0.0951
  996YOPC   NC313763   8.855   7.018   6.214  0.1363  0.2195 -0.0134
  996YOPC   PO413764   9.258   6.926   6.326  0.0787  0.1108  0.0280
  996YOPC   GL113765   9.105   6.968   6.704 -0.1151  0.0656 -0.0003
  996YOPC   GL213766   8.886   6.951   6.758  0.0720  0.1895 -0.1650
  996YOPC   C1A13767   9.001   6.983   7.217  0.0589  0.1265 -0.0287
  996YOPC   D2A13768   8.732   6.931   7.556 -0.0618  0.1549 -0.1012
  996YOPC   C3A13769   8.663   6.538   7.746 -0.0650  0.1901 -0.2702
  996YOPC   C4A13770   8.501   6.116   8.012  0.1312 -0.1775 -0.2138
  996YOPC   C1B13771   8.599   6.761   7.037 -0.2398 -0.0615  0.0045
  996YOPC   C2B13772   8.290   6.784   7.389  0.1128 -0.0946 -0.1292
  996YOPC   D3B13773   8.312   7.088   7.823  0.2550 -0.0374  0.1442
  996YOPC   C4B13774   8.396   7.270   8.115  0.2649 -0.0736  0.0555
  997YOPC   NC313775  17.294   4.658   6.363  0.3831 -0.2310 -0.1776
  997YOPC   PO413776  17.658   4.423   6.366  0.3610  0.0677  0.2204
  997YOPC   GL113777  17.825   4.503   6.742 -0.0503  0.1394  0.0029
  997YOPC   GL213778  18.130   4.635   6.810 -0.1637 -0.0363 -0.0905
  997YOPC   C1A13779  17.794   4.499   7.237  0.2471 -0.0780  0.1533
  997YOPC   D2A13780  17.720   4.663   7.652 -0.0167  0.0477  0.1102
  997YOPC   C3A13781  17.775   4.465   8.021 -0.0629  0.3492  0.1661
  997YOPC   C4A13782  17.960   4.451   8.414 -0.1670  0.0297  0.1044
  997YOPC   C1B13783  18.310   4.499   7.191 -0.2076  0.3922 -0.0097
  997YOPC   C2B13784  18.286   4.545   7.598  0.2323  0.1546 -0.0035
  997YOPC   D3B13785  18.165   4.877   7.910  0.1148 -0.2429  0.2582
  997YOPC   C4B13786  17.781   4.949   8.043  0.1916 -0.4386 -0.0296
  998YOPC   NC313787  13.451   5.483   6.507 -0.0316  0.0804 -0.1259
  998YOPC   PO413788  13.165   5.663   6.683  0.0962  0.2077  0.2743
  998YOPC   GL113789  13.419   5.802   7.005  0.1830  0.0159 -0.0873
  998YOPC   GL213790  13.685   5.791   6.929 -0.1641 -0.1813  0.3660
  998YOPC   C1A13791  13.352   5.758   7.411  0.0458 -0.1034 -0.1103
  998YOPC   D2A13792  13.355   5.867   7.747 -0.2151 -0.0264 -0.0813
  998YOPC   C3A13793  13.574   5.731   8.134 -0.0986 -0.1295 -0.1605
  998YOPC   C4A13794  13.822   5.695   8.413 -0.1529  0.0615  0.1131
  998YOPC   C1B13795  13.799   5.964   7.340  0.1956  0.2078 -0.0670
  998YOPC   C2B13796  13.944   6.057   7.716  0.3479  0.0350  0.1231
  998YOPC   D3B13797  13.728   6.242   8.030  0.1310  0.1742 -0.1431
  998YOPC   C4B13798  13.643   6.264   8.505 -0.1036 -0.0464  0.0115
  999YOPC   NC313799  11.461   9.631   5.970 -0.2343 -0.1144 -0.2874
  999YOPC   PO413800  11.255   9.852   5.659 -0.1979 -0.1367 -0.0517
  999YOPC   GL113801  11.238  10.075   6.009 -0.1925  0.1946 -0.4266
  999YOPC   GL213802  11.454  10.401   6.082 -0.0589 -0.0865  0.0449
  999YOPC   C1A13803  10.998  10.089   6.388 -0.0885 -0.1735  0.0788
  999YOPC   D2A13804  10.694   9.950   6.719  0.0393 -0.1079 -0.1152
  999YOPC   C3A13805  10.639   9.697   7.068 -0.1992 -0.1917 -0.1645
  999YOPC   C4A13806  10.520   9.907   7.412  0.3042 -0.0070  0.0184
  999YOPC   C1B13807  10.992  10.490   6.178 -0.1061  0.0681 -0.1238
  999YOPC   C2B13808  10.544  10.738   6.181  0.1013  0.0597  0.1833
  999YOPC   D3B13809  10.200  10.763   6.624  0.1390 -0.0395 -0.0602
  999YOPC   C4B13810   9.786  10.698   6.721 -0.1378 -0.0625  0.2176
 1000YOPC   NC313811  10.793  17.319   5.199 -0.1638 -0.1566 -0.0953
 1000YOPC   PO413812  10.615  17.412   5.506 -0.0658  0.1377  0.2966
 1000YOPC   GL113813  10.661  17.302   5.903  0.1797  0.1109  0.1902
 1000YOPC   GL213814  10.743  17.595   6.045  0.0101 -0.0989  0.0704
 1000YOPC   C1A13815  10.581  17.289   6.385 -0.1546 -0.0675  0.0400
 1000YOPC   D2A13816  10.723  17.479   6.834  0.2622 -0.0824 -0.1081
 1000YOPC   C3A13817  10.447  17.640   7.050 -0.4013 -0.0049 -0.1987
 1000YOPC   C4A13818  10.048  17.586   7.141 -0.1546  0.1388  0.0003
 1000YOPC   C1B13819  10.966  17.597   6.436 -0.3264 -0.1816 -0.2912
 1000YOPC   C2B13820  11.243  17.616   6.788 -0.2693 -0.2982 -0.0537
 1000YOPC   D3B13821  11.097  17.597   7.200  0.1898 -0.0752 -0.1570
 1000YOPC   C4B13822  10.825  17.674   7.505 -0.1473  0.0348 -0.3081
 1001YOPC   NC313823   0.595   6.122   6.358  0.1282 -0.0008  0.0343
 1001YOPC   PO413824   0.875   6.508   6.416  0.0430  0.0242 -0.2425
 1001YOPC   GL113825   0.927   6.675   6.908 -0.0034 -0.0177 -0.3882
 1001YOPC   GL213826   1.181   6.873   6.898  0.1831  0.1836 -0.1204
 1001YOPC   C1A13827   0.860   6.517   7.262 -0.1702 -0.0148 -0.1522
 1001YOPC   D2A13828   0.568   6.433   7.567 -0.4039  0.2364 -0.1557
 1001YOPC   C3A13829   0.111   6.493   7.548 -0.0899  0.0358  0.1080
 1001YOPC   C4A13830  -0.124   6.554   7.898  0.0007  0.0563 -0.1122
 1001YOPC   C1B13831   1.293   6.765   7.314  0.1044 -0.0498 -0.0388
 1001YOPC   C2B13832   1.555   6.683   7.676 -0.3160  0.1178  0.1009
 1001YOPC   D3B13833   1.596   6.871   8.086 -0.0697  0.2522 -0.0373
 1001YOPC   C4B13834   1.426   6.885   8.504  0.0938  0.0968 -0.1808
 1002YOPC   NC313835  16.777   3.371   6.334 -0.0689 -0.0021  0.0341
 1002YOPC   PO413836  16.819   3.065   6.443  0.2200 -0.5709  0.0858
 1002YOPC   GL113837  16.966   2.860   6.774 -0.0393  0.1694 -0.1094
 1002YOPC   GL213838  17.321   2.786   6.766  0.0254  0.0381 -0.2078
 1002YOPC   C1A13839  17.014   2.900   7.268  0.0745  0.2104 -0.0132
 1002YOPC   D2A13840  16.861   2.961   7.700 -0.2233 -0.0391  0.0107
 1002YOPC   C3A13841  16.888   2.637   8.059 -0.4208 -0.1120 -0.0048
 1002YOPC   C4A13842  17.085   2.489   8.475  0.0219 -0.0106  0.1004
 1002YOPC   C1B13843  17.523   2.808   7.129  0.2571  0.2161  0.1903
 1002YOPC   C2B13844  17.610   2.682   7.534 -0.1033  0.1764  0.1169
 1002YOPC   D3B13845  17.389   2.786   7.991  0.2226 -0.2680 -0.2923
 1002YOPC   C4B13846  17.232   3.028   8.385  0.2605  0.2668  0.0030
 1003YOPC   NC313847   8.497  11.509   6.004  0.3061 -0.1011  0.1544
 1003YOPC   PO413848   8.643  11.768   5.711 -0.1189  0.1567  0.0822
 1003YOPC   GL113849   8.895  11.808   6.141 -0.0233  0.2896  0.3616
 1003YOPC   GL213850   9.170  11.869   6.007 -0.0632 -0.0843 -0.0908
 1003YOPC   C1A13851   8.928  11.810   6.612 -0.1623 -0.0265 -0.1539
 1003YOPC   D2A13852   8.903  11.628   7.041 -0.0443  0.1520 -0.0410
 1003YOPC   C3A13853   8.944  11.775   7.505  0.2582 -0.0154  0.2572
 1003YOPC   C4A13854   9.295  12.058   7.619 -0.4690 -0.2702  0.3664
 1003YOPC   C1B13855   9.404  11.858   6.470  0.0437 -0.1631 -0.0885
 1003YOPC   C2B13856   9.643  12.184   6.759  0.1658 -0.1132  0.1663
 1003YOPC   D3B13857   9.730  12.049   7.241 -0.0056 -0.1089 -0.1543
 1003YOPC   C4B13858   9.867  12.055   7.711 -0.1510  0.1246  0.1677
 1004YOPC   NC313859   0.174  17.010   5.432  0.1533 -0.2015 -0.0539
 1004YOPC   PO413860   0.240  16.716   5.784  0.0716 -0.0085 -0.1464
 1004YOPC   GL113861   0.318  16.812   6.252  0.1900  0.0376 -0.3237
 1004YOPC   GL213862  -0.028  16.781   6.353  0.3266 -0.0972  0.5001
 1004YOPC   C1A13863   0.368  16.751   6.686 -0.1306  0.3025  0.1269
 1004YOPC   D2A13864   0.045  16.932   6.897 -0.3720  0.1380  0.0309
 1004YOPC   C3A13865  -0.054  16.931   7.317  0.0923 -0.2137  0.0635
 1004YOPC   C4A13866  -0.388  16.840   7.717 -0.2896  0.0555  0.0863
 1004YOPC   C1B13867  -0.349  16.685   6.754 -0.2207 -0.1879  0.0715
 1004YOPC   C2B13868  -0.725  16.365   6.884 -0.2521  0.0964 -0.1602
 1004YOPC   D3B13869  -0.795  16.167   7.367  0.2899 -0.0481 -0.1903
 1004YOPC   C4B13870  -0.708  15.974   7.899 -0.0181 -0.2355  0.0930
 1005YOPC   NC313871  13.525   7.852   5.818 -0.2916  0.1810 -0.1070
 1005YOPC   PO413872  13.486   7.441   6.062  0.1434 -0.0555 -0.2043
 1005YOPC   GL113873  13.498   7.427   6.511  0.1755  0.2109  0.0789
 1005YOPC   GL213874  13.313   7.236   6.703  0.0511 -0.3096 -0.3157
 1005YOPC   C1A13875  13.406   7.776   6.911 -0.0366  0.1901  0.0500
 1005YOPC   D2A13876  13.214   7.746   7.396  0.0122 -0.0804 -0.0075
 1005YOPC   C3A13877  13.029   8.074   7.715 -0.0469  0.0229 -0.1442
 1005YOPC   C4A13878  12.806   8.215   8.095 -0.1527  0.1015  0.1463
 1005YOPC   C1B13879  13.396   7.318   7.139 -0.0199  0.1314  0.0791
 1005YOPC   C2B13880  13.429   7.309   7.547 -0.1092  0.0943  0.1343
 1005YOPC   D3B13881  13.443   7.609   7.804 -0.1020  0.1428 -0.0767
 1005YOPC   C4B13882  13.279   7.659   8.221 -0.0817  0.0601 -0.1979
 1006YOPC   NC313883   7.645  12.287   5.685 -0.1542 -0.2613 -0.0013
 1006YOPC   PO413884   7.807  12.123   5.987  0.0194  0.1208  0.2212
 1006YOPC   GL113885   7.977  12.153   6.460 -0.1135 -0.1589 -0.0294
 1006YOPC   GL213886   8.034  11.860   6.480 -0.3475  0.0119 -0.0208
 1006YOPC   C1A13887   8.087  12.110   6.917 -0.1388 -0.1616  0.0124
 1006YOPC   D2A13888   8.424  11.926   7.091  0.1123 -0.0439 -0.0193
 1006YOPC   C3A13889   8.482  11.953   7.461 -0.1348  0.0192  0.0801
 1006YOPC   C4A13890   8.578  11.894   7.918 -0.2138 -0.4065  0.0008
 1006YOPC   C1B13891   8.453  11.949   6.568  0.2861  0.1494  0.2495
 1006YOPC   C2B13892   8.656  12.216   6.783  0.0917  0.1149 -0.0813
 1006YOPC   D3B13893   8.897  12.148   7.116  0.5543 -0.0581 -0.1563
 1006YOPC   C4B13894   9.292  11.948   6.981 -0.2160 -0.0706  0.0463
 1007YOPC   NC313895   5.671   6.891   5.886 -0.2992  0.1633  0.0826
 1007YOPC   PO413896   5.428   7.124   6.132  0.1209  0.0165 -0.1146
 1007YOPC   GL113897   5.828   7.014   6.364  0.2573 -0.0631  0.0379
 1007YOPC   GL213898   5.854   7.203   6.534 -0.1568 -0.1805  0.0770
 1007YOPC   C1A13899   6.293   6.920   6.557  0.0661 -0.4104  0.1726
 1007YOPC   D2A13900   6.444   6.540   6.865  0.1574 -0.2956 -0.2688
 1007YOPC   C3A13901   6.783   6.551   7.151 -0.1962  0.0612  0.3135
 1007YOPC   C4A13902   6.887   6.767   7.443 -0.0537 -0.2822 -0.0252
 1007YOPC   C1B13903   6.145   7.271   6.879  0.0241  0.3228 -0.5333
 1007YOPC   C2B13904   6.341   7.398   7.174 -0.0411 -0.2185 -0.0464
 1007YOPC   D3B13905   6.538   7.108   7.466  0.1310 -0.2235  0.0730
 1007YOPC   C4B13906   6.446   6.970   7.914  0.1378  0.3841  0.3605
 1008YOPC   NC313907   0.149  14.099   5.993  0.2782  0.3259  0.2804
 1008YOPC   PO413908   0.455  14.031   6.308  0.0517 -0.0513 -0.0389
 1008YOPC   GL113909   0.321  13.942   6.642  0.1879 -0.1758 -0.1333
 1008YOPC   GL213910   0.393  13.608   6.678 -0.1989  0.0566 -0.1533
 1008YOPC   C1A13911   0.324  13.943   7.113  0.0200  0.0627 -0.0623
 1008YOPC   D2A13912   0.305  14.069   7.613  0.0728  0.0266  0.2080
 1008YOPC   C3A13913   0.038  13.905   7.898  0.2709  0.2750 -0.0192
 1008YOPC   C4A13914  -0.356  13.751   7.901  0.2878  0.0077 -0.0073
 1008YOPC   C1B13915   0.612  13.400   6.966 -0.0387  0.1263 -0.0598
 1008YOPC   C2B13916   0.803  13.377   7.316  0.0636  0.1895  0.0219
 1008YOPC   D3B13917   0.757  13.021   7.542  0.1217 -0.0288 -0.1448
 1008YOPC   C4B13918   0.642  12.621   7.412  0.2088 -0.1313 -0.0036
 1009YOPC   NC313919  14.416   3.588   6.347 -0.0879 -0.2026 -0.4251
 1009YOPC   PO413920  14.048   3.716   6.386  0.1413 -0.1755 -0.0566
 1009YOPC   GL113921  13.716   3.528   6.637  0.0546  0.0559  0.1331
 1009YOPC   GL213922  13.898   3.649   6.862  0.3317  0.1609 -0.2163
 1009YOPC   C1A13923  13.443   3.374   7.053 -0.1880  0.0061  0.0103
 1009YOPC   D2A13924  13.323   2.979   7.200  0.0035  0.1663 -0.2391
 1009YOPC   C3A13925  13.530   2.928   7.621 -0.1665  0.1837  0.2109
 1009YOPC   C4A13926  13.717   2.899   8.024  0.1479 -0.0383 -0.1152
 1009YOPC   C1B13927  13.821   3.654   7.306 -0.0465  0.1032  0.0563
 1009YOPC   C2B13928  13.516   3.515   7.542  0.1095  0.1856 -0.0652
 1009YOPC   D3B13929  13.473   3.372   7.961  0.1042 -0.1564  0.3170
 1009YOPC   C4B13930  13.639   3.275   8.387  0.1685  0.2621  0.1384
 1010YOPC   NC313931   4.150  10.372   6.336  0.0177 -0.3198  0.0654
 1010YOPC   PO413932   3.981  10.881   6.236  0.1487  0.1313  0.0651
 1010YOPC   GL113933   4.183  10.856   6.557  0.0766 -0.0695 -0.0346
 1010YOPC   GL213934   4.493  10.641   6.768  0.2117  0.0271 -0.2654
 1010YOPC   C1A13935   4.059  10.826   7.017  0.1212  0.0061 -0.0470
 1010YOPC   D2A13936   3.884  10.621   7.360  0.1973 -0.1330  0.1838
 1010YOPC   C3A13937   4.014  10.659   7.746  0.1512 -0.0332 -0.1480
 1010YOPC   C4A13938   4.264  10.729   8.045 -0.1469  0.2245 -0.1611
 1010YOPC   C1B13939   4.573  10.716   7.198 -0.0845  0.1877  0.0113
 1010YOPC   C2B13940   4.506  10.648   7.595  0.0635  0.0431 -0.2127
 1010YOPC   D3B13941   4.753  10.908   7.927 -0.0354  0.1885  0.1348
 1010YOPC   C4B13942   4.646  11.218   8.339  0.0986 -0.1601  0.1805
 1011YOPC   NC313943   5.579   9.442   6.322  0.1927 -0.1116 -0.2039
 1011YOPC   PO413944   5.581   8.958   6.148  0.1433 -0.1643  0.2810
 1011YOPC   GL113945   5.587   8.946   6.582 -0.0820  0.0332  0.1990
 1011YOPC   GL213946   5.848   9.212   6.660  0.3177  0.0149  0.1353
 1011YOPC   C1A13947   5.277   9.141   6.789  0.3349  0.0945  0.0821
 1011YOPC   D2A13948   4.790   9.081   6.860 -0.4693  0.0041 -0.1631
 1011YOPC   C3A13949   4.538   8.888   7.200  0.1138  0.2755  0.1760
 1011YOPC   C4A13950   4.436   8.948   7.567  0.0024 -0.3426  0.2127
 1011YOPC   C1B13951   5.762   9.170   7.113  0.0601  0.4347 -0.2566
 1011YOPC   C2B13952   5.731   9.213   7.520 -0.3787  0.0139 -0.2582
 1011YOPC   D3B13953   5.979   9.009   7.815  0.0373  0.0164 -0.1875
 1011YOPC   C4B13954   5.815   8.710   8.097  0.2629  0.0790 -0.0315
 1012YOPC   NC313955   2.438  10.456   6.248  0.1691  0.2590 -0.2322
 1012YOPC   PO413956   2.640  10.046   6.262 -0.1781 -0.2288 -0.1834
 1012YOPC   GL113957   2.866  10.060   6.528  0.1151 -0.1336 -0.2205
 1012YOPC   GL213958   2.708  10.378   6.667  0.2421  0.0876  0.1754
 1012YOPC   C1A13959   3.052  10.171   7.011  0.0293 -0.0737 -0.1635
 1012YOPC   D2A13960   2.925  10.188   7.511  0.2675  0.1897  0.1228
 1012YOPC   C3A13961   3.124  10.084   7.927 -0.2441 -0.0266  0.1412
 1012YOPC   C4A13962   3.345  10.316   8.219  0.2694  0.1749 -0.2945
 1012YOPC   C1B13963   2.725  10.493   7.119 -0.1423  0.1592  0.0875
 1012YOPC   C2B13964   2.590  10.610   7.506  0.2539  0.0415 -0.0701
 1012YOPC   D3B13965   2.616  10.284   7.891 -0.1586  0.0479 -0.3971
 1012YOPC   C4B13966   2.598  10.329   8.340  0.1657 -0.1922 -0.0496
 1013YOPC   NC313967  13.047  12.438   5.731  0.1203  0.1200 -0.0107
 1013YOPC   PO413968  13.128  12.378   6.167  0.1411  0.2761 -0.2453
 1013YOPC   GL113969  12.808  12.490   6.477  0.1491 -0.2238  0.0434
 1013YOPC   GL213970  12.721  12.238   6.526  0.1144  0.1764 -0.1014
 1013YOPC   C1A13971  12.752  12.674   6.833  0.1196 -0.0348  0.2091
 1013YOPC   D2A13972  12.869  12.608   7.260  0.1086  0.1871  0.0226
 1013YOPC   C3A13973  13.055  12.714   7.594 -0.1317  0.0753 -0.3311
 1013YOPC   C4A13974  13.256  12.624   7.926  0.2463 -0.1914 -0.1167
 1013YOPC   C1B13975  12.812  12.160   7.003  0.1704 -0.3295  0.0060
 1013YOPC   C2B13976  12.625  12.236   7.450  0.2199  0.1552 -0.2126
 1013YOPC   D3B13977  12.541  12.662   7.702  0.1935  0.4397 -0.1413
 1013YOPC   C4B13978  12.308  12.908   8.045 -0.2572 -0.3978  0.1527
 1014YOPC   NC313979   2.839  17.358   6.277  0.2163 -0.0957  0.1232
 1014YOPC   PO413980   2.469  17.086   6.170  0.1527  0.2023 -0.1530
 1014YOPC   GL113981   2.246  17.003   6.474 -0.1792  0.0177  0.0696
 1014YOPC   GL213982   2.008  16.821   6.349 -0.1368  0.1878  0.0525
 1014YOPC   C1A13983   2.482  17.242   6.912 -0.1787  0.0661  0.1161
 1014YOPC   D2A13984   2.725  17.446   7.237  0.1220 -0.2019 -0.0169
 1014YOPC   C3A13985   2.620  17.534   7.697  0.0882 -0.0500  0.0998
 1014YOPC   C4A13986   2.414  17.399   8.097 -0.2020  0.3301 -0.0949
 1014YOPC   C1B13987   1.879  16.544   6.668  0.1026  0.1788  0.1134
 1014YOPC   C2B13988   1.755  16.623   7.042  0.1445 -0.0510 -0.1076
 1014YOPC   D3B13989   2.002  16.689   7.436  0.5002  0.0897 -0.0257
 1014YOPC   C4B13990   2.417  16.674   7.648 -0.2103  0.0729  0.1168
 1015YOPC   NC313991  10.812   6.189   6.655  0.2991  0.0884  0.2105
 1015YOPC   PO413992  10.541   6.475   6.608  0.1116 -0.1467  0.0033
 1015YOPC   GL113993  10.616   6.911   6.699 -0.0829  0.2427 -0.0627
 1015YOPC   GL213994  10.442   7.136   6.663 -0.2421 -0.5044 -0.2020
 1015YOPC   C1A13995  10.551   6.927   7.119  0.3048  0.0530  0.1381
 1015YOPC   D2A13996  10.113   7.115   7.322  0.0077  0.1589  0.0877
 1015YOPC   C3A13997   9.995   7.035   7.774  0.1507 -0.2197  0.1926
 1015YOPC   C4A13998   9.684   6.965   8.035  0.0764  0.1581  0.0651
 1015YOPC   C1B13999  10.028   7.196   6.779  0.2444  0.0122  0.3069
 1015YOPC   C2B14000   9.662   7.443   7.057  0.1094  0.0272 -0.0156
 1015YOPC   D3B14001   9.566   7.869   7.061 -0.0770  0.0515  0.1093
 1015YOPC   C4B14002   9.534   8.314   7.008  0.2521 -0.1051  0.1065
 1016YOPC   NC314003   7.217   9.422   5.823 -0.0112  0.2508  0.1494
 1016YOPC   PO414004   6.813   9.248   6.080 -0.1439  0.2135  0.0832
 1016YOPC   GL114005   6.841   9.537   6.441 -0.3973  0.3137  0.2280
 1016YOPC   GL214006   6.675   9.580   6.665 -0.0137 -0.1449 -0.1967
 1016YOPC   C1A14007   7.150   9.690   6.721  0.0370  0.1750 -0.1969
 1016YOPC   D2A14008   7.286   9.897   7.140  0.0550 -0.2010 -0.0811
 1016YOPC   C3A14009   7.581   9.632   7.267 -0.3328 -0.0402 -0.0830
 1016YOPC   C4A14010   7.698   9.556   7.582 -0.0485  0.1388  0.2689
 1016YOPC   C1B14011   6.766   9.664   7.130 -0.0983 -0.2545  0.1501
 1016YOPC   C2B14012   6.640   9.684   7.495 -0.1152  0.1310  0.1487
 1016YOPC   D3B14013   6.491  10.055   7.620  0.0685  0.3516 -0.1748
 1016YOPC   C4B14014   6.503  10.311   7.914  0.2630  0.5811  0.0894
 1017YOPC   NC314015   7.425  11.768   5.902  0.1792 -0.1199  0.0966
 1017YOPC   PO414016   7.147  11.369   6.152 -0.2056  0.1714 -0.2172
 1017YOPC   GL114017   7.347  11.112   6.470  0.2146  0.2204  0.3946
 1017YOPC   GL214018   7.612  11.141   6.625  0.0078  0.0236 -0.0782
 1017YOPC   C1A14019   7.276  10.928   6.932  0.1816 -0.1597  0.0540
 1017YOPC   D2A14020   7.395  10.901   7.432  0.0509  0.0338 -0.0412
 1017YOPC   C3A14021   7.129  11.201   7.578 -0.0645  0.2860 -0.1048
 1017YOPC   C4A14022   6.955  11.252   7.962  0.0440 -0.1031  0.0537
 1017YOPC   C1B14023   7.833  11.495   6.905 -0.0284  0.1091 -0.0084
 1017YOPC   C2B14024   8.020  11.664   7.227  0.0743 -0.1440 -0.1182
 1017YOPC   D3B14025   7.965  12.046   7.444 -0.0517 -0.2421  0.2378
 1017YOPC   C4B14026   8.003  12.206   7.857  0.0173  0.1894 -0.3349
 1018YOPC   NC314027  13.034  14.722   5.334  0.1992  0.1813 -0.3180
 1018YOPC   PO414028  12.867  14.893   5.728  0.1472  0.0226  0.0481
 1018YOPC   GL114029  12.693  15.068   6.107  0.4290 -0.2583 -0.1939
 1018YOPC   GL214030  12.451  15.410   6.145 -0.2936  0.1276 -0.1330
 1018YOPC   C1A14031  12.864  15.016   6.491 -0.1869 -0.0379  0.1672
 1018YOPC   D2A14032  12.602  15.033   6.925 -0.0620 -0.0770  0.0661
 1018YOPC   C3A14033  12.687  15.185   7.352 -0.2249  0.0533  0.2717
 1018YOPC   C4A14034  12.749  15.564   7.380 -0.1861 -0.2428 -0.0578
 1018YOPC   C1B14035  12.366  15.365   6.578  0.1161  0.0428  0.0502
 1018YOPC   C2B14036  12.149  15.136   6.804 -0.2832  0.3306  0.1823
 1018YOPC   D3B14037  12.241  15.143   7.251  0.0789 -0.0835 -0.5287
 1018YOPC   C4B14038  12.371  14.968   7.646 -0.0622 -0.4055  0.1850
 1019YOPC   NC314039   4.755  15.560   6.113  0.0800  0.2655  0.0977
 1019YOPC   PO414040   4.331  15.470   6.011  0.0850  0.0955 -0.0722
 1019YOPC   GL114041   4.048  15.144   6.245 -0.1798 -0.3789 -0.0781
 1019YOPC   GL214042   4.164  15.282   6.571 -0.2073  0.2204 -0.0135
 1019YOPC   C1A14043   4.071  14.747   6.409  0.1406  0.1108  0.1469
 1019YOPC   D2A14044   3.967  14.364   6.669 -0.2421 -0.1248 -0.0436
 1019YOPC   C3A14045   4.370  14.437   6.844  0.1751  0.1047  0.0066
 1019YOPC   C4A14046   4.530  14.422   7.250  0.0823  0.1877 -0.2261
 1019YOPC   C1B14047   4.173  14.951   6.822  0.1770 -0.0336  0.0391
 1019YOPC   C2B14048   4.343  14.870   7.187  0.1840  0.0090  0.2627
 1019YOPC   D3B14049   4.119  14.639   7.542  0.0434  0.0388  0.1252
 1019YOPC   C4B14050   4.143  14.685   7.960 -0.0038  0.0831  0.1882
 1020YOPC   NC314051  10.723   7.080   6.212 -0.0224  0.3168 -0.2060
 1020YOPC   PO414052  10.489   7.466   6.319  0.0203 -0.1719 -0.2023
 1020YOPC   GL114053  10.630   7.701   6.710  0.2108 -0.0725 -0.1127
 1020YOPC   GL214054  10.292   7.626   6.807 -0.3126  0.0313  0.0069
 1020YOPC   C1A14055  10.693   7.916   7.105  0.0777  0.1358  0.0754
 1020YOPC   D2A14056  10.733   8.087   7.542 -0.0822  0.1444  0.2231
 1020YOPC   C3A14057  11.002   8.316   7.856 -0.2560  0.0980  0.0699
 1020YOPC   C4A14058  11.129   8.578   8.147 -0.0004  0.0245  0.0431
 1020YOPC   C1B14059  10.167   7.726   7.193 -0.0469 -0.0055 -0.2879
 1020YOPC   C2B14060   9.779   7.647   7.500  0.1252  0.0391 -0.4003
 1020YOPC   D3B14061   9.922   7.544   7.817  0.1150 -0.2200  0.2524
 1020YOPC   C4B14062   9.715   7.622   8.213 -0.1744 -0.1607 -0.2219
 1021YOPC   NC314063   8.212   6.359   6.563 -0.0549 -0.0088 -0.0584
 1021YOPC   PO414064   8.260   5.991   6.473 -0.0880  0.0390  0.1128
 1021YOPC   GL114065   8.023   5.943   6.911  0.0819 -0.0362 -0.3223
 1021YOPC   GL214066   8.075   6.191   7.036 -0.1471  0.1090  0.0097
 1021YOPC   C1A14067   7.925   5.805   7.378 -0.0765  0.0730  0.0712
 1021YOPC   D2A14068   7.831   5.973   7.748  0.0187  0.0021  0.1028
 1021YOPC   C3A14069   8.145   5.825   8.094 -0.1298 -0.0031 -0.3764
 1021YOPC   C4A14070   8.365   5.723   8.442 -0.1344 -0.2017 -0.1026
 1021YOPC   C1B14071   7.733   6.353   7.401 -0.1715  0.0043  0.5462
 1021YOPC   C2B14072   7.606   6.395   7.878 -0.0462  0.0401 -0.1077
 1021YOPC   D3B14073   7.546   6.009   8.203 -0.0896  0.1188  0.0861
 1021YOPC   C4B14074   7.488   5.851   8.687 -0.2335 -0.1038 -0.1892
 1022YOPC   NC314075  11.456   2.083   6.102 -0.0345 -0.2343  0.2501
 1022YOPC   PO414076  11.877   1.762   5.888 -0.0309  0.1977 -0.0955
 1022YOPC   GL114077  12.022   1.470   6.199 -0.1185  0.0964  0.1710
 1022YOPC   GL214078  12.180   1.685   6.355  0.0312  0.1925  0.0602
 1022YOPC   C1A14079  11.877   1.308   6.636  0.3068  0.0577  0.0578
 1022YOPC   D2A14080  12.043   1.292   7.024 -0.1496  0.0351 -0.0039
 1022YOPC   C3A14081  11.801   1.056   7.292 -0.2622  0.2261 -0.1178
 1022YOPC   C4A14082  11.807   1.135   7.660  0.0059 -0.0669 -0.1099
 1022YOPC   C1B14083  12.145   1.716   6.784 -0.1212 -0.0968 -0.1551
 1022YOPC   C2B14084  12.237   1.682   7.187  0.0060  0.0527  0.1656
 1022YOPC   D3B14085  11.858   1.628   7.425 -0.3170 -0.0053 -0.2309
 1022YOPC   C4B14086  11.684   1.638   7.837 -0.0683  0.0960 -0.0120
 1023YOPC   NC314087  12.095   1.341   5.728 -0.1599  0.1080  0.2549
 1023YOPC   PO414088  12.042   0.849   5.751  0.1650  0.1624 -0.0653
 1023YOPC   GL114089  11.667   0.779   6.054 -0.0991 -0.0101 -0.0431
 1023YOPC   GL214090  11.642   0.474   6.053 -0.0785  0.3573  0.1263
 1023YOPC   C1A14091  11.676   0.856   6.488 -0.3902 -0.1424 -0.0891
 1023YOPC   D2A14092  11.408   0.864   6.857 -0.1250 -0.2991  0.1537
 1023YOPC   C3A14093  11.353   1.151   7.097  0.0459  0.1254  0.0055
 1023YOPC   C4A14094  11.330   1.571   7.412  0.0888  0.1795  0.1013
 1023YOPC   C1B14095  11.551   0.328   6.367  0.0481  0.0883  0.0847
 1023YOPC   C2B14096  11.177   0.313   6.612  0.0342 -0.1468 -0.0250
 1023YOPC   D3B14097  11.228   0.386   7.020 -0.3053  0.0333  0.2027
 1023YOPC   C4B14098  11.215   0.271   7.471 -0.1526  0.1688 -0.1545
 1024YOPC   NC314099   1.463  11.399   5.752  0.0403  0.0671 -0.1130
 1024YOPC   PO414100   0.984  11.362   5.772  0.1547  0.0407 -0.2026
 1024YOPC   GL114101   0.945  11.325   6.236  0.2214 -0.0045 -0.0070
 1024YOPC   GL214102   1.267  11.298   6.303 -0.2861 -0.1288  0.2809
 1024YOPC   C1A14103   0.670  11.326   6.587  0.0438  0.0841 -0.1493
 1024YOPC   D2A14104   0.689  11.565   6.813 -0.0367  0.1756  0.0875
 1024YOPC   C3A14105   0.690  11.480   7.201  0.0180  0.0626 -0.1250
 1024YOPC   C4A14106   0.827  11.376   7.582 -0.1660  0.0474 -0.2243
 1024YOPC   C1B14107   1.158  11.137   6.712  0.0696 -0.1961  0.1698
 1024YOPC   C2B14108   0.797  10.946   6.926  0.0729  0.0538 -0.0278
 1024YOPC   D3B14109   0.688  10.967   7.261 -0.0438  0.1444  0.2569
 1024YOPC   C4B14110   0.775  10.858   7.642  0.1218 -0.1676 -0.1680
 1025YOPC   NC314111   7.298   1.835   6.368  0.4511  0.2559  0.2616
 1025YOPC   PO414112   6.937   1.801   5.971  0.0555 -0.1762  0.0600
 1025YOPC   GL114113   6.850   1.641   6.313 -0.0136 -0.3120 -0.1426
 1025YOPC   GL214114   6.839   1.836   6.577 -0.1258 -0.0657 -0.1498
 1025YOPC   C1A14115   6.774   1.276   6.560 -0.1180  0.2013  0.0181
 1025YOPC   D2A14116   6.781   1.299   6.942  0.2435 -0.3921  0.0612
 1025YOPC   C3A14117   6.744   1.148   7.386 -0.0137  0.1503 -0.1711
 1025YOPC   C4A14118   6.954   0.833   7.584  0.0420 -0.0203 -0.5047
 1025YOPC   C1B14119   6.968   1.913   6.972  0.0019 -0.3550  0.0935
 1025YOPC   C2B14120   6.960   1.819   7.377 -0.2545 -0.1126  0.3371
 1025YOPC   D3B14121   6.862   1.822   7.807  0.0243  0.2164  0.3076
 1025YOPC   C4B14122   6.811   1.648   8.136 -0.0320  0.0754  0.0835
 1026YOPC   NC314123   9.459  12.276   5.109 -0.0650 -0.0220  0.1041
 1026YOPC   PO414124   9.240  12.546   5.362 -0.1558 -0.1410  0.3462
 1026YOPC   GL114125   9.464  12.812   5.781 -0.0611 -0.0304 -0.0319
 1026YOPC   GL214126   9.668  13.205   5.681 -0.2777 -0.1272 -0.1381
 1026YOPC   C1A14127   9.456  13.190   6.147 -0.2610  0.0784  0.0815
 1026YOPC   D2A14128   9.613  13.482   6.395 -0.2047  0.0403  0.2755
 1026YOPC   C3A14129   9.715  13.282   6.760  0.2862  0.0058 -0.0442
 1026YOPC   C4A14130   9.752  13.138   7.125 -0.0735 -0.0683  0.0473
 1026YOPC   C1B14131   9.824  13.596   5.903  0.0198 -0.1998 -0.2864
 1026YOPC   C2B14132  10.074  13.797   6.295  0.1826  0.1834  0.0395
 1026YOPC   D3B14133  10.444  14.012   6.340 -0.0427 -0.0767  0.1850
 1026YOPC   C4B14134  10.828  14.220   6.321  0.1139 -0.1702  0.1296
 1027YOPC   NC314135   6.306   0.311   5.882  0.1003 -0.1545  0.0666
 1027YOPC   PO414136   6.004   0.026   6.016  0.0148  0.0788 -0.1560
 1027YOPC   GL114137   5.875  -0.027   6.512 -0.3216 -0.1050  0.1682
 1027YOPC   GL214138   5.632  -0.207   6.711 -0.1572  0.0718  0.0153
 1027YOPC   C1A14139   5.768   0.280   6.858  0.0153  0.0616 -0.0691
 1027YOPC   D2A14140   5.933   0.335   7.305  0.0816 -0.1541  0.0478
 1027YOPC   C3A14141   6.157   0.458   7.556  0.0999  0.2061  0.0275
 1027YOPC   C4A14142   6.410   0.110   7.819 -0.0314 -0.1856 -0.1067
 1027YOPC   C1B14143   5.830  -0.366   7.066  0.1933 -0.3139  0.0603
 1027YOPC   C2B14144   5.684  -0.472   7.440 -0.0440 -0.0444  0.3159
 1027YOPC   D3B14145   5.722  -0.426   7.918 -0.6072 -0.1209 -0.1572
 1027YOPC   C4B14146   5.719  -0.429   8.332 -0.0912 -0.2441 -0.0367
 1028YOPC   NC314147   6.507   9.600   5.935 -0.0181  0.0849 -0.0843
 1028YOPC   PO414148   6.556   9.946   6.243 -0.0241  0.3180  0.1442
 1028YOPC   GL114149   6.371  10.050   6.563  0.1797 -0.2071  0.1253
 1028YOPC   GL214150   6.466   9.967   6.875 -0.0144  0.0997  0.2316
 1028YOPC   C1A14151   6.221  10.389   6.798 -0.1111 -0.0393 -0.0451
 1028YOPC   D2A14152   6.138  10.762   6.766 -0.2362  0.0992 -0.1172
 1028YOPC   C3A14153   5.914  11.027   6.956  0.0156 -0.0954  0.0212
 1028YOPC   C4A14154   5.943  11.170   7.356 -0.1303 -0.1276  0.1859
 1028YOPC   C1B14155   6.468  10.199   7.172  0.0634 -0.2789  0.2225
 1028YOPC   C2B14156   6.283  10.554   7.288 -0.4088  0.0345 -0.1337
 1028YOPC   D3B14157   6.433  10.728   7.645  0.1472 -0.1373  0.2507
 1028YOPC   C4B14158   6.480  10.936   8.114  0.1622 -0.0903 -0.0321
 1029YOPC   NC314159  13.488  16.713   5.698  0.0134 -0.0735 -0.1782
 1029YOPC   PO414160  13.851  16.835   5.826  0.1843  0.1092  0.0126
 1029YOPC   GL114161  14.001  16.670   6.243 -0.1870  0.0964 -0.2264
 1029YOPC   GL214162  14.297  16.799   6.415  0.1719  0.2902 -0.0574
 1029YOPC   C1A14163  13.968  16.547   6.658 -0.0027  0.2964 -0.0069
 1029YOPC   D2A14164  14.118  16.299   7.023  0.2189  0.3080 -0.2541
 1029YOPC   C3A14165  14.258  16.208   7.435 -0.0338 -0.0743  0.0139
 1029YOPC   C4A14166  14.295  16.208   7.850  0.1136 -0.0565 -0.0493
 1029YOPC   C1B14167  14.372  16.779   6.827 -0.2109 -0.1988  0.0967
 1029YOPC   C2B14168  14.385  16.778   7.280  0.3177  0.2037 -0.2297
 1029YOPC   D3B14169  14.073  16.671   7.517  0.0943 -0.1930 -0.0867
 1029YOPC   C4B14170  14.035  16.596   7.890  0.0236 -0.1849  0.0467
 1030YOPC   NC314171   3.557   1.112   6.537 -0.0856 -0.0145  0.0009
 1030YOPC   PO414172   3.139   1.141   6.717  0.1589 -0.2891 -0.1321
 1030YOPC   GL114173   3.288   1.490   7.046 -0.0621 -0.1408 -0.0072
 1030YOPC   GL214174   3.016   1.490   7.076 -0.0196  0.2489  0.1804
 1030YOPC   C1A14175   3.323   1.902   7.274  0.3129  0.0294 -0.1470
 1030YOPC   D2A14176   3.148   2.150   7.679 -0.0173 -0.1370 -0.0884
 1030YOPC   C3A14177   3.168   1.951   8.036 -0.0462  0.2059  0.5008
 1030YOPC   C4A14178   3.055   1.883   8.392 -0.2863  0.1112  0.0971
 1030YOPC   C1B14179   2.918   1.434   7.446 -0.0879 -0.0917 -0.0088
 1030YOPC   C2B14180   3.126   1.543   7.771 -0.0087  0.1436  0.0757
 1030YOPC   D3B14181   3.215   1.382   8.210 -0.1196 -0.1344 -0.0840
 1030YOPC   C4B14182   3.146   1.399   8.677  0.0249  0.1238 -0.0044
 1031YOPC   NC314183  10.904  16.185   5.797  0.1073 -0.0148 -0.0901
 1031YOPC   PO414184  11.262  16.334   5.829 -0.0483 -0.0741  0.0491
 1031YOPC   GL114185  11.110  16.242   6.226  0.0520 -0.2790 -0.1777
 1031YOPC   GL214186  11.062  16.536   6.386  0.0357 -0.0413  0.2749
 1031YOPC   C1A14187  10.975  15.923   6.602  0.0778 -0.0920  0.1927
 1031YOPC   D2A14188  10.834  15.675   7.004 -0.4534 -0.3414 -0.1628
 1031YOPC   C3A14189  10.818  15.757   7.342  0.0100 -0.2529 -0.2826
 1031YOPC   C4A14190  10.575  15.716   7.682  0.0281 -0.2320  0.1669
 1031YOPC   C1B14191  10.899  16.531   6.785  0.2132 -0.0543 -0.0603
 1031YOPC   C2B14192  10.735  16.745   7.177  0.2355  0.2085 -0.1400
 1031YOPC   D3B14193  10.949  16.589   7.534  0.0478 -0.2019  0.0547
 1031YOPC   C4B14194  11.287  16.698   7.821  0.0363 -0.2875  0.0645
 1032YOPC   NC314195   3.798   2.146   6.631  0.0288  0.1448 -0.4691
 1032YOPC   PO414196   3.414   2.448   6.749  0.1687 -0.2738  0.0546
 1032YOPC   GL114197   3.466   2.327   7.047  0.0780  0.0250 -0.1117
 1032YOPC   GL214198   3.193   2.421   7.215 -0.4289  0.1802  0.0559
 1032YOPC   C1A14199   3.576   2.253   7.475 -0.2405 -0.0061 -0.3320
 1032YOPC   D2A14200   3.643   2.267   7.946 -0.0296  0.1191  0.1939
 1032YOPC   C3A14201   3.631   1.704   8.225  0.0213  0.0851  0.3700
 1032YOPC   C4A14202   3.670   1.475   8.597 -0.2105  0.0690 -0.1406
 1032YOPC   C1B14203   2.830   2.428   7.453 -0.1618  0.0853  0.0391
 1032YOPC   C2B14204   2.709   2.313   7.799 -0.0231 -0.0121  0.2662
 1032YOPC   D3B14205   2.594   2.668   8.178 -0.1835 -0.0074  0.1484
 1032YOPC   C4B14206   2.489   2.739   8.615  0.3235  0.3821 -0.2007
 1033YOPC   NC314207   1.339   7.115   5.727 -0.0441 -0.0266  0.0685
 1033YOPC   PO414208   1.292   7.145   6.099 -0.1744 -0.0134 -0.1146
 1033YOPC   GL114209   1.278   7.328   6.496  0.3958 -0.0498  0.0155
 1033YOPC   GL214210   1.543   7.247   6.608 -0.0473 -0.0586 -0.0682
 1033YOPC   C1A14211   1.110   7.337   6.928 -0.0450  0.1457  0.1075
 1033YOPC   D2A14212   1.285   7.304   7.355 -0.0967 -0.0705 -0.2032
 1033YOPC   C3A14213   1.197   7.202   7.773 -0.1490  0.2111  0.0209
 1033YOPC   C4A14214   1.052   7.117   8.202  0.0346 -0.0581  0.2715
 1033YOPC   C1B14215   1.607   7.105   7.058 -0.2468  0.0285 -0.0874
 1033YOPC   C2B14216   1.715   7.080   7.470  0.1401  0.0180  0.0503
 1033YOPC   D3B14217   1.711   7.390   7.821 -0.2310  0.0870 -0.1605
 1033YOPC   C4B14218   1.677   7.746   8.151  0.2298 -0.0158 -0.2864
 1034YOPC   NC314219  12.016  17.328   5.817 -0.1690 -0.2101 -0.0113
 1034YOPC   PO414220  12.406  17.053   5.816  0.0695 -0.2683 -0.2723
 1034YOPC   GL114221  12.506  17.184   6.185  0.0505  0.2456 -0.2472
 1034YOPC   GL214222  12.150  17.201   6.303  0.3095  0.0988  0.1772
 1034YOPC   C1A14223  12.642  17.343   6.417 -0.1477 -0.1807 -0.1956
 1034YOPC   D2A14224  12.871  17.691   6.545 -0.0850 -0.0713  0.1275
 1034YOPC   C3A14225  13.278  17.812   6.782 -0.0258 -0.0408  0.1408
 1034YOPC   C4A14226  13.590  18.093   6.979 -0.0454 -0.2074 -0.1493
 1034YOPC   C1B14227  12.048  17.280   6.724 -0.2934 -0.1805  0.1369
 1034YOPC   C2B14228  12.380  17.368   6.984  0.3035  0.1796 -0.1906
 1034YOPC   D3B14229  12.648  17.090   7.256  0.2422  0.4811 -0.0007
 1034YOPC   C4B14230  12.922  17.317   7.566 -0.1457 -0.0019 -0.0623
 1035YOPC   NC314231   3.284  10.023   6.179  0.1291  0.0479  0.0199
 1035YOPC   PO414232   3.524  10.436   6.373  0.0776 -0.0220 -0.1171
 1035YOPC   GL114233   3.686  10.459   6.737 -0.1374  0.2695  0.1366
 1035YOPC   GL214234   4.015  10.388   6.846  0.1399 -0.0234  0.1453
 1035YOPC   C1A14235   3.573  10.224   7.145 -0.3930  0.0537  0.1542
 1035YOPC   D2A14236   3.470  10.219   7.562 -0.1537 -0.0223 -0.0254
 1035YOPC   C3A14237   3.513  10.611   7.760 -0.1531  0.0079 -0.0232
 1035YOPC   C4A14238   3.392  10.809   8.175 -0.2356  0.0472 -0.0184
 1035YOPC   C1B14239   4.308  10.341   7.276 -0.0586  0.0052  0.2017
 1035YOPC   C2B14240   4.485  10.178   7.783  0.1282  0.0874  0.1692
 1035YOPC   D3B14241   4.307  10.219   8.200  0.0347  0.0639 -0.1574
 1035YOPC   C4B14242   4.014  10.066   8.513  0.3418 -0.0139  0.1593
 1036YOPC   NC314243  17.009   1.564   6.312 -0.1840  0.2552  0.0380
 1036YOPC   PO414244  17.373   1.394   6.245  0.0503 -0.2908  0.0691
 1036YOPC   GL114245  17.349   1.346   6.734  0.0556 -0.1288 -0.0297
 1036YOPC   GL214246  17.668   1.429   6.797 -0.0759 -0.1081 -0.2416
 1036YOPC   C1A14247  17.320   1.042   7.081  0.2419 -0.0777 -0.3489
 1036YOPC   D2A14248  17.368   0.994   7.470 -0.2002  0.1887 -0.0123
 1036YOPC   C3A14249  17.377   0.676   7.779 -0.1587 -0.1117  0.0387
 1036YOPC   C4A14250  17.253   0.631   8.163  0.0853  0.0899 -0.0843
 1036YOPC   C1B14251  17.894   1.627   7.076 -0.1241  0.0046  0.1388
 1036YOPC   C2B14252  18.089   1.649   7.456  0.1364  0.0353  0.0901
 1036YOPC   D3B14253  17.983   1.633   7.802 -0.1091  0.0455 -0.0770
 1036YOPC   C4B14254  17.923   1.381   8.080 -0.2271  0.1848  0.3363
 1037YOPC   NC314255  15.270  10.213   5.986 -0.0252 -0.1971 -0.1339
 1037YOPC   PO414256  15.465   9.732   6.014 -0.0552 -0.2119 -0.1343
 1037YOPC   GL114257  15.437   9.869   6.463  0.3448  0.0306  0.3064
 1037YOPC   GL214258  15.762   9.903   6.616  0.2014  0.3998  0.0381
 1037YOPC   C1A14259  15.424  10.125   6.878  0.2264 -0.2092  0.1892
 1037YOPC   D2A14260  15.254  10.163   7.246  0.0455  0.1428 -0.1706
 1037YOPC   C3A14261  15.533  10.108   7.631  0.0318 -0.0848  0.0814
 1037YOPC   C4A14262  15.782  10.454   7.754 -0.0561  0.3584 -0.0788
 1037YOPC   C1B14263  16.055   9.739   6.911 -0.4391  0.1556 -0.0770
 1037YOPC   C2B14264  16.212   9.654   7.291  0.0743  0.0906  0.3646
 1037YOPC   D3B14265  16.022   9.870   7.574 -0.0529 -0.1601  0.1579
 1037YOPC   C4B14266  15.933   9.976   7.896 -0.1345 -0.0627 -0.5961
 1038YOPC   NC314267  15.399  12.876   6.084  0.1867 -0.1099  0.0090
 1038YOPC   PO414268  15.011  12.549   6.133 -0.1581  0.0809 -0.2012
 1038YOPC   GL114269  14.760  12.729   6.558  0.0703 -0.2614 -0.1923
 1038YOPC   GL214270  14.562  12.889   6.487  0.1372  0.0371 -0.2869
 1038YOPC   C1A14271  15.022  12.908   6.913 -0.0587 -0.0707 -0.0210
 1038YOPC   D2A14272  15.420  13.046   6.932 -0.3232  0.2688 -0.0570
 1038YOPC   C3A14273  15.522  13.224   7.320 -0.4562 -0.1245  0.0102
 1038YOPC   C4A14274  15.468  13.099   7.729  0.0717 -0.0342  0.0588
 1038YOPC   C1B14275  14.328  12.751   6.866  0.2543 -0.1919  0.3649
 1038YOPC   C2B14276  14.249  12.766   7.320 -0.3672  0.0497 -0.0351
 1038YOPC   D3B14277  13.901  12.766   7.463  0.1200 -0.1021  0.0889
 1038YOPC   C4B14278  13.517  12.496   7.481  0.1344  0.2043  0.1624
 1039YOPC   NC314279   5.559  11.545   6.078  0.2005 -0.0028 -0.0801
 1039YOPC   PO414280   5.655  11.933   6.136 -0.1731  0.0301 -0.1380
 1039YOPC   GL114281   5.755  12.085   6.544 -0.0935 -0.0897 -0.0678
 1039YOPC   GL214282   5.816  12.466   6.520  0.2022  0.0303  0.0051
 1039YOPC   C1A14283   5.634  11.987   6.977  0.0985  0.1115 -0.2550
 1039YOPC   D2A14284   5.389  11.944   7.354 -0.0134 -0.2006  0.2701
 1039YOPC   C3A14285   5.662  11.970   7.685  0.0961 -0.0223  0.1631
 1039YOPC   C4A14286   6.098  12.054   7.743  0.2900  0.0534 -0.1121
 1039YOPC   C1B14287   5.834  12.478   6.968 -0.2924 -0.1403  0.3742
 1039YOPC   C2B14288   5.941  12.289   7.283 -0.1772 -0.1105 -0.1930
 1039YOPC   D3B14289   6.307  12.498   7.439 -0.0184 -0.1312 -0.1125
 1039YOPC   C4B14290   6.542  12.298   7.735 -0.3948 -0.0999 -0.0429
 1040YOPC   NC314291   4.390  13.935   5.726 -0.2322 -0.1633  0.0214
 1040YOPC   PO414292   4.475  14.406   5.849 -0.0959  0.1696 -0.1417
 1040YOPC   GL114293   4.545  14.544   6.257  0.1221  0.0822 -0.0216
 1040YOPC   GL214294   4.859  14.508   6.405 -0.2123 -0.1583 -0.0431
 1040YOPC   C1A14295   4.665  14.817   6.690 -0.3303 -0.0953  0.0528
 1040YOPC   D2A14296   4.924  14.851   7.106  0.0028  0.0450 -0.1153
 1040YOPC   C3A14297   4.775  14.841   7.537  0.1365  0.0888 -0.0680
 1040YOPC   C4A14298   4.630  14.577   7.851 -0.0215 -0.2954  0.0246
 1040YOPC   C1B14299   4.855  14.268   6.852  0.0473  0.0844 -0.3255
 1040YOPC   C2B14300   4.859  14.007   7.259  0.1000  0.1404 -0.0524
 1040YOPC   D3B14301   4.952  14.318   7.491 -0.2690  0.1165 -0.1849
 1040YOPC   C4B14302   5.124  14.550   7.918  0.0875  0.0201  0.0690
 1041YOPC   NC314303   6.778  12.458   5.645  0.1570  0.0440  0.0805
 1041YOPC   PO414304   7.215  12.658   5.760 -0.0242 -0.1592  0.2828
 1041YOPC   GL114305   7.365  12.545   6.172 -0.0270 -0.0891 -0.0046
 1041YOPC   GL214306   7.630  12.593   6.410  0.0798  0.0819  0.2148
 1041YOPC   C1A14307   7.201  12.534   6.694 -0.0927 -0.0542  0.0384
 1041YOPC   D2A14308   6.969  12.220   6.787 -0.2871 -0.1250 -0.0541
 1041YOPC   C3A14309   6.927  12.154   7.187  0.2326  0.0755 -0.1168
 1041YOPC   C4A14310   6.920  12.083   7.519 -0.0265  0.0890  0.0168
 1041YOPC   C1B14311   7.665  12.449   6.744  0.0879 -0.1387  0.0410
 1041YOPC   C2B14312   7.685  12.432   7.109  0.0380 -0.3490  0.1723
 1041YOPC   D3B14313   7.290  12.500   7.340 -0.1247  0.2921  0.1820
 1041YOPC   C4B14314   7.053  12.581   7.730 -0.0514  0.2238  0.0038
 1042YOPC   NC314315   6.344   4.010   6.042  0.1762  0.1246  0.1025
 1042YOPC   PO414316   6.549   3.590   6.126  0.0763  0.1304  0.1211
 1042YOPC   GL114317   6.409   3.695   6.474  0.0391 -0.2303  0.0380
 1042YOPC   GL214318   6.671   3.973   6.512  0.1900 -0.2120 -0.1272
 1042YOPC   C1A14319   6.334   3.648   6.881  0.1225 -0.0042  0.0841
 1042YOPC   D2A14320   6.366   3.625   7.288  0.2634  0.0403  0.0733
 1042YOPC   C3A14321   6.604   3.692   7.565 -0.1631 -0.1747 -0.1799
 1042YOPC   C4A14322   6.527   4.044   7.816 -0.1954  0.0596 -0.1402
 1042YOPC   C1B14323   6.792   3.871   6.931 -0.1059 -0.2039 -0.1478
 1042YOPC   C2B14324   6.852   4.096   7.259  0.1506  0.0490  0.0418
 1042YOPC   D3B14325   6.986   4.076   7.628  0.2025  0.1768 -0.0287
 1042YOPC   C4B14326   7.011   4.214   7.954 -0.0032 -0.2497 -0.0490
 1043YOPC   NC314327   1.472   2.031   5.971 -0.0370 -0.2946  0.3646
 1043YOPC   PO414328   1.316   1.988   6.391  0.0917  0.0273  0.0572
 1043YOPC   GL114329   1.240   2.146   6.832 -0.0860 -0.1712 -0.1378
 1043YOPC   GL214330   1.305   2.466   6.919 -0.1104  0.0899  0.0931
 1043YOPC   C1A14331   1.421   2.007   7.204  0.1785 -0.0348  0.0001
 1043YOPC   D2A14332   1.361   1.930   7.606 -0.1969  0.0768 -0.4119
 1043YOPC   C3A14333   1.137   2.033   7.912  0.1990 -0.2225 -0.0217
 1043YOPC   C4A14334   0.961   1.933   8.310  0.1032 -0.0920  0.1415
 1043YOPC   C1B14335   1.280   2.511   7.362  0.0576 -0.4874  0.0670
 1043YOPC   C2B14336   1.377   2.673   7.718 -0.0727  0.1249 -0.0840
 1043YOPC   D3B14337   1.234   2.477   8.132  0.0562  0.4564  0.1022
 1043YOPC   C4B14338   1.163   2.389   8.413  0.1076 -0.1151 -0.0495
 1044YOPC   NC314339   4.091  15.933   5.994  0.1799 -0.0939 -0.0180
 1044YOPC   PO414340   4.473  16.113   6.167  0.0850 -0.1209 -0.0001
 1044YOPC   GL114341   4.401  15.878   6.448 -0.2396  0.1090 -0.1263
 1044YOPC   GL214342   4.716  15.990   6.585 -0.2383 -0.1431  0.1912
 1044YOPC   C1A14343   4.174  15.684   6.813 -0.3199 -0.1564  0.3742
 1044YOPC   D2A14344   4.067  15.402   7.084  0.0773 -0.2079 -0.0179
 1044YOPC   C3A14345   4.115  15.403   7.563  0.0543 -0.1054 -0.4060
 1044YOPC   C4A14346   4.356  15.050   7.702  0.1057 -0.1700 -0.2492
 1044YOPC   C1B14347   4.714  15.827   6.873  0.1643 -0.2134  0.1004
 1044YOPC   C2B14348   4.766  15.867   7.315  0.1494  0.0772  0.1136
 1044YOPC   D3B14349   4.752  16.227   7.512 -0.0301  0.4335  0.2324
 1044YOPC   C4B14350   4.541  16.402   7.784  0.0810  0.1359  0.0290
 1045YOPC   NC314351   1.126   4.264   6.401 -0.0620  0.1159  0.1952
 1045YOPC   PO414352   0.916   4.712   6.615  0.2606 -0.1751 -0.2646
 1045YOPC   GL114353   1.280   4.980   6.793 -0.4498 -0.1378  0.0085
 1045YOPC   GL214354   1.651   4.864   6.770  0.2189  0.0406 -0.1030
 1045YOPC   C1A14355   1.396   5.327   6.997 -0.0903  0.1645 -0.1012
 1045YOPC   D2A14356   1.497   5.512   7.324  0.0813  0.2443  0.0882
 1045YOPC   C3A14357   1.291   5.280   7.593 -0.0681  0.1424 -0.1244
 1045YOPC   C4A14358   1.210   5.397   8.003 -0.2636 -0.0409  0.1240
 1045YOPC   C1B14359   1.545   4.889   7.208 -0.0835  0.2611 -0.1309
 1045YOPC   C2B14360   1.559   4.742   7.601 -0.0500 -0.0430  0.3123
 1045YOPC   D3B14361   1.566   5.077   7.948  0.0288  0.1411 -0.3540
 1045YOPC   C4B14362   1.513   5.167   8.334  0.2849 -0.1527  0.4824
 1046YOPC   NC314363   6.352  10.404   6.168  0.0776  0.2773 -0.0802
 1046YOPC   PO414364   6.504  10.828   6.114 -0.0791  0.1307  0.1666
 1046YOPC   GL114365   6.388  11.160   6.351  0.1637  0.1869  0.1264
 1046YOPC   GL214366   6.713  11.329   6.359 -0.1929  0.2094 -0.2604
 1046YOPC   C1A14367   6.360  11.211   6.781  0.0711  0.1179 -0.0571
 1046YOPC   D2A14368   6.398  11.029   7.250  0.0454  0.0864  0.2084
 1046YOPC   C3A14369   6.517  11.231   7.673  0.0649 -0.1332 -0.0526
 1046YOPC   C4A14370   6.066  11.083   7.838  0.2541  0.0043  0.1376
 1046YOPC   C1B14371   6.915  11.236   6.732 -0.0305 -0.0593  0.1945
 1046YOPC   C2B14372   7.224  11.436   6.844 -0.0109 -0.0938  0.0398
 1046YOPC   D3B14373   7.461  11.363   7.204 -0.1571  0.1325  0.0565
 1046YOPC   C4B14374   7.611  11.545   7.588  0.3464  0.0744 -0.1526
 1047YOPC   NC314375  11.122  12.690   5.678 -0.1076  0.0163  0.0492
 1047YOPC   PO414376  10.935  12.399   5.660 -0.2412  0.1760  0.4133
 1047YOPC   GL114377  10.636  12.481   5.960 -0.1335 -0.3648 -0.0690
 1047YOPC   GL214378  10.500  12.710   5.812 -0.1146  0.2586  0.0074
 1047YOPC   C1A14379  10.589  12.219   6.355  0.1020 -0.2917 -0.0670
 1047YOPC   D2A14380  10.529  11.788   6.484 -0.3287 -0.2687  0.0521
 1047YOPC   C3A14381  10.344  11.726   6.839  0.1715 -0.1794  0.2432
 1047YOPC   C4A14382  10.567  11.753   7.174  0.0026 -0.2976 -0.2105
 1047YOPC   C1B14383  10.379  12.856   6.271  0.1526  0.0354 -0.0130
 1047YOPC   C2B14384  10.220  12.900   6.724  0.1254 -0.0690  0.0733
 1047YOPC   D3B14385  10.300  12.776   7.171 -0.0409 -0.0269 -0.0740
 1047YOPC   C4B14386  10.292  12.760   7.591  0.0366 -0.0266 -0.1528
 1048YOPC   NC314387   5.191  14.844   6.119  0.1647 -0.1186 -0.1052
 1048YOPC   PO414388   5.114  15.254   6.296 -0.1255 -0.0220  0.1050
 1048YOPC   GL114389   5.067  15.159   6.671  0.1503  0.0058  0.2815
 1048YOPC   GL214390   5.377  14.958   6.644  0.0335 -0.1159  0.0944
 1048YOPC   C1A14391   5.284  15.147   7.141 -0.1729 -0.0902 -0.1299
 1048YOPC   D2A14392   5.282  15.013   7.504  0.0660  0.2843 -0.1316
 1048YOPC   C3A14393   5.151  15.058   7.882 -0.1732  0.0676 -0.1391
 1048YOPC   C4A14394   4.796  15.013   8.097  0.3901  0.3794  0.1502
 1048YOPC   C1B14395   5.363  14.682   6.981  0.0130  0.2216  0.3383
 1048YOPC   C2B14396   5.316  14.562   7.287  0.2390  0.2200  0.4117
 1048YOPC   D3B14397   5.542  14.453   7.578 -0.2484 -0.2759 -0.1565
 1048YOPC   C4B14398   5.622  14.587   8.024 -0.0913 -0.0344  0.0969
 1049YOPC   NC314399   2.568  12.794   6.310  0.1912 -0.3145  0.0749
 1049YOPC   PO414400   2.176  12.894   6.293  0.1887  0.0811 -0.3648
 1049YOPC   GL114401   2.241  12.843   6.703  0.3018 -0.2198  0.1190
 1049YOPC   GL214402   2.300  12.525   6.753  0.0616 -0.0110  0.1621
 1049YOPC   C1A14403   2.075  12.708   7.152 -0.2541  0.0148 -0.0042
 1049YOPC   D2A14404   2.217  12.417   7.409 -0.0045 -0.1715 -0.1821
 1049YOPC   C3A14405   2.170  12.235   7.891  0.1842  0.1407 -0.2587
 1049YOPC   C4A14406   1.851  12.146   8.226  0.3118 -0.0027  0.2954
 1049YOPC   C1B14407   2.531  12.302   6.989  0.0671  0.0104  0.1867
 1049YOPC   C2B14408   2.483  11.999   7.270  0.1462 -0.3968  0.0685
 1049YOPC   D3B14409   2.522  12.017   7.693 -0.0334  0.1497  0.0159
 1049YOPC   C4B14410   2.651  11.928   8.060  0.0268 -0.0175 -0.1845
 1050YOPC   NC314411  11.833  11.999   5.203  0.0080  0.2211  0.0158
 1050YOPC   PO414412  11.749  11.747   5.633 -0.0478 -0.2927  0.0641
 1050YOPC   GL114413  11.554  11.838   6.043  0.1899 -0.1139  0.1631
 1050YOPC   GL214414  11.270  12.086   6.078 -0.3470  0.3153 -0.0501
 1050YOPC   C1A14415  11.539  11.854   6.484 -0.0826  0.1246 -0.2500
 1050YOPC   D2A14416  11.372  11.890   6.873  0.0222  0.0480  0.1621
 1050YOPC   C3A14417  11.525  11.896   7.279  0.0279  0.1323 -0.0774
 1050YOPC   C4A14418  11.585  11.849   7.655 -0.1606 -0.0608  0.0367
 1050YOPC   C1B14419  11.052  12.031   6.449  0.0027 -0.1739 -0.2463
 1050YOPC   C2B14420  10.747  12.071   6.829  0.0620 -0.1575 -0.1350
 1050YOPC   D3B14421  10.931  12.088   7.244 -0.0543  0.1268  0.2725
 1050YOPC   C4B14422  11.048  12.161   7.596  0.0394  0.1015  0.2309
 1051YOPC   NC314423  15.994  10.757   5.903 -0.0561 -0.0616  0.0480
 1051YOPC   PO414424  15.483  10.772   5.990 -0.1318 -0.2510  0.2433
 1051YOPC   GL114425  15.322  10.887   6.356 -0.2686 -0.1425  0.2699
 1051YOPC   GL214426  14.997  10.666   6.372 -0.0588 -0.1644 -0.1189
 1051YOPC   C1A14427  15.648  10.870   6.684 -0.2187 -0.1977 -0.0502
 1051YOPC   D2A14428  15.828  10.892   7.069  0.2356 -0.0118 -0.0062
 1051YOPC   C3A14429  15.856  10.485   7.263 -0.1147  0.0014  0.1132
 1051YOPC   C4A14430  15.824  10.086   7.166 -0.1058  0.2141 -0.1045
 1051YOPC   C1B14431  15.026  10.173   6.564 -0.2828 -0.2519  0.3805
 1051YOPC   C2B14432  14.963   9.802   6.835  0.1753 -0.0936 -0.0952
 1051YOPC   D3B14433  14.907   9.798   7.297 -0.2338  0.1599 -0.1419
 1051YOPC   C4B14434  14.680   9.731   7.692  0.2939 -0.3061  0.1425
 1052YOPC   NC314435   9.256  13.504   5.598  0.2682  0.1238  0.1534
 1052YOPC   PO414436   9.300  13.933   5.403  0.0379  0.0435  0.0450
 1052YOPC   GL114437   9.454  14.083   5.825 -0.0091  0.0348 -0.4707
 1052YOPC   GL214438   9.377  13.718   6.061 -0.1245  0.2368  0.3199
 1052YOPC   C1A14439   9.535  14.457   6.050  0.0406  0.1316 -0.2735
 1052YOPC   D2A14440   9.603  14.763   6.407 -0.1329  0.0352 -0.0741
 1052YOPC   C3A14441   9.207  14.937   6.312  0.2311 -0.0574  0.0920
 1052YOPC   C4A14442   8.890  15.136   6.622 -0.3708  0.1163  0.1035
 1052YOPC   C1B14443   9.618  14.044   6.298 -0.3112  0.1403 -0.1841
 1052YOPC   C2B14444   9.665  14.288   6.657 -0.0609 -0.2140  0.0471
 1052YOPC   D3B14445   9.357  14.249   7.057 -0.1559 -0.0434 -0.0042
 1052YOPC   C4B14446   9.319  14.289   7.529  0.0231 -0.0362  0.1996
 1053YOPC   NC314447   7.657  16.656   5.778 -0.0115 -0.0106 -0.0126
 1053YOPC   PO414448   7.635  16.305   5.584 -0.0187  0.1017  0.3332
 1053YOPC   GL114449   7.673  16.175   6.033  0.0943  0.0537 -0.5136
 1053YOPC   GL214450   7.453  15.929   6.179 -0.1662  0.1544 -0.0446
 1053YOPC   C1A14451   7.984  16.282   6.312  0.0049  0.0566 -0.2744
 1053YOPC   D2A14452   8.217  16.368   6.808  0.0875  0.4087  0.0185
 1053YOPC   C3A14453   8.067  16.498   7.201  0.1429 -0.0830 -0.1071
 1053YOPC   C4A14454   7.970  16.304   7.549  0.2110 -0.1400  0.0438
 1053YOPC   C1B14455   7.883  15.785   6.147  0.2138  0.1150 -0.2142
 1053YOPC   C2B14456   8.142  15.489   6.351 -0.3095  0.0190  0.3158
 1053YOPC   D3B14457   8.621  15.508   6.316 -0.0362  0.0986 -0.0045
 1053YOPC   C4B14458   9.084  15.423   6.251  0.3785  0.0323  0.1567
 1054YOPC   NC314459  12.842  10.514   5.837 -0.0046 -0.0254 -0.1948
 1054YOPC   PO414460  12.498  10.476   5.986 -0.2638  0.1330 -0.0971
 1054YOPC   GL114461  12.530  10.630   6.407  0.0376  0.1703 -0.0142
 1054YOPC   GL214462  12.497  10.909   6.504 -0.2946 -0.1427  0.2395
 1054YOPC   C1A14463  12.491  10.393   6.851 -0.1456  0.0723 -0.0032
 1054YOPC   D2A14464  12.438  10.235   7.228  0.1572  0.0392 -0.4683
 1054YOPC   C3A14465  12.430  10.407   7.677  0.1160  0.1234  0.0115
 1054YOPC   C4A14466  12.306  10.307   8.150 -0.0573  0.0077 -0.2100
 1054YOPC   C1B14467  12.160  10.865   6.828 -0.2019  0.0806  0.0047
 1054YOPC   C2B14468  12.198  10.664   7.239 -0.0885  0.0068 -0.1483
 1054YOPC   D3B14469  12.123  10.830   7.720  0.0566  0.1966 -0.0983
 1054YOPC   C4B14470  12.064  10.719   8.203 -0.0229 -0.1073  0.0507
 1055YOPC   NC314471  16.686  14.258   5.777 -0.0243  0.2731  0.0589
 1055YOPC   PO414472  16.804  13.856   5.976  0.1770 -0.1073  0.0627
 1055YOPC   GL114473  16.991  13.892   6.361  0.0803 -0.3354  0.3015
 1055YOPC   GL214474  16.745  13.753   6.512  0.1516 -0.4005  0.3441
 1055YOPC   C1A14475  17.215  14.067   6.694  0.2169  0.0799 -0.1626
 1055YOPC   D2A14476  17.549  14.100   6.981  0.1524 -0.1269  0.0497
 1055YOPC   C3A14477  17.642  13.802   7.387 -0.0650  0.2340  0.0771
 1055YOPC   C4A14478  18.033  13.530   7.528  0.0878  0.2765  0.2441
 1055YOPC   C1B14479  16.942  13.642   6.840 -0.0966  0.0823 -0.0051
 1055YOPC   C2B14480  17.179  13.806   7.168  0.2454 -0.0276  0.0311
 1055YOPC   D3B14481  17.109  13.607   7.566 -0.2192  0.0259  0.0309
 1055YOPC   C4B14482  17.141  13.316   7.957  0.2641  0.2852  0.1791
 1056YOPC   NC314483  14.081   8.616   6.244  0.0685 -0.2375  0.3091
 1056YOPC   PO414484  13.982   9.173   6.074 -0.0625  0.4090 -0.1155
 1056YOPC   GL114485  13.819   9.169   6.510 -0.0512  0.0510 -0.4359
 1056YOPC   GL214486  13.462   9.285   6.646 -0.2320  0.1486  0.0252
 1056YOPC   C1A14487  13.881   9.383   6.895  0.0209  0.1154  0.0168
 1056YOPC   D2A14488  14.219   9.484   7.223 -0.1843 -0.1064 -0.3046
 1056YOPC   C3A14489  14.114   9.440   7.621 -0.2109  0.0749  0.0615
 1056YOPC   C4A14490  13.835   9.514   7.910  0.1542 -0.2645 -0.2621
 1056YOPC   C1B14491  13.442   9.636   6.973  0.2297 -0.0443  0.1701
 1056YOPC   C2B14492  13.448  10.117   7.157 -0.0033 -0.0255 -0.0738
 1056YOPC   D3B14493  13.314  10.417   7.459 -0.1794 -0.0518 -0.1970
 1056YOPC   C4B14494  13.402  10.515   7.884  0.1469  0.0965  0.0051
 1057YOPC   NC314495  13.603   0.699   5.744  0.3868  0.2722 -0.4261
 1057YOPC   PO414496  13.364   0.969   5.835  0.0277  0.1272 -0.1816
 1057YOPC   GL114497  13.440   0.925   6.266  0.0496  0.0076  0.0492
 1057YOPC   GL214498  13.255   1.087   6.550 -0.0018 -0.0080 -0.0512
 1057YOPC   C1A14499  13.565   0.574   6.564  0.0437  0.0278 -0.1523
 1057YOPC   D2A14500  14.010   0.574   6.705  0.1523  0.2209  0.1702
 1057YOPC   C3A14501  14.069   0.338   7.029 -0.0341 -0.0929  0.1441
 1057YOPC   C4A14502  13.992   0.233   7.412 -0.1451 -0.0400 -0.1113
 1057YOPC   C1B14503  13.290   0.875   6.903  0.2438  0.0281 -0.0125
 1057YOPC   C2B14504  13.290   0.774   7.389 -0.0925 -0.0219  0.2977
 1057YOPC   D3B14505  13.463   0.351   7.438  0.0882  0.1694 -0.0792
 1057YOPC   C4B14506  13.556   0.195   7.901 -0.0005  0.2840  0.1117
 1058YOPC   NC314507   7.948   4.674   6.158  0.3988 -0.2053 -0.1935
 1058YOPC   PO414508   7.706   4.303   6.101  0.1327 -0.0528  0.1097
 1058YOPC   GL114509   8.003   4.268   6.502  0.2311  0.0268  0.2811
 1058YOPC   GL214510   8.190   4.489   6.543 -0.1222  0.0709  0.0345
 1058YOPC   C1A14511   7.837   4.460   6.902 -0.2267  0.0567 -0.1567
 1058YOPC   D2A14512   8.037   4.357   7.353  0.0132  0.1487  0.0275
 1058YOPC   C3A14513   8.012   4.543   7.680 -0.0744  0.1317 -0.0142
 1058YOPC   C4A14514   8.021   4.673   8.131 -0.2874 -0.0595  0.0628
 1058YOPC   C1B14515   8.420   4.588   6.841  0.0124  0.2451  0.1083
 1058YOPC   C2B14516   8.383   4.715   7.258  0.0124 -0.1751  0.0731
 1058YOPC   D3B14517   8.785   4.790   7.541  0.0054 -0.0029  0.1101
 1058YOPC   C4B14518   8.772   4.624   7.931 -0.0035  0.0063  0.1399
 1059YOPC   NC314519  11.884  11.172   5.565 -0.1673 -0.1455 -0.5619
 1059YOPC   PO414520  12.109  10.965   5.951 -0.0886  0.2201  0.0998
 1059YOPC   GL114521  11.972  10.791   6.261 -0.1696  0.2152  0.3845
 1059YOPC   GL214522  11.925  10.525   6.210  0.2526  0.0389 -0.0453
 1059YOPC   C1A14523  11.679  10.886   6.648  0.0189  0.1649 -0.0612
 1059YOPC   D2A14524  11.315  11.065   6.937  0.0493  0.1069 -0.3966
 1059YOPC   C3A14525  11.484  11.330   7.332  0.2162  0.4593  0.0582
 1059YOPC   C4A14526  11.447  11.384   7.752 -0.0038  0.0207 -0.0057
 1059YOPC   C1B14527  12.040  10.369   6.698 -0.0278 -0.1631 -0.2046
 1059YOPC   C2B14528  11.973  10.175   6.964 -0.1212  0.1480  0.2154
 1059YOPC   D3B14529  12.011  10.201   7.449  0.1587  0.1820 -0.3868
 1059YOPC   C4B14530  11.879  10.415   7.841 -0.0662 -0.1740  0.0032
 1060YOPC   NC314531   4.311   3.631   6.237  0.0093  0.1223  0.1813
 1060YOPC   PO414532   4.360   3.183   6.473 -0.1207 -0.1499  0.3450
 1060YOPC   GL114533   4.779   3.040   6.705 -0.0217  0.1203  0.0149
 1060YOPC   GL214534   4.874   2.767   6.904 -0.2109 -0.1236 -0.0809
 1060YOPC   C1A14535   4.832   3.323   7.032  0.1139  0.0466 -0.1100
 1060YOPC   D2A14536   4.977   3.528   7.425  0.2905  0.1423  0.0097
 1060YOPC   C3A14537   4.706   3.706   7.774 -0.0101  0.0997  0.0545
 1060YOPC   C4A14538   4.456   3.564   8.151 -0.1074  0.0119  0.2365
 1060YOPC   C1B14539   5.162   2.877   7.156  0.0503  0.0689 -0.1999
 1060YOPC   C2B14540   5.203   3.112   7.601  0.0605  0.0898 -0.1582
 1060YOPC   D3B14541   5.204   2.852   8.019  0.0910  0.1397 -0.0956
 1060YOPC   C4B14542   4.953   2.873   8.442 -0.0568  0.1186  0.0422
 1061YOPC   NC314543  16.153   4.976   6.712 -0.1214 -0.2916 -0.2552
 1061YOPC   PO414544  16.012   4.628   6.624 -0.1973 -0.1061  0.2789
 1061YOPC   GL114545  16.075   4.619   7.113  0.0157 -0.1331  0.2021
 1061YOPC   GL214546  16.309   4.805   7.158  0.2397  0.3728  0.1725
 1061YOPC   C1A14547  15.938   4.558   7.510 -0.2919  0.2605 -0.0626
 1061YOPC   D2A14548  15.892   4.455   7.939 -0.2053  0.2162 -0.0174
 1061YOPC   C3A14549  15.848   4.704   8.291  0.0725  0.0473  0.0413
 1061YOPC   C4A14550  15.504   5.004   8.488 -0.0775  0.2298 -0.2633
 1061YOPC   C1B14551  16.601   4.868   7.429  0.0124  0.1012 -0.0417
 1061YOPC   C2B14552  16.860   4.716   7.348  0.0394 -0.1670 -0.2523
 1061YOPC   D3B14553  17.248   4.830   7.316 -0.0408  0.0531  0.0794
 1061YOPC   C4B14554  17.641   4.989   7.146 -0.0908 -0.0397  0.1296
 1062YOPC   NC314555   3.630  17.016   6.331 -0.0534  0.2332 -0.1010
 1062YOPC   PO414556   3.780  16.729   6.527 -0.0946  0.3060  0.4823
 1062YOPC   GL114557   3.511  16.697   6.767 -0.0559  0.0604  0.2425
 1062YOPC   GL214558   3.150  16.693   6.629  0.3348  0.0246  0.0249
 1062YOPC   C1A14559   3.389  16.838   7.159  0.0631  0.4036 -0.3111
 1062YOPC   D2A14560   3.215  16.792   7.541  0.0285 -0.1544 -0.1397
 1062YOPC   C3A14561   3.245  16.553   7.873  0.2647 -0.0413  0.0032
 1062YOPC   C4A14562   3.426  16.448   8.236  0.3183 -0.0512  0.0822
 1062YOPC   C1B14563   2.941  16.561   6.886 -0.2449  0.2220 -0.1039
 1062YOPC   C2B14564   2.844  16.400   7.313 -0.2847 -0.0854 -0.1052
 1062YOPC   D3B14565   2.509  16.147   7.439  0.3930 -0.2066  0.0425
 1062YOPC   C4B14566   2.438  15.737   7.510 -0.3133  0.2580  0.3522
 1063YOPC   NC314567   5.035   0.394   6.090  0.0319  0.0026 -0.0641
 1063YOPC   PO414568   4.957   0.769   6.349 -0.1097 -0.1543  0.1295
 1063YOPC   GL114569   4.969   0.822   6.842  0.0797  0.0978 -0.1321
 1063YOPC   GL214570   5.232   0.563   6.985 -0.2456  0.3222 -0.1387
 1063YOPC   C1A14571   4.854   1.030   7.159  0.0865 -0.0038 -0.2655
 1063YOPC   D2A14572   4.837   1.173   7.527  0.0204 -0.0462 -0.1195
 1063YOPC   C3A14573   4.914   1.192   7.969  0.2693  0.1989  0.1250
 1063YOPC   C4A14574   5.220   1.419   8.232  0.3486 -0.0248 -0.1967
 1063YOPC   C1B14575   5.469   0.480   7.366  0.0791 -0.2305  0.1827
 1063YOPC   C2B14576   5.433   0.499   7.856 -0.1392  0.1663 -0.1468
 1063YOPC   D3B14577   5.605   0.213   8.082  0.1284 -0.0095 -0.0808
 1063YOPC   C4B14578   5.611   0.161   8.496  0.1933 -0.1407  0.0414
 1064YOPC   NC314579  13.692  17.512   5.391  0.1413  0.2648  0.1392
 1064YOPC   PO414580  13.328  17.261   5.607 -0.0540  0.1861  0.1358
 1064YOPC   GL114581  13.323  17.200   6.047  0.2155 -0.1183 -0.2091
 1064YOPC   GL214582  13.489  16.930   6.164  0.0284  0.0059 -0.0417
 1064YOPC   C1A14583  13.146  17.178   6.411 -0.2528  0.0319 -0.3215
 1064YOPC   D2A14584  12.868  17.137   6.792  0.0648  0.1912 -0.0232
 1064YOPC   C3A14585  12.949  17.432   7.030  0.2179  0.3852 -0.1890
 1064YOPC   C4A14586  13.133  17.690   7.295  0.1603 -0.0656  0.1722
 1064YOPC   C1B14587  13.597  16.903   6.564  0.1283  0.0759  0.3207
 1064YOPC   C2B14588  13.409  17.170   6.866 -0.0049  0.2442 -0.2733
 1064YOPC   D3B14589  13.362  17.281   7.370 -0.0622  0.0986  0.0108
 1064YOPC   C4B14590  13.414  17.390   7.745  0.3988 -0.3044 -0.0881
 1065YOPC   NC314591  10.001  16.404   5.684  0.1276  0.2491  0.3394
 1065YOPC   PO414592  10.406  16.113   5.670  0.1096 -0.1581 -0.0207
 1065YOPC   GL114593  10.481  16.356   6.009  0.4996  0.0297  0.1335
 1065YOPC   GL214594  10.301  16.622   6.079 -0.0932  0.4437  0.3909
 1065YOPC   C1A14595  10.536  16.262   6.452 -0.0073  0.0907 -0.2228
 1065YOPC   D2A14596  10.560  16.232   6.940 -0.0840  0.1516 -0.0426
 1065YOPC   C3A14597  10.691  16.230   7.250  0.3034  0.0438 -0.1745
 1065YOPC   C4A14598  10.571  16.218   7.761 -0.0425  0.0075  0.3335
 1065YOPC   C1B14599  10.185  16.646   6.517  0.0128  0.1090 -0.0525
 1065YOPC   C2B14600  10.262  16.737   7.022 -0.0320  0.1947  0.0904
 1065YOPC   D3B14601  10.324  17.061   7.247  0.0512 -0.1251  0.0241
 1065YOPC   C4B14602  10.684  17.239   7.267 -0.0870  0.1115  0.0909
 1066YOPC   NC314603  15.547   1.615   6.315 -0.0264 -0.0527 -0.4304
 1066YOPC   PO414604  15.401   2.034   6.380  0.0860  0.2303  0.2067
 1066YOPC   GL114605  15.451   1.862   6.714  0.2293 -0.1589  0.0226
 1066YOPC   GL214606  15.759   1.898   6.802  0.0849  0.2021 -0.0292
 1066YOPC   C1A14607  15.342   1.971   7.120 -0.3262 -0.0718  0.2170
 1066YOPC   D2A14608  15.170   2.054   7.556  0.1340  0.0747  0.2196
 1066YOPC   C3A14609  15.146   1.864   7.911  0.1825 -0.0134 -0.0561
 1066YOPC   C4A14610  15.134   1.593   8.258 -0.2233 -0.0008  0.0183
 1066YOPC   C1B14611  15.788   1.637   7.095  0.1221 -0.2390  0.0865
 1066YOPC   C2B14612  15.967   1.663   7.519 -0.1167 -0.3702 -0.0771
 1066YOPC   D3B14613  16.070   1.607   7.960  0.0187  0.0219  0.1948
 1066YOPC   C4B14614  16.238   1.857   8.259 -0.0152  0.0003  0.0217
 1067YOPC   NC314615   4.442   6.190   6.543  0.2042 -0.0208  0.0607
 1067YOPC   PO414616   4.870   5.965   6.604  0.0452 -0.0329  0.1611
 1067YOPC   GL114617   4.757   6.087   7.006 -0.0442  0.0612 -0.1560
 1067YOPC   GL214618   5.068   6.175   7.019  0.1082 -0.1290 -0.2743
 1067YOPC   C1A14619   4.583   6.022   7.376  0.0963  0.3061 -0.2691
 1067YOPC   D2A14620   4.387   5.832   7.710  0.1068  0.0895  0.1972
 1067YOPC   C3A14621   4.574   5.741   8.079  0.0088 -0.0733 -0.3019
 1067YOPC   C4A14622   4.748   5.847   8.390  0.3343  0.1265 -0.1203
 1067YOPC   C1B14623   5.111   6.107   7.422  0.2779  0.3080  0.2733
 1067YOPC   C2B14624   5.366   5.927   7.718  0.2199 -0.0578 -0.3019
 1067YOPC   D3B14625   5.294   5.702   7.986  0.0412  0.1388  0.1888
 1067YOPC   C4B14626   5.182   5.318   7.930  0.1527  0.0434  0.3819
 1068YOPC   NC314627  17.600   8.920   5.961  0.2139  0.3168 -0.0464
 1068YOPC   PO414628  17.223   8.625   6.044  0.0614  0.0555  0.1260
 1068YOPC   GL114629  17.132   8.884   6.396 -0.0869 -0.1900 -0.4177
 1068YOPC   GL214630  17.424   9.043   6.405 -0.3078 -0.1414  0.2556
 1068YOPC   C1A14631  16.887   8.834   6.741  0.1209  0.0678  0.1475
 1068YOPC   D2A14632  16.851   8.517   6.940 -0.2499 -0.1029  0.0801
 1068YOPC   C3A14633  16.696   8.673   7.232 -0.1111 -0.4187 -0.1317
 1068YOPC   C4A14634  16.642   8.738   7.674  0.1298 -0.2515  0.0976
 1068YOPC   C1B14635  17.327   9.159   6.752 -0.1346  0.1137 -0.0571
 1068YOPC   C2B14636  17.209   9.107   7.046  0.0994 -0.1357  0.1366
 1068YOPC   D3B14637  17.564   9.215   7.378  0.1260  0.0226  0.2222
 1068YOPC   C4B14638  17.662   9.201   7.838  0.0411 -0.2106  0.0200
 1069YOPC   NC314639  10.037   3.193   5.648  0.2950  0.1328 -0.2726
 1069YOPC   PO414640  10.313   2.978   5.871  0.0045  0.1078  0.1146
 1069YOPC   GL114641  10.290   2.796   6.304  0.1057  0.2164  0.1953
 1069YOPC   GL214642  10.628   2.674   6.387 -0.0559 -0.0788 -0.3980
 1069YOPC   C1A14643  10.288   2.661   6.717 -0.0365 -0.3990  0.1766
 1069YOPC   D2A14644  10.305   2.271   6.959 -0.2450 -0.0263 -0.0117
 1069YOPC   C3A14645  10.062   1.861   6.905 -0.1168  0.1434 -0.0480
 1069YOPC   C4A14646  10.018   1.574   6.585  0.1548  0.1019 -0.1678
 1069YOPC   C1B14647  10.854   2.770   6.765 -0.1087 -0.3374  0.1688
 1069YOPC   C2B14648  10.601   2.620   7.180  0.0354  0.0582 -0.0283
 1069YOPC   D3B14649  10.603   2.190   7.382  0.3665 -0.0892 -0.0635
 1069YOPC   C4B14650  10.626   1.974   7.844  0.0578  0.0332  0.1947
 1070YOPC   NC314651   0.425   3.273   6.230 -0.0876  0.2976 -0.3343
 1070YOPC   PO414652   0.424   3.719   6.257 -0.0605  0.1235 -0.0142
 1070YOPC   GL114653   0.436   3.748   6.723  0.0986  0.1555 -0.0655
 1070YOPC   GL214654   0.230   4.084   6.990 -0.3740 -0.4309 -0.1247
 1070YOPC   C1A14655   0.762   3.788   7.114 -0.2568  0.2529 -0.1232
 1070YOPC   D2A14656   0.747   3.843   7.550  0.0682 -0.1380 -0.1880
 1070YOPC   C3A14657   1.042   3.505   7.806  0.2705 -0.2705  0.1630
 1070YOPC   C4A14658   1.151   3.476   8.175  0.0596 -0.1678  0.0031
 1070YOPC   C1B14659   0.319   4.071   7.419 -0.0603  0.1121  0.2950
 1070YOPC   C2B14660   0.392   4.129   7.883 -0.0856  0.2007 -0.0087
 1070YOPC   D3B14661   0.697   4.443   8.060  0.1092  0.3581 -0.2899
 1070YOPC   C4B14662   0.701   4.805   8.327 -0.1702  0.1704  0.0666
 1071YOPC   NC314663  16.944   8.194   6.113 -0.3141  0.2343  0.0466
 1071YOPC   PO414664  17.280   8.023   6.060  0.1754 -0.0811  0.3267
 1071YOPC   GL114665  17.361   7.926   6.450 -0.2613  0.0570  0.2087
 1071YOPC   GL214666  17.596   8.096   6.524 -0.0592  0.3342 -0.0232
 1071YOPC   C1A14667  17.264   7.631   6.724 -0.1575  0.1357 -0.0080
 1071YOPC   D2A14668  17.376   7.301   6.838 -0.0379 -0.0083 -0.2011
 1071YOPC   C3A14669  17.166   7.184   7.212 -0.0098  0.1399  0.1929
 1071YOPC   C4A14670  17.148   7.343   7.633 -0.0512 -0.1091 -0.0660
 1071YOPC   C1B14671  17.246   8.073   6.917  0.0946 -0.1180  0.2646
 1071YOPC   C2B14672  17.301   8.209   7.302  0.0315 -0.1657  0.0598
 1071YOPC   D3B14673  16.984   8.355   7.539  0.1891  0.0498 -0.1595
 1071YOPC   C4B14674  16.661   8.275   7.768  0.0006  0.1189  0.0512
 1072YOPC   NC314675   9.350   2.210   5.876  0.0285  0.1607  0.2037
 1072YOPC   PO414676   9.702   2.483   6.021  0.0501  0.1484 -0.1107
 1072YOPC   GL114677   9.854   2.582   6.440  0.2500  0.2480 -0.1304
 1072YOPC   GL214678   9.853   2.894   6.651 -0.3933 -0.0477  0.1789
 1072YOPC   C1A14679   9.779   2.320   6.870  0.2114  0.0100  0.1199
 1072YOPC   D2A14680   9.807   2.274   7.203 -0.0082 -0.1125 -0.2272
 1072YOPC   C3A14681  10.153   2.442   7.439  0.2081 -0.1291 -0.1091
 1072YOPC   C4A14682  10.601   2.583   7.698  0.3348 -0.2314  0.1152
 1072YOPC   C1B14683   9.920   2.754   7.078  0.0895 -0.5007  0.0660
 1072YOPC   C2B14684   9.755   2.695   7.464  0.2466  0.1851  0.2110
 1072YOPC   D3B14685   9.630   2.347   7.620  0.1181  0.1058 -0.2117
 1072YOPC   C4B14686   9.642   2.069   8.057 -0.1116  0.3131  0.1474
 1073YOPC   NC314687   5.188   2.392   6.001  0.1694 -0.2973 -0.3631
 1073YOPC   PO414688   5.279   2.780   6.034  0.0483  0.1402 -0.2351
 1073YOPC   GL114689   5.584   2.782   6.385  0.2265 -0.0792  0.3657
 1073YOPC   GL214690   5.608   2.388   6.311  0.0405  0.0615 -0.2670
 1073YOPC   C1A14691   5.638   2.638   6.766  0.3353 -0.0040  0.1766
 1073YOPC   D2A14692   5.637   2.420   7.159  0.1135  0.1478  0.0022
 1073YOPC   C3A14693   5.824   2.295   7.465 -0.1941 -0.1161  0.1336
 1073YOPC   C4A14694   6.190   2.392   7.839 -0.2934 -0.1733 -0.1536
 1073YOPC   C1B14695   5.518   2.169   6.691  0.0866 -0.1506  0.1195
 1073YOPC   C2B14696   5.211   2.378   6.907  0.0699 -0.2386 -0.0606
 1073YOPC   D3B14697   4.921   2.426   7.260 -0.1249  0.0418 -0.0734
 1073YOPC   C4B14698   4.911   2.677   7.665 -0.2121 -0.1153  0.0601
 1074YOPC   NC314699   2.189   6.535   6.444 -0.0738 -0.2042 -0.1507
 1074YOPC   PO414700   2.495   6.857   6.437  0.0585 -0.0901 -0.0019
 1074YOPC   GL114701   2.660   6.676   6.776  0.2163  0.1098  0.1355
 1074YOPC   GL214702   2.687   6.392   6.730  0.1203 -0.0602  0.0062
 1074YOPC   C1A14703   2.496   6.632   7.255  0.0991 -0.2145  0.1831
 1074YOPC   D2A14704   2.519   6.353   7.669  0.0459 -0.2226 -0.2919
 1074YOPC   C3A14705   2.378   6.700   8.033 -0.0440  0.0146 -0.1430
 1074YOPC   C4A14706   2.397   6.959   8.454 -0.2701  0.1340  0.1171
 1074YOPC   C1B14707   2.647   6.172   7.166  0.0183 -0.1135  0.2958
 1074YOPC   C2B14708   2.813   6.016   7.504  0.1427  0.1009  0.0110
 1074YOPC   D3B14709   2.683   5.994   7.922  0.2429  0.0630 -0.0555
 1074YOPC   C4B14710   2.675   5.894   8.331 -0.0642 -0.1413 -0.0425
 1075YOPC   NC314711  16.519  17.201   5.567 -0.0282  0.2417 -0.1357
 1075YOPC   PO414712  16.968  16.947   5.528 -0.3400 -0.0671  0.3580
 1075YOPC   GL114713  16.777  16.970   5.932  0.1440  0.0926  0.1891
 1075YOPC   GL214714  16.427  16.854   5.976 -0.0140 -0.2051  0.1877
 1075YOPC   C1A14715  16.520  17.006   6.424 -0.1133  0.1162  0.1693
 1075YOPC   D2A14716  16.317  17.023   6.689  0.1310  0.1846  0.0425
 1075YOPC   C3A14717  16.020  16.658   6.718 -0.1317 -0.1259  0.0483
 1075YOPC   C4A14718  15.713  16.677   6.430  0.1342  0.0829  0.0953
 1075YOPC   C1B14719  16.109  17.037   6.208  0.3732  0.3442  0.2242
 1075YOPC   C2B14720  15.876  17.147   6.549  0.0116  0.0223  0.0707
 1075YOPC   D3B14721  15.701  17.036   6.854 -0.0252  0.0345 -0.0107
 1075YOPC   C4B14722  15.733  17.094   7.241  0.1195  0.2355  0.1252
 1076YOPC   NC314723  11.009   0.963   5.459 -0.5609 -0.1719 -0.0345
 1076YOPC   PO414724  10.820   1.299   5.657 -0.0249 -0.3321  0.3580
 1076YOPC   GL114725  10.709   1.266   6.023 -0.1547 -0.3030  0.1995
 1076YOPC   GL214726  10.360   1.324   6.140 -0.1245  0.0842  0.2173
 1076YOPC   C1A14727  10.785   0.986   6.298  0.2468 -0.0399 -0.0944
 1076YOPC   D2A14728  11.100   0.771   6.465  0.2428 -0.0181 -0.1105
 1076YOPC   C3A14729  11.115   0.485   6.150 -0.4210 -0.2092 -0.0525
 1076YOPC   C4A14730  11.244   0.130   6.075  0.1522 -0.0468  0.0361
 1076YOPC   C1B14731  10.382   1.242   6.535  0.2279  0.0528 -0.1819
 1076YOPC   C2B14732  10.424   1.141   7.001 -0.3232  0.0591 -0.2540
 1076YOPC   D3B14733  10.249   1.201   7.402 -0.0410 -0.2176  0.1430
 1076YOPC   C4B14734   9.911   1.015   7.648 -0.0318  0.0992 -0.0598
 1077YOPC   NC314735  11.286   5.514   6.931 -0.1211 -0.0292  0.2339
 1077YOPC   PO414736  10.937   5.317   6.899 -0.1858  0.0238 -0.0364
 1077YOPC   GL114737  10.780   5.507   7.216  0.0398  0.0379  0.2063
 1077YOPC   GL214738  10.495   5.692   7.140  0.1132 -0.2743  0.0370
 1077YOPC   C1A14739  10.964   5.407   7.609  0.0023  0.0841  0.1709
 1077YOPC   D2A14740  11.334   5.148   7.750 -0.3049 -0.0525 -0.1112
 1077YOPC   C3A14741  11.491   5.211   8.051 -0.1179 -0.2274  0.2994
 1077YOPC   C4A14742  11.561   5.206   8.423  0.2698 -0.0313 -0.1155
 1077YOPC   C1B14743  10.543   6.134   7.425  0.0677  0.0146  0.0507
 1077YOPC   C2B14744  10.559   6.328   7.795 -0.2169 -0.0404 -0.1160
 1077YOPC   D3B14745  10.255   6.593   7.941  0.3475  0.1131 -0.0971
 1077YOPC   C4B14746  10.044   6.735   8.294 -0.0721 -0.3401  0.2061
 1078YOPC   NC314747   7.441   3.220   5.888 -0.1931 -0.1554 -0.0254
 1078YOPC   PO414748   7.503   3.479   6.212 -0.1514 -0.0365 -0.1169
 1078YOPC   GL114749   7.501   3.382   6.680 -0.0490 -0.3733 -0.3030
 1078YOPC   GL214750   7.296   3.657   6.724  0.0705 -0.1016  0.0090
 1078YOPC   C1A14751   7.736   3.365   7.039  0.1008 -0.0517  0.2038
 1078YOPC   D2A14752   7.636   3.327   7.348  0.3474 -0.1111 -0.2199
 1078YOPC   C3A14753   7.458   3.180   7.790  0.2248 -0.1060 -0.0959
 1078YOPC   C4A14754   7.432   3.221   8.238  0.3418 -0.1858  0.0455
 1078YOPC   C1B14755   7.544   3.826   7.077  0.1434 -0.0786  0.0854
 1078YOPC   C2B14756   7.540   4.089   7.455  0.3602 -0.1173 -0.1433
 1078YOPC   D3B14757   7.536   4.162   7.897 -0.0685  0.1462  0.1662
 1078YOPC   C4B14758   7.431   4.113   8.285  0.3951 -0.2467 -0.0230
 1079YOPC   NC314759   5.098  11.348   6.305  0.2494  0.0661  0.3649
 1079YOPC   PO414760   4.696  11.387   6.341 -0.0202 -0.2029 -0.0908
 1079YOPC   GL114761   4.435  11.377   6.740 -0.0510  0.0349  0.1685
 1079YOPC   GL214762   4.364  11.645   6.714 -0.1184 -0.1559 -0.1331
 1079YOPC   C1A14763   4.357  11.202   7.129  0.0443  0.0142 -0.0377
 1079YOPC   D2A14764   4.184  11.092   7.545 -0.3030  0.2311 -0.1288
 1079YOPC   C3A14765   4.362  11.217   7.912  0.1441 -0.2209 -0.1665
 1079YOPC   C4A14766   4.763  11.448   7.852  0.0928 -0.0527 -0.1832
 1079YOPC   C1B14767   4.112  11.907   7.051  0.1498  0.1257 -0.0157
 1079YOPC   C2B14768   3.842  12.000   7.359 -0.1747 -0.2644 -0.0905
 1079YOPC   D3B14769   3.721  12.019   7.753  0.1673  0.0135 -0.2458
 1079YOPC   C4B14770   3.475  11.829   8.001  0.0477 -0.4603 -0.0170
 1080YOPC   NC314771  11.091  15.532   5.466 -0.1493  0.1729 -0.1299
 1080YOPC   PO414772  10.770  15.679   5.667  0.1647 -0.5838 -0.1854
 1080YOPC   GL114773  10.784  15.764   6.112  0.2754  0.0462  0.1439
 1080YOPC   GL214774  10.406  15.756   6.338 -0.0274  0.1032  0.0862
 1080YOPC   C1A14775  10.885  15.441   6.460 -0.1796  0.0547 -0.0273
 1080YOPC   D2A14776  10.813  15.034   6.604 -0.1284 -0.0395 -0.1850
 1080YOPC   C3A14777  10.616  14.969   6.921  0.1296 -0.0836  0.0099
 1080YOPC   C4A14778  10.658  14.778   7.303 -0.1348  0.1908  0.0167
 1080YOPC   C1B14779  10.464  15.695   6.755  0.1076  0.1524 -0.0571
 1080YOPC   C2B14780  10.388  15.797   7.114  0.1707  0.0073 -0.2055
 1080YOPC   D3B14781  10.165  15.427   7.224 -0.1127  0.1302  0.0305
 1080YOPC   C4B14782  10.215  14.971   7.243  0.1443 -0.0838 -0.2713
 1081YOPC   NC314783   5.327  12.251   6.254 -0.0808 -0.0265  0.2081
 1081YOPC   PO414784   5.125  11.794   6.124 -0.1337  0.2012 -0.2477
 1081YOPC   GL114785   4.920  11.989   6.580  0.0319  0.0193  0.1741
 1081YOPC   GL214786   4.859  11.766   6.632  0.0636  0.1653 -0.3314
 1081YOPC   C1A14787   5.105  12.065   6.935  0.1782 -0.3134 -0.0742
 1081YOPC   D2A14788   4.952  12.264   7.318  0.0197 -0.0308 -0.3029
 1081YOPC   C3A14789   5.150  12.271   7.723 -0.2614  0.0255 -0.3320
 1081YOPC   C4A14790   5.200  12.209   8.135 -0.1695 -0.1332  0.0089
 1081YOPC   C1B14791   4.658  11.905   6.985  0.0209 -0.0886 -0.2681
 1081YOPC   C2B14792   4.459  11.934   7.387  0.0372 -0.2952 -0.2063
 1081YOPC   D3B14793   4.492  11.506   7.448  0.2410 -0.0099 -0.3593
 1081YOPC   C4B14794   4.690  11.128   7.507 -0.2225  0.1809  0.0437
 1082YOPC   NC314795  11.789  13.131   5.950  0.0762  0.1035  0.1512
 1082YOPC   PO414796  11.722  13.605   5.745  0.0867  0.2397  0.3817
 1082YOPC   GL114797  11.702  13.606   6.106  0.2833 -0.0846 -0.1718
 1082YOPC   GL214798  11.425  13.384   6.176 -0.2771  0.1227 -0.1935
 1082YOPC   C1A14799  11.732  13.729   6.562  0.1826  0.2030  0.2253
 1082YOPC   D2A14800  11.478  13.642   6.881 -0.1062  0.0889 -0.0678
 1082YOPC   C3A14801  11.471  13.690   7.395 -0.2741  0.3486  0.2623
 1082YOPC   C4A14802  11.422  13.878   7.824  0.1498 -0.0517 -0.0590
 1082YOPC   C1B14803  11.287  13.417   6.492 -0.3474  0.1755 -0.2066
 1082YOPC   C2B14804  11.026  13.449   6.881 -0.0179 -0.0116  0.1154
 1082YOPC   D3B14805  11.058  13.807   7.155 -0.0622  0.2494 -0.0642
 1082YOPC   C4B14806  10.801  14.083   7.454 -0.0838 -0.1584 -0.0324
 1083YOPC   NC314807  17.074  15.539   5.538  0.1099 -0.1154 -0.0542
 1083YOPC   PO414808  16.660  15.515   5.705 -0.1597  0.0427 -0.0616
 1083YOPC   GL114809  16.452  15.572   6.174 -0.2536 -0.3977 -0.1992
 1083YOPC   GL214810  16.408  15.250   6.381 -0.1857  0.1013 -0.0947
 1083YOPC   C1A14811  16.081  15.623   6.464  0.1878  0.1751 -0.0912
 1083YOPC   D2A14812  15.969  15.826   6.922 -0.0523  0.0661  0.1639
 1083YOPC   C3A14813  16.063  16.244   7.059 -0.1870  0.3317  0.0621
 1083YOPC   C4A14814  15.932  16.625   7.193 -0.2429  0.2404 -0.1297
 1083YOPC   C1B14815  16.370  15.485   6.812 -0.1561 -0.1143 -0.0508
 1083YOPC   C2B14816  16.297  15.375   7.069 -0.2313 -0.0078 -0.0268
 1083YOPC   D3B14817  16.153  15.471   7.512 -0.1836 -0.4499 -0.0382
 1083YOPC   C4B14818  15.718  15.540   7.681 -0.0015 -0.0301  0.0661
 1084YOPC   NC314819  13.206   6.984   6.147  0.1728  0.0526  0.1427
 1084YOPC   PO414820  13.017   6.759   6.484 -0.0361 -0.4643  0.0634
 1084YOPC   GL114821  13.039   6.838   6.888  0.0625  0.2119  0.0408
 1084YOPC   GL214822  12.692   6.832   7.097  0.3290 -0.1013  0.0316
 1084YOPC   C1A14823  13.154   6.917   7.257  0.1568 -0.3128  0.0837
 1084YOPC   D2A14824  13.153   6.921   7.621  0.0276  0.0398 -0.0044
 1084YOPC   C3A14825  13.247   7.141   8.033 -0.0766 -0.0395  0.1734
 1084YOPC   C4A14826  12.916   7.315   8.339 -0.1783 -0.1820  0.2303
 1084YOPC   C1B14827  12.649   6.962   7.526  0.1668 -0.0383 -0.1006
 1084YOPC   C2B14828  12.639   7.077   7.919 -0.1919  0.0998 -0.0636
 1084YOPC   D3B14829  12.605   6.806   8.371 -0.0206  0.0901  0.0459
 1084YOPC   C4B14830  12.781   6.401   8.542  0.0858  0.0175 -0.2044
 1085YOPC   NC314831  14.845  14.305   5.753 -0.0097 -0.0348  0.0763
 1085YOPC   PO414832  14.824  14.736   5.967  0.2588  0.0861  0.1611
 1085YOPC   GL114833  15.098  14.570   6.300 -0.0631  0.1809 -0.0963
 1085YOPC   GL214834  15.394  14.422   6.373 -0.0483  0.3227  0.2109
 1085YOPC   C1A14835  15.120  14.676   6.790 -0.0717  0.0805 -0.2868
 1085YOPC   D2A14836  15.182  14.433   7.212 -0.1001 -0.1352  0.0151
 1085YOPC   C3A14837  15.215  14.441   7.638  0.0249 -0.1885 -0.1005
 1085YOPC   C4A14838  15.066  14.415   8.043 -0.1151  0.4094 -0.0713
 1085YOPC   C1B14839  15.473  14.289   6.807 -0.2906  0.2989  0.1317
 1085YOPC   C2B14840  15.589  14.182   7.231 -0.2636  0.0557 -0.1078
 1085YOPC   D3B14841  15.724  14.354   7.770 -0.2254  0.1743 -0.0505
 1085YOPC   C4B14842  15.542  14.337   8.187  0.0520  0.0132  0.2214
 1086YOPC   NC314843  17.034  13.126   5.343 -0.0252  0.0194 -0.0912
 1086YOPC   PO414844  16.821  13.051   5.918  0.1179 -0.3275 -0.0736
 1086YOPC   GL114845  16.922  12.826   6.257  0.0351  0.0143  0.1861
 1086YOPC   GL214846  17.239  12.742   6.343 -0.0600 -0.3388  0.1120
 1086YOPC   C1A14847  16.794  12.749   6.691  0.1629  0.0121  0.0015
 1086YOPC   D2A14848  17.007  12.805   7.057 -0.1581 -0.2038 -0.3512
 1086YOPC   C3A14849  16.815  12.546   7.370  0.1174 -0.4546 -0.0826
 1086YOPC   C4A14850  16.765  12.518   7.849 -0.1211  0.0117 -0.1970
 1086YOPC   C1B14851  17.311  12.594   6.749 -0.1151  0.2735 -0.0399
 1086YOPC   C2B14852  17.631  12.646   6.779  0.0298  0.2443 -0.0955
 1086YOPC   D3B14853  17.561  12.992   6.978  0.0124  0.0904 -0.0615
 1086YOPC   C4B14854  17.802  13.432   7.043  0.2636  0.1037 -0.3081
 1087YOPC   NC314855  10.815   8.415   6.015 -0.1066 -0.1470 -0.4155
 1087YOPC   PO414856  10.459   8.462   6.377 -0.0681 -0.0734  0.1392
 1087YOPC   GL114857  10.495   8.628   6.727 -0.1002  0.0713  0.1835
 1087YOPC   GL214858  10.570   8.364   6.938  0.1380 -0.0021 -0.1656
 1087YOPC   C1A14859  10.377   8.855   7.190 -0.2322  0.0880  0.3730
 1087YOPC   D2A14860  10.343   8.955   7.731  0.0923 -0.1140 -0.1121
 1087YOPC   C3A14861   9.932   9.107   7.960  0.1394 -0.0498  0.2198
 1087YOPC   C4A14862   9.930   9.574   8.098  0.1042  0.1099 -0.0149
 1087YOPC   C1B14863  10.344   8.334   7.271  0.0053 -0.1737  0.1592
 1087YOPC   C2B14864  10.255   7.990   7.608 -0.1829 -0.2048 -0.0004
 1087YOPC   D3B14865   9.952   8.163   7.885 -0.0496  0.1147 -0.1394
 1087YOPC   C4B14866   9.636   8.155   8.172 -0.0955  0.1355 -0.0844
 1088YOPC   NC314867   0.374   8.238   6.220  0.1806  0.0112 -0.1289
 1088YOPC   PO414868   0.408   7.859   6.452  0.0540 -0.1148  0.0338
 1088YOPC   GL114869   0.485   8.162   6.749 -0.0473  0.2302 -0.0615
 1088YOPC   GL214870   0.223   8.295   6.789 -0.3439 -0.0930  0.2866
 1088YOPC   C1A14871   0.465   8.045   7.146 -0.2530 -0.0315 -0.1877
 1088YOPC   D2A14872   0.495   8.073   7.647  0.0332 -0.1476 -0.0787
 1088YOPC   C3A14873   0.236   8.418   7.816  0.0209 -0.1516  0.0862
 1088YOPC   C4A14874   0.226   8.795   7.882 -0.2443  0.3271 -0.1743
 1088YOPC   C1B14875  -0.001   8.368   7.087 -0.2005 -0.2828  0.1492
 1088YOPC   C2B14876  -0.072   8.527   7.463  0.0546 -0.1989  0.1178
 1088YOPC   D3B14877  -0.300   8.350   7.745  0.2252  0.1307 -0.0640
 1088YOPC   C4B14878  -0.481   8.188   8.027 -0.0823 -0.0888  0.1158
 1089YOPC   NC314879   5.610   5.291   6.266  0.0664  0.2440  0.1833
 1089YOPC   PO414880   5.700   4.888   6.244  0.0639  0.2226  0.0085
 1089YOPC   GL114881   5.662   4.829   6.676  0.2477 -0.2335 -0.1172
 1089YOPC   GL214882   5.894   4.543   6.733  0.2354 -0.2838  0.3100
 1089YOPC   C1A14883   5.565   4.902   7.054 -0.3423  0.2431 -0.2446
 1089YOPC   D2A14884   5.610   4.850   7.464  0.1703  0.1479 -0.2926
 1089YOPC   C3A14885   5.404   4.925   7.750 -0.0352 -0.1088  0.0737
 1089YOPC   C4A14886   5.318   4.665   8.119 -0.3751  0.1337 -0.2652
 1089YOPC   C1B14887   5.693   4.446   7.129  0.0943  0.1272 -0.0586
 1089YOPC   C2B14888   5.615   4.171   7.453 -0.1342  0.0631  0.0456
 1089YOPC   D3B14889   5.600   4.371   7.741 -0.1894 -0.0746 -0.4313
 1089YOPC   C4B14890   5.774   4.698   7.920  0.1596  0.0877  0.1080
 1090YOPC   NC314891   8.955  13.866   5.884  0.1360 -0.1993  0.1190
 1090YOPC   PO414892   8.947  14.244   5.535  0.0305 -0.3525 -0.3779
 1090YOPC   GL114893   8.983  14.396   5.963 -0.2955  0.1839  0.2088
 1090YOPC   GL214894   8.745  14.221   6.146  0.1240  0.1034  0.0717
 1090YOPC   C1A14895   9.232  14.381   6.393  0.1114  0.1345 -0.4521
 1090YOPC   D2A14896   9.135  14.590   6.772 -0.2798 -0.1720  0.0223
 1090YOPC   C3A14897   9.631  14.692   6.919  0.0075 -0.1325 -0.1492
 1090YOPC   C4A14898  10.076  14.664   6.762 -0.0371 -0.0050 -0.1192
 1090YOPC   C1B14899   8.865  14.111   6.562  0.0963  0.1497  0.1509
 1090YOPC   C2B14900   9.233  13.923   6.736  0.2404  0.0757 -0.0932
 1090YOPC   D3B14901   9.659  13.801   6.765 -0.0123 -0.0305 -0.0546
 1090YOPC   C4B14902  10.028  13.697   6.918  0.1600 -0.1108  0.0117
 1091YOPC   NC314903  13.842  15.852   5.616 -0.0746  0.4415  0.1347
 1091YOPC   PO414904  13.397  15.668   5.765 -0.1695 -0.0089 -0.0174
 1091YOPC   GL114905  13.511  15.834   6.087 -0.0601  0.0324 -0.2392
 1091YOPC   GL214906  13.807  15.810   6.195 -0.0436 -0.2310  0.2381
 1091YOPC   C1A14907  13.442  15.963   6.497  0.0714  0.0929 -0.1580
 1091YOPC   D2A14908  13.545  16.289   6.726  0.2266 -0.2621  0.0877
 1091YOPC   C3A14909  13.301  16.366   7.134 -0.1211  0.0554  0.3420
 1091YOPC   C4A14910  13.198  16.265   7.556 -0.1636 -0.1123  0.1497
 1091YOPC   C1B14911  13.951  16.136   6.413  0.0041  0.0140 -0.2593
 1091YOPC   C2B14912  14.357  16.159   6.567  0.0383 -0.1454 -0.4364
 1091YOPC   D3B14913  14.565  16.314   6.840 -0.1613  0.0248 -0.1336
 1091YOPC   C4B14914  14.642  16.398   7.223 -0.0250 -0.0853  0.0255
 1092YOPC   NC314915   1.462   0.672   5.766  0.2748 -0.0788 -0.0915
 1092YOPC   PO414916   1.510   1.120   5.987  0.2431  0.3683 -0.1792
 1092YOPC   GL114917   1.714   0.893   6.299 -0.1699 -0.0723  0.1558
 1092YOPC   GL214918   1.612   0.929   6.627  0.1086  0.1405  0.0894
 1092YOPC   C1A14919   2.037   0.748   6.708  0.1926  0.0273 -0.0858
 1092YOPC   D2A14920   2.100   0.557   7.140 -0.5166  0.3295 -0.2355
 1092YOPC   C3A14921   1.882   0.364   7.289 -0.3213 -0.3552  0.2279
 1092YOPC   C4A14922   1.679   0.101   7.691  0.0670 -0.0796 -0.0872
 1092YOPC   C1B14923   1.491   1.268   6.912 -0.0318  0.0863 -0.0752
 1092YOPC   C2B14924   1.476   1.433   7.265 -0.2651  0.0311 -0.1022
 1092YOPC   D3B14925   1.348   1.391   7.685  0.1017  0.1048 -0.1775
 1092YOPC   C4B14926   1.186   1.519   7.996  0.0759 -0.1688  0.0224
 1093YOPC   NC314927  14.778  15.909   5.967 -0.0127 -0.2544  0.2588
 1093YOPC   PO414928  14.756  15.467   5.943  0.1400  0.1617 -0.1646
 1093YOPC   GL114929  14.652  15.569   6.310 -0.2806 -0.0565 -0.2257
 1093YOPC   GL214930  14.670  15.346   6.486 -0.1134 -0.0886  0.0381
 1093YOPC   C1A14931  14.545  15.659   6.825  0.2114  0.1126  0.1677
 1093YOPC   D2A14932  14.487  15.832   7.177  0.0607  0.0432 -0.1131
 1093YOPC   C3A14933  14.736  15.972   7.499  0.4008 -0.4566  0.0743
 1093YOPC   C4A14934  14.723  16.418   7.691  0.0122  0.2469  0.0096
 1093YOPC   C1B14935  14.779  15.085   6.862 -0.1301 -0.0660 -0.1276
 1093YOPC   C2B14936  14.655  15.343   7.195 -0.0742  0.1068  0.0488
 1093YOPC   D3B14937  14.884  15.421   7.564  0.1842 -0.1082 -0.2443
 1093YOPC   C4B14938  15.186  15.350   7.967  0.1342 -0.1439 -0.0463
 1094YOPC   NC314939  11.516   3.504   6.635  0.0066 -0.2313  0.6006
 1094YOPC   PO414940  11.233   3.797   6.717  0.1000 -0.1002 -0.5550
 1094YOPC   GL114941  10.916   3.695   6.964 -0.1707  0.0141 -0.0373
 1094YOPC   GL214942  10.643   3.665   6.826 -0.2532  0.3542  0.3520
 1094YOPC   C1A14943  10.971   3.621   7.460  0.3601  0.0173  0.0854
 1094YOPC   D2A14944  10.777   3.665   7.833  0.2445  0.0510  0.0833
 1094YOPC   C3A14945  11.074   3.528   8.201  0.0926 -0.0925  0.0496
 1094YOPC   C4A14946  11.203   3.447   8.520  0.0794  0.0939 -0.2148
 1094YOPC   C1B14947  10.462   3.493   7.285 -0.0502  0.1853  0.0881
 1094YOPC   C2B14948  10.311   3.530   7.816 -0.0335  0.2554  0.0328
 1094YOPC   D3B14949  10.014   3.191   7.894 -0.0965  0.0497 -0.1035
 1094YOPC   C4B14950   9.694   3.024   8.072  0.0437 -0.0640  0.2007
 1095YOPC   NC314951  11.843   6.188   6.426 -0.1674  0.3101 -0.0602
 1095YOPC   PO414952  12.047   6.523   6.549  0.0081 -0.1313  0.3396
 1095YOPC   GL114953  12.201   6.641   6.936  0.2002 -0.2986  0.1574
 1095YOPC   GL214954  12.131   6.970   6.859  0.1244  0.0422 -0.4338
 1095YOPC   C1A14955  12.217   6.866   7.361  0.2428  0.0613  0.2154
 1095YOPC   D2A14956  12.313   6.707   7.862 -0.1582 -0.1694  0.0952
 1095YOPC   C3A14957  12.147   6.564   8.289  0.0839 -0.1486 -0.1435
 1095YOPC   C4A14958  12.173   6.600   8.723 -0.4615 -0.1764 -0.1934
 1095YOPC   C1B14959  11.711   6.973   7.156 -0.0690  0.0077 -0.3788
 1095YOPC   C2B14960  11.583   6.842   7.549  0.0587 -0.3192 -0.0693
 1095YOPC   D3B14961  11.905   7.018   7.749  0.2581  0.2208 -0.2049
 1095YOPC   C4B14962  11.822   7.328   8.082 -0.4122 -0.0254  0.3329
 1096YOPC   NC314963  14.922  15.584   5.418  0.1058 -0.3672  0.1846
 1096YOPC   PO414964  15.151  15.694   5.684  0.0331  0.1850 -0.1104
 1096YOPC   GL114965  15.215  15.657   6.167 -0.2301 -0.1211  0.0718
 1096YOPC   GL214966  15.534  15.780   6.191 -0.1582  0.1647  0.0835
 1096YOPC   C1A14967  15.054  15.540   6.583 -0.1218 -0.0867  0.0814
 1096YOPC   D2A14968  15.067  15.578   7.061 -0.1085 -0.1643  0.2634
 1096YOPC   C3A14969  15.409  15.334   7.244 -0.2776  0.1195  0.1777
 1096YOPC   C4A14970  15.790  15.352   7.090 -0.0207  0.1592 -0.0637
 1096YOPC   C1B14971  15.538  15.786   6.715 -0.1842 -0.0319 -0.0618
 1096YOPC   C2B14972  15.577  15.781   7.226  0.0002 -0.1670  0.0493
 1096YOPC   D3B14973  15.292  15.790   7.592  0.0341  0.0549  0.1882
 1096YOPC   C4B14974  14.996  15.846   7.882 -0.0567  0.0639 -0.2969
 1097YOPC   NC314975   6.270  16.474   6.006 -0.1958  0.1798  0.0238
 1097YOPC   PO414976   5.927  15.997   5.986  0.3446 -0.2228 -0.1729
 1097YOPC   GL114977   6.208  15.853   6.327  0.2195 -0.0650  0.0513
 1097YOPC   GL214978   6.489  16.055   6.418 -0.1471 -0.1387 -0.0478
 1097YOPC   C1A14979   6.279  15.505   6.581  0.1970 -0.1277  0.3501
 1097YOPC   D2A14980   6.375  15.365   6.944 -0.0858 -0.0653  0.1811
 1097YOPC   C3A14981   6.573  15.523   7.370  0.2233 -0.0026  0.1207
 1097YOPC   C4A14982   6.562  15.641   7.821 -0.3461 -0.0236  0.3133
 1097YOPC   C1B14983   6.590  15.861   6.799  0.1066  0.1033 -0.0809
 1097YOPC   C2B14984   6.733  15.941   7.128  0.0201  0.1082 -0.1788
 1097YOPC   D3B14985   6.948  15.786   7.451  0.0780 -0.0212  0.1292
 1097YOPC   C4B14986   7.014  15.937   7.838 -0.0772  0.1395 -0.0419
 1098YOPC   NC314987   3.559   5.100   6.179  0.1848  0.0894  0.2604
 1098YOPC   PO414988   3.866   5.357   6.338  0.1966 -0.1522  0.1838
 1098YOPC   GL114989   3.819   5.419   6.825 -0.3526  0.0896  0.0603
 1098YOPC   GL214990   4.121   5.393   6.864 -0.0644  0.0395 -0.4433
 1098YOPC   C1A14991   3.816   5.540   7.245 -0.3668  0.0362 -0.1645
 1098YOPC   D2A14992   3.709   5.639   7.697  0.3308  0.2549 -0.0640
 1098YOPC   C3A14993   3.749   5.836   8.099  0.0617  0.1876  0.1340
 1098YOPC   C4A14994   3.524   5.804   8.537  0.0894 -0.3090  0.2098
 1098YOPC   C1B14995   3.988   5.085   7.175 -0.4414  0.0874  0.2688
 1098YOPC   C2B14996   3.876   4.709   7.442 -0.0831  0.1279 -0.1201
 1098YOPC   D3B14997   3.776   4.707   7.811 -0.4118  0.1084 -0.1543
 1098YOPC   C4B14998   3.763   5.056   8.075  0.0990  0.1734 -0.0910
 1099YOPC   NC314999  14.868  12.074   6.184  0.0341 -0.0036 -0.4213
 1099YOPC   PO415000  14.526  12.334   6.227  0.2328  0.1241 -0.1817
 1099YOPC   GL115001  14.642  12.218   6.619  0.0581 -0.1300 -0.3531
 1099YOPC   GL215002  14.676  11.872   6.676 -0.0121 -0.0148  0.3348
 1099YOPC   C1A15003  14.668  12.447   6.995  0.1590 -0.2054 -0.1828
 1099YOPC   D2A15004  14.770  12.713   7.274  0.2737  0.2081  0.0083
 1099YOPC   C3A15005  14.814  12.589   7.685 -0.1517 -0.0982  0.0506
 1099YOPC   C4A15006  14.914  12.658   8.127 -0.0835 -0.2210  0.2076
 1099YOPC   C1B15007  14.620  11.880   7.132 -0.1421 -0.3087 -0.0962
 1099YOPC   C2B15008  14.600  11.810   7.570  0.4155 -0.0431 -0.1165
 1099YOPC   D3B15009  14.730  12.143   7.847  0.1191  0.3407  0.1510
 1099YOPC   C4B15010  14.449  12.169   8.175 -0.0505  0.2403 -0.0980
 1100YOPC   NC315011  14.843   8.259   5.664  0.0924 -0.1083  0.1131
 1100YOPC   PO415012  14.937   8.632   6.013 -0.0831 -0.1033 -0.0388
 1100YOPC   GL115013  14.671   8.721   6.438  0.2453  0.1022 -0.0321
 1100YOPC   GL215014  14.407   9.035   6.343  0.0001 -0.5184 -0.1654
 1100YOPC   C1A15015  14.770   8.881   6.803 -0.1391  0.0774 -0.1262
 1100YOPC   D2A15016  15.004   8.814   7.184 -0.0828  0.1410 -0.1726
 1100YOPC   C3A15017  14.903   8.804   7.616  0.0345 -0.1120 -0.0849
 1100YOPC   C4A15018  14.919   8.876   7.975 -0.1028 -0.0957 -0.0403
 1100YOPC   C1B15019  14.315   9.111   6.787  0.0053  0.1455  0.0019
 1100YOPC   C2B15020  14.075   9.013   7.180  0.0761  0.2514  0.0328
 1100YOPC   D3B15021  14.246   8.943   7.580  0.1307  0.2413  0.2065
 1100YOPC   C4B15022  14.399   8.862   7.999  0.1516  0.1268  0.3069
 1101YOPC   NC315023   0.530   0.859   5.761 -0.3180 -0.0377  0.2288
 1101YOPC   PO415024   0.333   1.175   6.024 -0.1590  0.1610 -0.0187
 1101YOPC   GL115025   0.135   0.994   6.427 -0.0063  0.1109 -0.0243
 1101YOPC   GL215026   0.331   1.110   6.607  0.1326 -0.1792  0.0121
 1101YOPC   C1A15027   0.026   0.671   6.696 -0.2045 -0.0106 -0.1019
 1101YOPC   D2A15028   0.007   0.695   7.122  0.2199  0.2705 -0.0630
 1101YOPC   C3A15029   0.097   0.677   7.547  0.2760  0.1517  0.0891
 1101YOPC   C4A15030   0.025   0.437   7.989 -0.0142  0.2323 -0.0290
 1101YOPC   C1B15031   0.247   1.078   6.937 -0.2455 -0.1043  0.2706
 1101YOPC   C2B15032   0.098   1.159   7.297  0.4009 -0.1737  0.1103
 1101YOPC   D3B15033   0.377   1.140   7.657  0.1455  0.0383  0.0904
 1101YOPC   C4B15034   0.354   0.739   7.967 -0.1357 -0.2380 -0.1513
 1102YOPC   NC315035   5.351   3.983   6.217  0.1552 -0.0941 -0.2122
 1102YOPC   PO415036   5.178   3.677   6.467  0.1773  0.0674  0.1521
 1102YOPC   GL115037   5.173   3.693   6.912  0.0242 -0.4838  0.2781
 1102YOPC   GL215038   5.230   4.000   7.100 -0.2597  0.5247  0.3094
 1102YOPC   C1A15039   5.466   3.510   7.145 -0.3010  0.1736  0.0518
 1102YOPC   D2A15040   5.681   3.332   7.593 -0.0894 -0.0046  0.1504
 1102YOPC   C3A15041   5.830   3.310   7.986  0.2166 -0.0178  0.1315
 1102YOPC   C4A15042   6.087   2.989   8.137  0.2038  0.1197 -0.2256
 1102YOPC   C1B15043   5.366   3.792   7.512 -0.0444  0.0445  0.0628
 1102YOPC   C2B15044   5.638   3.945   7.973  0.1156  0.1140 -0.2304
 1102YOPC   D3B15045   5.753   3.688   8.288 -0.2076 -0.1770 -0.0381
 1102YOPC   C4B15046   5.949   3.337   8.595  0.2186  0.0166  0.1015
 1103YOPC   NC315047  10.448  12.187   5.519 -0.2856  0.1702  0.0028
 1103YOPC   PO415048   9.982  11.907   5.395  0.0360 -0.0345 -0.0577
 1103YOPC   GL115049   9.974  12.075   5.846 -0.1594 -0.3468 -0.1330
 1103YOPC   GL215050  10.151  12.373   5.934  0.3752 -0.0434  0.1225
 1103YOPC   C1A15051   9.684  12.319   6.138  0.1573  0.0154  0.3231
 1103YOPC   D2A15052   9.642  12.708   6.375 -0.0122  0.1040  0.3467
 1103YOPC   C3A15053   9.701  12.779   6.779  0.2449 -0.2140  0.2756
 1103YOPC   C4A15054   9.824  12.651   7.187 -0.3216 -0.0325 -0.0933
 1103YOPC   C1B15055   9.986  12.727   5.973  0.0560 -0.4531 -0.4401
 1103YOPC   C2B15056   9.971  13.150   6.165  0.1510 -0.1494 -0.0635
 1103YOPC   D3B15057  10.192  13.363   6.541  0.3186 -0.1486  0.2078
 1103YOPC   C4B15058  10.495  13.587   6.603 -0.1686  0.0799 -0.2921
 1104YOPC   NC315059   0.031   3.948   6.528 -0.1576 -0.2901  0.1326
 1104YOPC   PO415060  -0.304   3.703   6.600 -0.1285  0.2747  0.0955
 1104YOPC   GL115061  -0.090   3.725   7.017  0.0909 -0.0328 -0.3368
 1104YOPC   GL215062  -0.248   3.502   7.186 -0.2943  0.1833 -0.0880
 1104YOPC   C1A15063   0.291   3.583   7.216 -0.1361 -0.0122 -0.2931
 1104YOPC   D2A15064   0.314   3.594   7.670  0.3178 -0.1161 -0.1476
 1104YOPC   C3A15065   0.608   3.576   8.064 -0.1112  0.2823 -0.0687
 1104YOPC   C4A15066   0.803   3.651   8.483  0.1826  0.0388 -0.0020
 1104YOPC   C1B15067  -0.495   3.321   7.536 -0.0982  0.0541 -0.1566
 1104YOPC   C2B15068  -0.560   3.322   7.954  0.1688  0.3174 -0.0750
 1104YOPC   D3B15069  -0.883   3.212   8.122  0.0055  0.2764 -0.0143
 1104YOPC   C4B15070  -1.257   3.120   8.115 -0.0139  0.4131  0.1638
 1105YOPC   NC315071   3.654  16.124   6.237  0.0891 -0.0998  0.2263
 1105YOPC   PO415072   3.327  15.775   6.337 -0.1451  0.3830 -0.2495
 1105YOPC   GL115073   3.326  15.736   6.804  0.0042  0.2200  0.1441
 1105YOPC   GL215074   3.653  15.723   6.870 -0.0429  0.5769 -0.0008
 1105YOPC   C1A15075   3.221  15.542   7.197 -0.0878 -0.2258  0.2011
 1105YOPC   D2A15076   3.301  15.581   7.586  0.1307  0.1772 -0.0160
 1105YOPC   C3A15077   3.543  15.279   7.790  0.2744  0.1323  0.0315
 1105YOPC   C4A15078   3.936  15.139   7.953 -0.2206 -0.2490 -0.1914
 1105YOPC   C1B15079   3.745  15.700   7.384  0.3001 -0.0044 -0.0839
 1105YOPC   C2B15080   3.895  15.830   7.792 -0.0085 -0.0196  0.1891
 1105YOPC   D3B15081   3.748  15.528   8.186 -0.3923 -0.2014  0.2830
 1105YOPC   C4B15082   3.545  15.101   8.257  0.1974 -0.1095 -0.0709
 1106YOPC   NC315083   5.145   7.810   6.257  0.2350  0.0721  0.0284
 1106YOPC   PO415084   4.826   7.593   6.486 -0.1593 -0.0535  0.1829
 1106YOPC   GL115085   4.608   7.482   6.816 -0.1099  0.0768 -0.1893
 1106YOPC   GL215086   4.859   7.465   6.963 -0.1650  0.0769 -0.0457
 1106YOPC   C1A15087   4.289   7.515   7.068  0.2031 -0.3154 -0.1011
 1106YOPC   D2A15088   4.015   7.638   7.414  0.3628  0.2399 -0.0161
 1106YOPC   C3A15089   3.978   8.102   7.440  0.0700  0.1027  0.1554
 1106YOPC   C4A15090   3.832   8.363   7.749 -0.0126  0.1259 -0.4219
 1106YOPC   C1B15091   4.737   7.418   7.398  0.1996 -0.0315  0.0480
 1106YOPC   C2B15092   4.715   7.354   7.861  0.0054  0.0032 -0.0299
 1106YOPC   D3B15093   4.449   7.191   8.117  0.0752  0.1234  0.0715
 1106YOPC   C4B15094   4.122   6.983   8.007 -0.1580  0.2132  0.0985
 1107YOPC   NC315095   3.106   8.850   6.221  0.0016 -0.0330  0.4495
 1107YOPC   PO415096   3.183   8.396   6.203  0.2231 -0.1008  0.1968
 1107YOPC   GL115097   2.849   8.518   6.547 -0.0610 -0.3094 -0.3400
 1107YOPC   GL215098   2.986   8.270   6.749  0.2687 -0.0549  0.1497
 1107YOPC   C1A15099   2.752   8.744   6.947  0.1906  0.2236  0.2373
 1107YOPC   D2A15100   2.666   8.907   7.324 -0.0805  0.2679  0.0163
 1107YOPC   C3A15101   2.517   8.788   7.670 -0.0141  0.1110 -0.2110
 1107YOPC   C4A15102   2.537   8.582   8.026 -0.4453  0.5212  0.1024
 1107YOPC   C1B15103   2.981   8.058   7.106 -0.0572  0.0113  0.4094
 1107YOPC   C2B15104   3.052   7.917   7.606 -0.1445  0.0786 -0.2280
 1107YOPC   D3B15105   2.875   8.176   8.026 -0.2522 -0.0563  0.3106
 1107YOPC   C4B15106   3.056   8.303   8.389  0.1422 -0.0278 -0.0010
 1108YOPC   NC315107   0.074  15.823   5.511  0.0961  0.0393  0.0465
 1108YOPC   PO415108  -0.367  15.829   5.762  0.0936  0.1794 -0.0055
 1108YOPC   GL115109  -0.412  16.110   6.099 -0.0632  0.0013 -0.1559
 1108YOPC   GL215110  -0.173  16.289   6.140  0.2170 -0.0348 -0.3936
 1108YOPC   C1A15111  -0.600  16.414   6.381  0.2069 -0.1964 -0.3375
 1108YOPC   D2A15112  -0.766  16.815   6.419  0.1974 -0.0840  0.2493
 1108YOPC   C3A15113  -0.834  16.868   6.914  0.1778 -0.0930 -0.0003
 1108YOPC   C4A15114  -1.047  16.956   7.210 -0.0665  0.0955  0.0459
 1108YOPC   C1B15115  -0.114  16.278   6.528  0.2844 -0.0086  0.1000
 1108YOPC   C2B15116  -0.026  16.399   6.958  0.2415  0.1757 -0.1200
 1108YOPC   D3B15117  -0.381  16.512   7.272  0.0585  0.1165 -0.0635
 1108YOPC   C4B15118  -0.701  16.668   7.381 -0.2675 -0.0869  0.0289
 1109YOPC   NC315119  17.234  11.074   5.881 -0.2091  0.2573  0.1505
 1109YOPC   PO415120  17.306  10.637   5.987 -0.1472 -0.1713 -0.2806
 1109YOPC   GL115121  17.094  10.484   6.397 -0.1588  0.0622 -0.1759
 1109YOPC   GL215122  16.716  10.448   6.400  0.2432 -0.0921 -0.2099
 1109YOPC   C1A15123  17.083  10.781   6.791  0.1340 -0.0566 -0.0773
 1109YOPC   D2A15124  16.722  10.854   7.022  0.0236 -0.1808  0.1947
 1109YOPC   C3A15125  16.619  10.721   7.414 -0.0048 -0.0230  0.0168
 1109YOPC   C4A15126  16.706  10.382   7.718 -0.0031 -0.1290 -0.1254
 1109YOPC   C1B15127  16.670  10.353   6.783  0.1090 -0.1098 -0.6464
 1109YOPC   C2B15128  16.794  10.356   7.181 -0.3907  0.0136  0.0302
 1109YOPC   D3B15129  17.084  10.561   7.324 -0.2130 -0.1621 -0.0257
 1109YOPC   C4B15130  17.274  10.790   7.679 -0.1278  0.0600  0.0953
 1110YOPC   NC315131   9.832  14.577   4.804  0.0836 -0.3106 -0.0929
 1110YOPC   PO415132  10.033  14.538   5.182 -0.0293  0.4134  0.3181
 1110YOPC   GL115133  10.322  14.412   5.513  0.0134 -0.0173  0.2748
 1110YOPC   GL215134  10.323  14.070   5.507 -0.0657  0.1993  0.1308
 1110YOPC   C1A15135  10.240  14.331   5.970  0.1289 -0.4972 -0.0382
 1110YOPC   D2A15136  10.040  14.382   6.340 -0.0744 -0.0927 -0.2264
 1110YOPC   C3A15137  10.164  14.198   6.725 -0.1689 -0.0234  0.0136
 1110YOPC   C4A15138  10.508  14.048   6.989 -0.1390 -0.0549 -0.0066
 1110YOPC   C1B15139  10.252  13.839   5.820 -0.2481 -0.3690 -0.0046
 1110YOPC   C2B15140  10.463  13.573   6.075 -0.0140 -0.1562 -0.1419
 1110YOPC   D3B15141  10.876  13.670   6.283 -0.2349  0.1938 -0.2964
 1110YOPC   C4B15142  10.863  13.905   6.709  0.1014  0.2818  0.2569
 1111YOPC   NC315143   0.371   2.653   6.178 -0.1640  0.2723  0.0734
 1111YOPC   PO415144   0.753   2.388   6.305 -0.0909 -0.1545 -0.3780
 1111YOPC   GL115145   0.771   2.308   6.729 -0.4182  0.2215 -0.3736
 1111YOPC   GL215146   0.620   2.031   6.741  0.2858  0.1055  0.0681
 1111YOPC   C1A15147   0.766   2.357   7.184 -0.1103  0.2440  0.1317
 1111YOPC   D2A15148   0.874   2.395   7.672 -0.0514  0.1750 -0.2138
 1111YOPC   C3A15149   0.718   2.538   8.089  0.2478  0.0535  0.1502
 1111YOPC   C4A15150   0.408   2.552   8.380 -0.1527 -0.4623  0.1168
 1111YOPC   C1B15151   0.392   2.038   7.118  0.1954 -0.2562 -0.0378
 1111YOPC   C2B15152   0.463   2.080   7.672 -0.2439  0.0548  0.4356
 1111YOPC   D3B15153   0.466   2.034   8.095  0.2513 -0.1829  0.0978
 1111YOPC   C4B15154   0.611   2.178   8.552  0.0986  0.0516  0.1352
 1112YOPC   NC315155  15.724   3.859   6.516  0.1044  0.0477 -0.2872
 1112YOPC   PO415156  16.172   3.654   6.713 -0.0619  0.2928 -0.2405
 1112YOPC   GL115157  16.263   3.689   7.133 -0.1899  0.0378 -0.0434
 1112YOPC   GL215158  16.163   4.033   7.255 -0.1655  0.1009 -0.1874
 1112YOPC   C1A15159  16.151   3.620   7.645  0.0223  0.2706 -0.0317
 1112YOPC   D2A15160  16.036   3.781   8.136 -0.1602 -0.1353  0.0729
 1112YOPC   C3A15161  15.908   3.720   8.454  0.2228 -0.0381 -0.1466
 1112YOPC   C4A15162  15.867   3.627   8.925 -0.2164  0.3773  0.0798
 1112YOPC   C1B15163  16.191   4.093   7.780 -0.5479 -0.1228  0.0605
 1112YOPC   C2B15164  16.291   4.192   8.205  0.2061 -0.3570 -0.0321
 1112YOPC   D3B15165  16.361   4.031   8.571  0.1201  0.1447 -0.1131
 1112YOPC   C4B15166  16.303   3.862   8.957  0.0526 -0.0110  0.2679
 1113YOPC   NC315167   2.961  11.046   6.050 -0.1604  0.2296  0.1493
 1113YOPC   PO415168   2.596  10.927   6.354  0.0906  0.0276 -0.0656
 1113YOPC   GL115169   2.900  10.836   6.733 -0.1609 -0.0327 -0.0973
 1113YOPC   GL215170   3.152  10.591   6.771  0.1576  0.0395 -0.0065
 1113YOPC   C1A15171   2.915  10.996   7.206 -0.1428 -0.4563  0.2764
 1113YOPC   D2A15172   2.890  11.152   7.587  0.1539 -0.2543  0.0568
 1113YOPC   C3A15173   2.690  11.009   7.823 -0.0189 -0.1511 -0.1536
 1113YOPC   C4A15174   2.599  10.965   8.239 -0.3097  0.0839 -0.0427
 1113YOPC   C1B15175   3.247  10.582   7.249  0.1422 -0.1479  0.1841
 1113YOPC   C2B15176   3.037  10.648   7.706  0.0356 -0.0808 -0.0179
 1113YOPC   D3B15177   2.939  10.622   8.018  0.0470  0.3365 -0.3681
 1113YOPC   C4B15178   3.025  10.601   8.448 -0.1821  0.2328 -0.2276
 1114YOPC   NC315179  16.654   2.564   6.130 -0.0401 -0.2723  0.0143
 1114YOPC   PO415180  16.898   2.450   6.513 -0.0252 -0.1063 -0.1673
 1114YOPC   GL115181  16.717   2.249   6.899 -0.0221 -0.0783 -0.0539
 1114YOPC   GL215182  16.681   1.935   7.069 -0.0621  0.0907 -0.1070
 1114YOPC   C1A15183  16.463   2.326   7.273  0.0310  0.3006  0.0486
 1114YOPC   D2A15184  16.247   2.088   7.619  0.3298  0.1326 -0.1422
 1114YOPC   C3A15185  16.103   2.272   8.037 -0.1378 -0.0079  0.0844
 1114YOPC   C4A15186  15.881   2.206   8.390  0.2358  0.0300  0.2306
 1114YOPC   C1B15187  16.621   1.878   7.479  0.0421  0.1251 -0.0947
 1114YOPC   C2B15188  16.740   1.848   7.886 -0.1469 -0.0940  0.0869
 1114YOPC   D3B15189  16.831   2.113   8.215  0.1862 -0.0031  0.0243
 1114YOPC   C4B15190  16.926   1.997   8.624  0.1551 -0.1038 -0.0056
 1115YOPC   NC315191   1.483   2.448   6.434  0.1083 -0.0586  0.0064
 1115YOPC   PO415192   1.901   2.672   6.632  0.0251 -0.3325 -0.0108
 1115YOPC   GL115193   2.200   2.778   6.897  0.1092  0.1318  0.1528
 1115YOPC   GL215194   2.079   3.094   6.936 -0.0597 -0.0413  0.5411
 1115YOPC   C1A15195   2.308   2.792   7.373  0.1273 -0.1092  0.3611
 1115YOPC   D2A15196   2.259   2.553   7.700 -0.0122  0.3358  0.0356
 1115YOPC   C3A15197   2.054   2.620   8.078  0.2102  0.1849  0.0736
 1115YOPC   C4A15198   1.954   2.768   8.464 -0.0291  0.0232  0.1816
 1115YOPC   C1B15199   2.192   3.307   7.353 -0.1959  0.0725  0.1025
 1115YOPC   C2B15200   2.143   3.575   7.617 -0.2827  0.1638  0.1250
 1115YOPC   D3B15201   2.295   3.668   8.093  0.1144 -0.1831  0.1867
 1115YOPC   C4B15202   2.436   3.833   8.438 -0.1690 -0.4120  0.0214
 1116YOPC   NC315203   1.760   3.820   6.388 -0.0423 -0.1473 -0.0439
 1116YOPC   PO415204   2.159   3.527   6.597  0.0383 -0.1996 -0.0093
 1116YOPC   GL115205   2.535   3.386   6.791 -0.0358 -0.2561  0.1342
 1116YOPC   GL215206   2.772   3.563   7.018  0.0151 -0.0924 -0.3332
 1116YOPC   C1A15207   2.551   3.093   7.089 -0.1376  0.0419  0.0040
 1116YOPC   D2A15208   2.742   3.001   7.397 -0.1164  0.0050  0.2020
 1116YOPC   C3A15209   2.573   2.997   7.726  0.0375  0.0694 -0.1109
 1116YOPC   C4A15210   2.680   3.136   8.113 -0.0011  0.2500 -0.1220
 1116YOPC   C1B15211   2.641   3.625   7.391 -0.3090 -0.1343 -0.0545
 1116YOPC   C2B15212   2.601   3.523   7.795  0.1398  0.2370  0.2937
 1116YOPC   D3B15213   2.784   3.666   8.095  0.0604  0.2032  0.0237
 1116YOPC   C4B15214   3.014   3.810   8.399 -0.2354  0.2537 -0.3978
 1117YOPC   NC315215   0.071   1.541   6.320 -0.0302  0.1004 -0.0470
 1117YOPC   PO415216  -0.303   1.874   6.440 -0.3725 -0.3373  0.0380
 1117YOPC   GL115217  -0.333   1.864   6.895 -0.0933 -0.0257 -0.2263
 1117YOPC   GL215218  -0.588   1.859   7.027 -0.0162 -0.2201 -0.0052
 1117YOPC   C1A15219  -0.290   1.530   7.294  0.0962 -0.0275 -0.3676
 1117YOPC   D2A15220  -0.192   1.392   7.729 -0.0819 -0.1634 -0.0776
 1117YOPC   C3A15221  -0.055   1.032   7.897  0.2514 -0.0656 -0.1566
 1117YOPC   C4A15222  -0.071   0.962   8.299 -0.0387 -0.0043 -0.3176
 1117YOPC   C1B15223  -0.562   1.878   7.487  0.0464  0.0201  0.0898
 1117YOPC   C2B15224  -0.523   1.785   7.900  0.2037  0.0878 -0.1658
 1117YOPC   D3B15225  -0.739   1.550   8.153  0.1662  0.1520 -0.0209
 1117YOPC   C4B15226  -1.030   1.603   8.402 -0.1139 -0.1909 -0.1596
 1118YOPC   NC315227   4.027   8.579   5.805  0.1855 -0.0646  0.2111
 1118YOPC   PO415228   3.930   8.687   6.262 -0.3865  0.1288  0.1614
 1118YOPC   GL115229   4.083   8.649   6.612 -0.0609  0.1637 -0.2150
 1118YOPC   GL215230   4.144   8.997   6.877  0.0327  0.0965  0.0979
 1118YOPC   C1A15231   3.753   8.719   6.894 -0.0978 -0.0419  0.1428
 1118YOPC   D2A15232   3.586   8.868   7.376  0.1548 -0.0119 -0.1538
 1118YOPC   C3A15233   3.899   8.900   7.767 -0.1802 -0.0539 -0.3414
 1118YOPC   C4A15234   4.194   9.111   7.971  0.0290 -0.0704 -0.1095
 1118YOPC   C1B15235   4.018   9.166   7.290  0.3134  0.3031 -0.0183
 1118YOPC   C2B15236   4.232   9.520   7.613  0.2700 -0.1559  0.0275
 1118YOPC   D3B15237   4.502   9.825   7.433 -0.1427  0.0911 -0.0017
 1118YOPC   C4B15238   4.358  10.000   6.933 -0.2592  0.2418  0.1377
 1119YOPC   NC315239   8.435  10.565   6.202  0.0132 -0.1019 -0.1849
 1119YOPC   PO415240   8.739  10.290   6.028 -0.0321  0.2430 -0.1425
 1119YOPC   GL115241   8.884  10.465   6.417  0.1796  0.0800  0.1016
 1119YOPC   GL215242   8.652  10.257   6.597  0.1575 -0.1575 -0.1670
 1119YOPC   C1A15243   9.072  10.628   6.790  0.0309  0.0664 -0.0976
 1119YOPC   D2A15244   9.373  10.683   7.072  0.1118 -0.1097 -0.0742
 1119YOPC   C3A15245   9.720  10.673   7.418  0.2336  0.1650  0.1309
 1119YOPC   C4A15246   9.745  10.895   7.844  0.2564  0.0222  0.0330
 1119YOPC   C1B15247   8.708  10.325   7.014 -0.1613 -0.2538  0.1382
 1119YOPC   C2B15248   8.800  10.578   7.265 -0.2783 -0.1664  0.2445
 1119YOPC   D3B15249   8.847  10.578   7.743 -0.0809  0.0747  0.0772
 1119YOPC   C4B15250   8.690  10.833   7.997  0.0987  0.0990  0.2664
 1120YOPC   NC315251   9.662  17.081   5.585  0.0582 -0.0005  0.2504
 1120YOPC   PO415252   9.553  16.583   5.525 -0.0996 -0.0950 -0.0000
 1120YOPC   GL115253   9.499  16.566   5.897  0.1422  0.2044 -0.0982
 1120YOPC   GL215254   9.633  16.317   6.046  0.1636  0.0150  0.0005
 1120YOPC   C1A15255   9.267  16.717   6.154  0.2185  0.2859 -0.1556
 1120YOPC   D2A15256   9.086  16.739   6.524 -0.0312  0.0716  0.0147
 1120YOPC   C3A15257   8.699  16.790   6.452  0.1691 -0.1604 -0.0244
 1120YOPC   C4A15258   8.311  16.628   6.391 -0.2578 -0.1322  0.4762
 1120YOPC   C1B15259   9.658  16.632   6.444 -0.1619 -0.0898 -0.1626
 1120YOPC   C2B15260   9.789  16.793   6.783 -0.0409 -0.0136 -0.1485
 1120YOPC   D3B15261   9.829  16.681   7.230 -0.1506  0.0949  0.1444
 1120YOPC   C4B15262   9.969  16.765   7.616 -0.0781 -0.0424  0.0027
 1121YOPC   NC315263   3.887  13.226   5.984  0.1361 -0.0561 -0.1221
 1121YOPC   PO415264   3.563  12.854   5.977 -0.0935  0.1196 -0.1064
 1121YOPC   GL115265   3.544  12.921   6.376 -0.1672 -0.1983  0.0468
 1121YOPC   GL215266   3.277  12.966   6.502 -0.1366 -0.1045  0.0532
 1121YOPC   C1A15267   3.489  12.760   6.903 -0.0797 -0.0032 -0.2153
 1121YOPC   D2A15268   3.298  12.820   7.374 -0.0013 -0.1871 -0.1146
 1121YOPC   C3A15269   3.056  12.721   7.775 -0.1606  0.0680 -0.0140
 1121YOPC   C4A15270   3.228  12.650   8.213  0.1299 -0.1220 -0.0935
 1121YOPC   C1B15271   3.582  13.274   6.775  0.0228  0.0913 -0.0184
 1121YOPC   C2B15272   3.643  13.309   7.123 -0.2675  0.1628 -0.0837
 1121YOPC   D3B15273   3.510  13.572   7.453  0.2741  0.0007 -0.2379
 1121YOPC   C4B15274   3.658  13.597   7.870 -0.1365  0.0894  0.0142
 1122YOPC   NC315275   7.166   4.391   6.120  0.0621 -0.0680  0.0031
 1122YOPC   PO415276   6.618   4.427   6.297 -0.0655  0.2308  0.1487
 1122YOPC   GL115277   6.456   4.578   6.730 -0.1258  0.0418 -0.0122
 1122YOPC   GL215278   6.632   4.866   6.739  0.0913 -0.0957  0.3239
 1122YOPC   C1A15279   6.631   4.548   7.173  0.0339  0.2876  0.0454
 1122YOPC   D2A15280   6.627   4.497   7.640 -0.0955  0.1922  0.1397
 1122YOPC   C3A15281   6.624   4.488   8.128  0.0478 -0.1457 -0.1338
 1122YOPC   C4A15282   6.933   4.401   8.546  0.1773  0.2956  0.0644
 1122YOPC   C1B15283   6.559   5.056   7.059 -0.0791 -0.2981 -0.2400
 1122YOPC   C2B15284   6.718   5.030   7.556  0.2562 -0.2371 -0.1081
 1122YOPC   D3B15285   6.731   5.186   8.046  0.1169  0.1500 -0.3347
 1122YOPC   C4B15286   6.687   5.572   8.253 -0.0460 -0.0369 -0.2996
 1123YOPC   NC315287  16.502  10.038   5.846  0.1722  0.0778 -0.1773
 1123YOPC   PO415288  16.837   9.984   6.185 -0.1006 -0.0249 -0.0640
 1123YOPC   GL115289  16.809   9.957   6.550  0.2063 -0.0682  0.4574
 1123YOPC   GL215290  17.128  10.051   6.610 -0.0913  0.1060 -0.0337
 1123YOPC   C1A15291  16.645   9.888   6.993 -0.0584  0.2329 -0.0868
 1123YOPC   D2A15292  16.724   9.892   7.386 -0.1408  0.0872 -0.2068
 1123YOPC   C3A15293  16.435   9.861   7.795 -0.0406  0.0748  0.1580
 1123YOPC   C4A15294  16.365  10.021   8.191  0.2447 -0.0881  0.1173
 1123YOPC   C1B15295  17.161  10.238   6.868  0.0823 -0.0673 -0.0874
 1123YOPC   C2B15296  17.153  10.003   7.209  0.1198 -0.0030 -0.1892
 1123YOPC   D3B15297  17.106  10.120   7.651 -0.0036  0.1525 -0.1346
 1123YOPC   C4B15298  17.426  10.285   7.866 -0.1141 -0.0273 -0.0001
 1124YOPC   NC315299  14.855   9.100   6.062  0.0962  0.1851  0.2340
 1124YOPC   PO415300  14.541   9.432   6.061  0.2033  0.0769  0.0528
 1124YOPC   GL115301  14.747   9.349   6.487  0.1266  0.0426 -0.2384
 1124YOPC   GL215302  15.032   9.466   6.403 -0.1310  0.1878  0.1237
 1124YOPC   C1A15303  14.618   9.471   6.953  0.0750  0.0225 -0.1575
 1124YOPC   D2A15304  14.551   9.113   7.282 -0.0366 -0.2173  0.1279
 1124YOPC   C3A15305  14.608   9.220   7.748  0.2579 -0.3972  0.2463
 1124YOPC   C4A15306  14.973   9.445   8.001 -0.1156 -0.0015 -0.1211
 1124YOPC   C1B15307  15.047   9.248   6.856  0.0034 -0.3665 -0.1085
 1124YOPC   C2B15308  14.990   9.272   7.238 -0.0811 -0.3685 -0.1192
 1124YOPC   D3B15309  15.142   9.439   7.558 -0.2147  0.0137  0.1044
 1124YOPC   C4B15310  15.167   9.836   7.786 -0.1492 -0.0519 -0.1160
 1125YOPC   NC315311   7.538   5.313   6.260 -0.1207 -0.0410  0.1640
 1125YOPC   PO415312   7.419   4.884   6.238  0.0493  0.0296  0.0156
 1125YOPC   GL115313   7.609   4.910   6.674  0.1161 -0.2703  0.2032
 1125YOPC   GL215314   7.716   5.301   6.750  0.0591 -0.0412  0.0733
 1125YOPC   C1A15315   7.525   4.984   7.035 -0.0459  0.2901 -0.1434
 1125YOPC   D2A15316   7.610   4.631   7.327 -0.2145 -0.1238  0.0857
 1125YOPC   C3A15317   7.455   4.626   7.784 -0.2244 -0.0671  0.2545
 1125YOPC   C4A15318   7.472   4.623   8.219 -0.1659 -0.0326  0.2286
 1125YOPC   C1B15319   7.944   5.421   6.998 -0.1072  0.2045  0.3310
 1125YOPC   C2B15320   8.267   5.352   7.208 -0.1455  0.0801  0.0394
 1125YOPC   D3B15321   8.137   5.448   7.724  0.0595  0.0690  0.0264
 1125YOPC   C4B15322   8.110   5.317   8.170  0.1817 -0.2278 -0.1132
 1126YOPC   NC315323  16.840   6.083   6.616 -0.1726  0.1272  0.0503
 1126YOPC   PO415324  16.435   6.290   6.611  0.0201  0.1100  0.1816
 1126YOPC   GL115325  16.741   6.442   6.940  0.0317 -0.1646  0.0095
 1126YOPC   GL215326  16.841   6.182   7.213 -0.1742 -0.2486 -0.0956
 1126YOPC   C1A15327  16.733   6.619   7.409 -0.0778 -0.1800 -0.2306
 1126YOPC   D2A15328  16.896   6.947   7.618 -0.0236  0.6284 -0.1747
 1126YOPC   C3A15329  16.855   6.964   8.123 -0.2326 -0.0697 -0.0305
 1126YOPC   C4A15330  16.838   6.850   8.490 -0.3156 -0.4252 -0.1929
 1126YOPC   C1B15331  16.918   6.218   7.631  0.3645  0.0593  0.3476
 1126YOPC   C2B15332  17.125   6.521   7.824 -0.0070 -0.0704 -0.3598
 1126YOPC   D3B15333  17.233   6.595   8.321 -0.0378  0.0636 -0.2505
 1126YOPC   C4B15334  17.418   6.701   8.705 -0.1802 -0.1227 -0.2697
 1127YOPC   NC315335  13.209   3.519   6.537  0.2027  0.1948 -0.1407
 1127YOPC   PO415336  12.808   3.439   6.506 -0.3060  0.1994  0.1002
 1127YOPC   GL115337  12.687   3.022   6.594  0.1153  0.0335 -0.1361
 1127YOPC   GL215338  12.898   3.063   6.832 -0.4178  0.0470  0.0475
 1127YOPC   C1A15339  12.499   2.606   6.844 -0.0683 -0.2133 -0.0204
 1127YOPC   D2A15340  12.433   2.270   7.106 -0.0476 -0.4210 -0.0076
 1127YOPC   C3A15341  12.550   2.312   7.551 -0.0655 -0.2216  0.1049
 1127YOPC   C4A15342  12.437   2.399   7.921  0.1584  0.3192  0.2870
 1127YOPC   C1B15343  12.858   2.696   7.214  0.2516  0.0360  0.1084
 1127YOPC   C2B15344  12.979   2.634   7.624 -0.1348 -0.1212 -0.1955
 1127YOPC   D3B15345  12.932   2.484   8.025  0.2746  0.0526 -0.0536
 1127YOPC   C4B15346  12.995   2.441   8.374  0.0884  0.0852 -0.2604
 1128YOPC   NC315347  15.949   6.456   6.484  0.2625  0.2579 -0.0889
 1128YOPC   PO415348  15.573   6.611   6.469 -0.2040  0.0295  0.1178
 1128YOPC   GL115349  15.426   6.628   6.903  0.1904 -0.2460  0.0117
 1128YOPC   GL215350  15.295   6.952   6.759  0.0994  0.0172  0.3526
 1128YOPC   C1A15351  15.401   6.685   7.301  0.0930 -0.3003 -0.0251
 1128YOPC   D2A15352  15.643   6.887   7.658  0.4873  0.0938  0.2450
 1128YOPC   C3A15353  15.385   7.194   7.981  0.1041  0.0210  0.0826
 1128YOPC   C4A15354  15.320   7.622   8.160 -0.0375  0.1354 -0.4041
 1128YOPC   C1B15355  14.990   6.977   7.117  0.1090 -0.5640  0.0484
 1128YOPC   C2B15356  15.142   7.043   7.575 -0.1320  0.0332 -0.0348
 1128YOPC   D3B15357  14.880   7.032   7.998  0.2298 -0.3187 -0.0292
 1128YOPC   C4B15358  14.555   7.128   8.314 -0.4841 -0.0485 -0.0014
 1129YOPC   NC315359  13.502   2.235   5.837  0.0977 -0.2474 -0.0855
 1129YOPC   PO415360  13.837   2.215   6.109  0.2692  0.2130 -0.3328
 1129YOPC   GL115361  13.971   2.149   6.554 -0.0145  0.1532 -0.1451
 1129YOPC   GL215362  13.767   2.188   6.862  0.2506 -0.3840 -0.0682
 1129YOPC   C1A15363  14.206   1.910   6.854  0.3964  0.0992 -0.1075
 1129YOPC   D2A15364  14.224   1.817   7.250 -0.1252  0.1535  0.0221
 1129YOPC   C3A15365  14.426   1.527   7.518 -0.1786 -0.0878  0.0088
 1129YOPC   C4A15366  14.359   1.370   8.012 -0.2322 -0.1118  0.1086
 1129YOPC   C1B15367  13.811   2.085   7.312  0.0667 -0.1586  0.2407
 1129YOPC   C2B15368  13.885   1.915   7.598 -0.1670  0.1177 -0.2127
 1129YOPC   D3B15369  13.623   2.028   7.863  0.0810 -0.0740 -0.0136
 1129YOPC   C4B15370  13.338   1.992   8.195 -0.0916 -0.1018  0.3259
 1130YOPC   NC315371  17.531   0.615   5.293  0.1343 -0.1040  0.0846
 1130YOPC   PO415372  17.627   0.515   5.757  0.0129  0.1776  0.4033
 1130YOPC   GL115373  17.472   0.477   6.226 -0.2670 -0.0475 -0.0284
 1130YOPC   GL215374  17.301   0.750   6.448  0.1809  0.0582 -0.1349
 1130YOPC   C1A15375  17.573   0.155   6.562  0.0868 -0.1979 -0.0100
 1130YOPC   D2A15376  17.724   0.218   6.958  0.0854  0.0299 -0.0396
 1130YOPC   C3A15377  18.104   0.328   7.237  0.0345 -0.0740  0.0056
 1130YOPC   C4A15378  18.216   0.328   7.662  0.0221  0.1404 -0.1013
 1130YOPC   C1B15379  17.303   0.548   6.823 -0.0644 -0.3415 -0.3094
 1130YOPC   C2B15380  17.348   0.435   7.317 -0.2254 -0.0877 -0.3808
 1130YOPC   D3B15381  17.742   0.166   7.550  0.1482  0.2127 -0.1902
 1130YOPC   C4B15382  18.152  -0.144   7.518 -0.1110 -0.2204 -0.0119
 1131YOPC   NC315383   4.388   5.276   6.395 -0.1152 -0.0665 -0.1370
 1131YOPC   PO415384   4.826   5.140   6.276  0.1433 -0.0048  0.2600
 1131YOPC   GL115385   4.823   5.284   6.663 -0.0900  0.1163 -0.0757
 1131YOPC   GL215386   5.081   5.471   6.771 -0.1138 -0.1150 -0.1002
 1131YOPC   C1A15387   4.682   5.335   7.131 -0.0788  0.1359 -0.1590
 1131YOPC   D2A15388   4.325   5.626   7.236 -0.0416  0.2817 -0.2436
 1131YOPC   C3A15389   4.160   5.354   7.614 -0.0048 -0.1947 -0.0685
 1131YOPC   C4A15390   4.142   5.525   8.004 -0.2796  0.1266  0.0896
 1131YOPC   C1B15391   5.109   5.644   7.105 -0.0102 -0.2548  0.0239
 1131YOPC   C2B15392   5.040   5.617   7.453  0.1321 -0.3483  0.0705
 1131YOPC   D3B15393   4.878   5.880   7.752 -0.3110 -0.2001  0.0937
 1131YOPC   C4B15394   4.770   6.218   7.858  0.2270 -0.0926  0.0540
 1132YOPC   NC315395   0.760  12.919   6.186 -0.1693  0.0859  0.0300
 1132YOPC   PO415396   0.363  13.044   6.247 -0.1671  0.1251 -0.2150
 1132YOPC   GL115397   0.420  12.958   6.640  0.1986 -0.1229  0.2019
 1132YOPC   GL215398   0.701  12.949   6.703  0.0483  0.3065 -0.0270
 1132YOPC   C1A15399   0.446  12.975   7.135 -0.1572 -0.3589  0.1605
 1132YOPC   D2A15400   0.256  13.064   7.454  0.4166  0.0129 -0.2630
 1132YOPC   C3A15401   0.277  13.013   7.855 -0.1279  0.1543  0.3795
 1132YOPC   C4A15402   0.286  12.687   8.170 -0.0683  0.0712 -0.1810
 1132YOPC   C1B15403   0.981  12.968   6.992 -0.2761  0.0580 -0.3138
 1132YOPC   C2B15404   1.214  12.825   7.357 -0.0197  0.0362  0.0996
 1132YOPC   D3B15405   1.182  12.970   7.768  0.1767  0.2400  0.3367
 1132YOPC   C4B15406   1.309  13.025   8.146  0.0340  0.0725  0.1200
 1133YOPC   NC315407   4.850   4.693   6.051  0.1604 -0.3414 -0.1281
 1133YOPC   PO415408   5.153   4.563   6.368 -0.0148 -0.0209 -0.0845
 1133YOPC   GL115409   4.874   4.698   6.621 -0.0886 -0.1688  0.1292
 1133YOPC   GL215410   4.692   4.433   6.764  0.0431 -0.2860 -0.0179
 1133YOPC   C1A15411   4.993   4.976   7.003 -0.0271  0.3018  0.0151
 1133YOPC   D2A15412   5.150   5.131   7.179  0.0706 -0.3090 -0.1143
 1133YOPC   C3A15413   4.937   5.156   7.507  0.2662 -0.2353  0.2215
 1133YOPC   C4A15414   4.692   5.426   7.745  0.3727  0.1891  0.2396
 1133YOPC   C1B15415   4.721   4.361   7.231 -0.0560  0.1390 -0.0345
 1133YOPC   C2B15416   4.553   4.393   7.593 -0.0799  0.1372  0.0344
 1133YOPC   D3B15417   4.682   4.436   7.945 -0.0677 -0.5280 -0.0218
 1133YOPC   C4B15418   4.978   4.321   8.284  0.2163 -0.1999 -0.0715
 1134YOPC   NC315419  14.233  17.602   6.142  0.2163  0.0113  0.1169
 1134YOPC   PO415420  14.158  17.195   6.077 -0.6109  0.1689  0.1309
 1134YOPC   GL115421  14.029  17.251   6.431 -0.0803 -0.1292  0.0227
 1134YOPC   GL215422  13.661  17.372   6.370 -0.1408  0.2778  0.1012
 1134YOPC   C1A15423  13.985  17.111   6.775  0.1216 -0.0984  0.2505
 1134YOPC   D2A15424  13.716  16.884   7.138 -0.1608 -0.1406 -0.0453
 1134YOPC   C3A15425  13.661  16.981   7.614 -0.1816  0.0327  0.1188
 1134YOPC   C4A15426  13.675  17.130   8.057  0.0160 -0.2678  0.3132
 1134YOPC   C1B15427  13.725  17.523   6.787 -0.0594 -0.1682  0.0490
 1134YOPC   C2B15428  13.632  17.624   7.142  0.2570  0.0179 -0.3472
 1134YOPC   D3B15429  13.797  17.567   7.544  0.0671 -0.1504  0.1926
 1134YOPC   C4B15430  13.888  17.569   7.954 -0.0574 -0.1187  0.1904
 1135YOPC   NC315431   1.296  10.094   5.919  0.3084 -0.1113 -0.1367
 1135YOPC   PO415432   1.291  10.430   5.926  0.1840 -0.1175 -0.0049
 1135YOPC   GL115433   0.907  10.528   6.175  0.4354 -0.1571 -0.1360
 1135YOPC   GL215434   1.056  10.820   6.308  0.0591 -0.1493 -0.0307
 1135YOPC   C1A15435   0.754  10.434   6.436 -0.2139 -0.2209  0.2910
 1135YOPC   D2A15436   0.575  10.124   6.717  0.2580  0.0302  0.1452
 1135YOPC   C3A15437   0.850  10.185   6.914 -0.2542 -0.1122 -0.0042
 1135YOPC   C4A15438   0.871  10.477   7.203 -0.1972 -0.0038  0.2580
 1135YOPC   C1B15439   1.116  10.611   6.793 -0.1578 -0.0506 -0.0083
 1135YOPC   C2B15440   1.333  10.242   6.851  0.1465 -0.1582 -0.1286
 1135YOPC   D3B15441   1.230  10.088   7.206  0.0019 -0.1166 -0.0475
 1135YOPC   C4B15442   0.889  10.027   7.504  0.0660  0.2071 -0.1909
 1136YOPC   NC315443  15.825  16.407   5.562  0.0780 -0.0680 -0.0113
 1136YOPC   PO415444  16.163  16.415   5.821  0.0347  0.1916  0.2339
 1136YOPC   GL115445  16.255  16.528   6.303  0.0477  0.0558 -0.1460
 1136YOPC   GL215446  16.595  16.445   6.204  0.0728  0.1316 -0.1645
 1136YOPC   C1A15447  16.585  16.542   6.655 -0.3233  0.0097 -0.0118
 1136YOPC   D2A15448  16.485  16.501   7.153  0.0023 -0.1948  0.2965
 1136YOPC   C3A15449  16.421  16.751   7.570 -0.1087  0.2202  0.0041
 1136YOPC   C4A15450  16.320  16.905   8.016 -0.0920 -0.3097  0.0036
 1136YOPC   C1B15451  16.781  16.111   6.363 -0.0672 -0.1043  0.1705
 1136YOPC   C2B15452  17.246  15.931   6.587 -0.0982 -0.0022 -0.1054
 1136YOPC   D3B15453  17.349  16.051   6.967  0.1251  0.0702  0.1046
 1136YOPC   C4B15454  17.376  15.874   7.369 -0.2419 -0.1872  0.0628
 1137YOPC   NC315455  10.269   0.009   5.684 -0.0392  0.2001  0.2211
 1137YOPC   PO415456  10.307   0.407   5.637  0.1970  0.3398 -0.0867
 1137YOPC   GL115457  10.458   0.388   6.045 -0.0142 -0.0461  0.4276
 1137YOPC   GL215458  10.373   0.182   6.217 -0.1861  0.2715  0.0348
 1137YOPC   C1A15459  10.698   0.440   6.389  0.4305 -0.1525  0.1678
 1137YOPC   D2A15460  10.689   0.190   6.749  0.0039 -0.1654  0.0485
 1137YOPC   C3A15461  10.692   0.294   7.202  0.2841 -0.1150 -0.1569
 1137YOPC   C4A15462  10.681   0.464   7.658  0.2182  0.0860 -0.1071
 1137YOPC   C1B15463  10.189  -0.067   6.642  0.2414 -0.0153 -0.1523
 1137YOPC   C2B15464  10.197  -0.534   6.832 -0.3157  0.2752  0.0590
 1137YOPC   D3B15465  10.542  -0.759   6.736  0.1070  0.2081 -0.1161
 1137YOPC   C4B15466  10.633  -0.957   6.414  0.0452 -0.0037 -0.0666
 1138YOPC   NC315467   8.978  15.936   5.454  0.2155 -0.2135 -0.1789
 1138YOPC   PO415468   9.158  15.659   5.711 -0.1811  0.0813  0.0821
 1138YOPC   GL115469   8.959  15.894   6.003 -0.0752  0.4059  0.0746
 1138YOPC   GL215470   9.097  16.226   5.947 -0.0284 -0.1212 -0.4214
 1138YOPC   C1A15471   8.950  15.917   6.395 -0.0491  0.1082 -0.1008
 1138YOPC   D2A15472   9.003  15.620   6.751 -0.3183  0.1884  0.0719
 1138YOPC   C3A15473   8.907  15.360   7.108  0.0564  0.1410  0.0210
 1138YOPC   C4A15474   8.850  15.031   7.508 -0.2692 -0.1031  0.1517
 1138YOPC   C1B15475   9.270  16.268   6.458  0.0324 -0.0634 -0.2898
 1138YOPC   C2B15476   9.384  16.441   6.867 -0.1275  0.2712  0.0267
 1138YOPC   D3B15477   9.511  16.251   7.202  0.0772 -0.0753 -0.0653
 1138YOPC   C4B15478   9.671  16.083   7.574  0.0414  0.1226 -0.0518
 1139YOPC   NC315479   3.929   0.744   6.674 -0.0866  0.1601  0.0135
 1139YOPC   PO415480   4.165   0.394   6.769  0.1423  0.2445  0.2393
 1139YOPC   GL115481   3.934   0.441   7.108 -0.2309 -0.1657 -0.1221
 1139YOPC   GL215482   3.648   0.511   7.039 -0.2112  0.2947  0.3088
 1139YOPC   C1A15483   3.894   0.418   7.535  0.2744 -0.1424 -0.2041
 1139YOPC   D2A15484   4.066   0.409   7.984 -0.1691 -0.3430 -0.2657
 1139YOPC   C3A15485   4.068   0.743   8.323 -0.0747  0.0589  0.3339
 1139YOPC   C4A15486   3.992   1.028   8.707  0.0353  0.1177  0.0207
 1139YOPC   C1B15487   3.391   0.517   7.356  0.0632 -0.3088 -0.0525
 1139YOPC   C2B15488   3.080   0.671   7.502  0.0797  0.1244  0.2440
 1139YOPC   D3B15489   2.720   0.507   7.749  0.1098  0.1499  0.0983
 1139YOPC   C4B15490   2.553   0.229   8.013 -0.0434 -0.0558 -0.2926
 1140YOPC   NC315491   1.669   7.539   6.200  0.0657  0.0300 -0.0319
 1140YOPC   PO415492   2.057   7.478   5.998  0.0067  0.2050  0.0819
 1140YOPC   GL115493   2.101   7.678   6.393 -0.3409 -0.5026  0.4654
 1140YOPC   GL215494   1.880   7.834   6.521 -0.1222  0.2173 -0.0326
 1140YOPC   C1A15495   1.980   7.463   6.819  0.0906 -0.0099 -0.1453
 1140YOPC   D2A15496   1.742   7.510   7.219  0.3849  0.0825  0.5848
 1140YOPC   C3A15497   1.770   7.727   7.388  0.0042  0.0538 -0.0336
 1140YOPC   C4A15498   1.801   8.011   7.710  0.2505  0.0286  0.0771
 1140YOPC   C1B15499   1.956   8.017   6.933  0.2086 -0.2980 -0.1362
 1140YOPC   C2B15500   2.021   8.238   7.278 -0.0786  0.3267  0.1471
 1140YOPC   D3B15501   2.370   8.403   7.293 -0.1373 -0.1249 -0.1274
 1140YOPC   C4B15502   2.727   8.375   7.451 -0.2189 -0.1256 -0.1126
 1141YOPC   NC315503   9.050  11.531   5.423  0.1009 -0.2080 -0.1179
 1141YOPC   PO415504   9.506  11.284   5.507 -0.0002  0.0933  0.0308
 1141YOPC   GL115505   9.472  11.451   5.914 -0.2104  0.0345  0.0654
 1141YOPC   GL215506   9.667  11.678   6.113 -0.0132 -0.0340 -0.0885
 1141YOPC   C1A15507   9.283  11.414   6.322 -0.1460  0.0370  0.4182
 1141YOPC   D2A15508   8.950  11.233   6.690 -0.2333  0.2608  0.0566
 1141YOPC   C3A15509   9.144  11.099   7.084  0.2707  0.0261  0.0125
 1141YOPC   C4A15510   9.558  11.122   7.320 -0.1983 -0.4122  0.1404
 1141YOPC   C1B15511   9.764  11.414   6.453  0.0185 -0.2847  0.2561
 1141YOPC   C2B15512   9.961  11.182   6.762 -0.3221  0.0524  0.2083
 1141YOPC   D3B15513   9.958  10.980   7.065 -0.1677  0.0636  0.0655
 1141YOPC   C4B15514  10.096  11.040   7.518  0.0664  0.0820 -0.0981
 1142YOPC   NC315515   6.265  12.558   5.904 -0.0845  0.1084  0.2537
 1142YOPC   PO415516   6.221  12.754   6.176 -0.1911  0.0746  0.1746
 1142YOPC   GL115517   6.332  12.812   6.655  0.1227 -0.1413 -0.1250
 1142YOPC   GL215518   6.712  12.786   6.601  0.3419  0.2068  0.1020
 1142YOPC   C1A15519   6.202  12.776   7.042  0.1549  0.0236 -0.0644
 1142YOPC   D2A15520   5.888  12.892   7.274  0.2916  0.1195 -0.1339
 1142YOPC   C3A15521   6.087  12.949   7.721 -0.1072 -0.0869  0.1034
 1142YOPC   C4A15522   6.197  13.123   8.165  0.1308 -0.1768  0.0230
 1142YOPC   C1B15523   6.662  13.095   6.929 -0.0222  0.2697  0.1363
 1142YOPC   C2B15524   6.532  13.129   7.294 -0.0215  0.0433  0.3829
 1142YOPC   D3B15525   6.608  12.869   7.603 -0.1969  0.3741  0.0564
 1142YOPC   C4B15526   6.512  12.718   8.047 -0.0631 -0.1227 -0.0041
 1143YOPC   NC315527  13.988  10.441   5.321  0.1018 -0.1377  0.3062
 1143YOPC   PO415528  14.028  10.154   5.557 -0.0975 -0.0027  0.2275
 1143YOPC   GL115529  13.855  10.119   6.011 -0.1014 -0.2227  0.2186
 1143YOPC   GL215530  14.069  10.116   6.248 -0.1198 -0.1429 -0.0448
 1143YOPC   C1A15531  13.740  10.442   6.318  0.1508 -0.1166  0.4265
 1143YOPC   D2A15532  13.418  10.663   6.539  0.0003  0.0163 -0.0833
 1143YOPC   C3A15533  13.464  11.069   6.735  0.1634  0.0146 -0.1997
 1143YOPC   C4A15534  13.792  11.231   6.784  0.0522 -0.2205 -0.0943
 1143YOPC   C1B15535  13.933   9.863   6.616 -0.1194 -0.0570 -0.0708
 1143YOPC   C2B15536  13.978   9.907   6.973 -0.2691  0.1130 -0.1232
 1143YOPC   D3B15537  13.783   9.780   7.358  0.1322  0.0762  0.2009
 1143YOPC   C4B15538  13.674   9.451   7.479  0.1890  0.0330  0.2391
 1144ERGO   ROH15539   6.651  10.506   6.575  0.1983 -0.0412 -0.0330
 1144ERGO    R115540   6.821  10.563   6.793  0.1553 -0.2401  0.0547
 1144ERGO    R215541   6.769  10.767   6.973  0.3686 -0.0879 -0.0553
 1144ERGO    R315542   6.793  10.568   7.156 -0.0721 -0.0662  0.0380
 1144ERGO    R415543   6.845  10.814   7.307  0.3479 -0.0878 -0.0502
 1144ERGO    R515544   6.973  10.638   7.297  0.0229 -0.3458  0.0659
 1144ERGO    C115545   6.911  10.654   7.673 -0.0779 -0.0674  0.0403
 1144ERGO    C215546   6.927  10.744   7.948  0.0140  0.0438 -0.0609
 1145ERGO   ROH15547   8.804  14.743   9.723  0.0908 -0.1506  0.0864
 1145ERGO    R115548   8.764  14.684   9.449 -0.1248  0.0580  0.0690
 1145ERGO    R215549   8.587  14.825   9.290 -0.0216  0.3869  0.2358
 1145ERGO    R315550   8.805  14.858   9.132 -0.0521  0.1888  0.1495
 1145ERGO    R415551   8.577  14.887   8.951 -0.0928  0.2039  0.2033
 1145ERGO    R515552   8.746  14.752   8.926 -0.1687  0.1040  0.2257
 1145ERGO    C115553   8.776  14.955   8.604 -0.1627 -0.0885  0.1032
 1145ERGO    C215554   8.690  14.932   8.185  0.3317  0.1482 -0.2377
 1146ERGO   ROH15555  13.620   4.362   7.048  0.0849 -0.0245 -0.1086
 1146ERGO    R115556  13.721   4.175   7.235  0.1968  0.0703 -0.0731
 1146ERGO    R215557  13.782   4.244   7.496 -0.0708  0.1044 -0.0172
 1146ERGO    R315558  13.615   4.038   7.555  0.1498 -0.1234 -0.1703
 1146ERGO    R415559  13.702   4.138   7.816 -0.0772 -0.1209 -0.0919
 1146ERGO    R515560  13.714   3.933   7.745  0.1991 -0.0818 -0.1725
 1146ERGO    C115561  13.499   3.883   8.056  0.1263 -0.4660 -0.2792
 1146ERGO    C215562  13.423   3.771   8.387 -0.0361 -0.0531  0.1527
 1147ERGO   ROH15563   3.572  10.912   7.017 -0.1251 -0.2300  0.1599
 1147ERGO    R115564   3.498  11.097   7.217  0.1735 -0.0027  0.0662
 1147ERGO    R215565   3.343  11.027   7.435 -0.1455  0.4057 -0.0212
 1147ERGO    R315566   3.549  11.133   7.576  0.0218 -0.0441  0.0939
 1147ERGO    R415567   3.324  11.132   7.763 -0.1275  0.5220 -0.0562
 1147ERGO    R515568   3.448  11.304   7.710  0.3196  0.2324 -0.0144
 1147ERGO    C115569   3.507  11.294   8.087  0.0400  0.1674  0.0316
 1147ERGO    C215570   3.572  11.340   8.379  0.2348 -0.0466  0.0010
 1148ERGO   ROH15571   2.439   1.493   6.854  0.1346 -0.2222  0.1775
 1148ERGO    R115572   2.520   1.492   7.125  0.0754 -0.3071  0.1951
 1148ERGO    R215573   2.389   1.639   7.319  0.1717 -0.1867  0.1688
 1148ERGO    R315574   2.373   1.398   7.445 -0.0860 -0.1770  0.1614
 1148ERGO    R415575   2.353   1.595   7.661  0.1916 -0.1576  0.1748
 1148ERGO    R515576   2.494   1.429   7.649 -0.0037 -0.3260  0.1380
 1148ERGO    C115577   2.318   1.344   7.977 -0.0386 -0.1316  0.1714
 1148ERGO    C215578   2.220   1.183   8.341  0.0295  0.1284 -0.0854
 1149ERGO   ROH15579   0.548   0.650   6.681 -0.1201  0.0810  0.0599
 1149ERGO    R115580   0.638   0.773   6.920 -0.3277  0.1213  0.1192
 1149ERGO    R215581   0.502   0.750   7.159 -0.2628 -0.2779  0.1257
 1149ERGO    R315582   0.743   0.663   7.251 -0.0777  0.1286  0.0435
 1149ERGO    R415583   0.595   0.742   7.492 -0.2471 -0.3980  0.1189
 1149ERGO    R515584   0.794   0.811   7.432 -0.3815  0.0680  0.1813
 1149ERGO    C115585   0.876   0.656   7.771 -0.0642 -0.0864  0.0377
 1149ERGO    C215586   0.932   0.618   8.151  0.2630 -0.0743  0.1132
 1150ERGO   ROH15587  14.497  11.255   6.187  0.1130  0.0202 -0.1463
 1150ERGO    R115588  14.476  11.359   6.449  0.1563  0.0410 -0.1508
 1150ERGO    R215589  14.274  11.286   6.623  0.0286  0.2551 -0.2039
 1150ERGO    R315590  14.481  11.226   6.788 -0.0754  0.0286 -0.1508
 1150ERGO    R415591  14.266  11.315   6.967 -0.0621  0.1474 -0.1961
 1150ERGO    R515592  14.470  11.393   6.960  0.0056 -0.0184 -0.1003
 1150ERGO    C115593  14.457  11.277   7.323 -0.2125 -0.1278 -0.1417
 1150ERGO    C215594  14.578  11.288   7.715  0.3443  0.0201  0.2195
 1151ERGO   ROH15595  14.651  14.817   6.488  0.2159 -0.0492  0.0096
 1151ERGO    R115596  14.568  14.666   6.713  0.1537  0.0389  0.0455
 1151ERGO    R215597  14.682  14.424   6.780 -0.0096 -0.0354  0.0488
 1151ERGO    R315598  14.720  14.545   7.021  0.1306 -0.0356  0.0287
 1151ERGO    R415599  14.726  14.258   7.080 -0.1304 -0.0415  0.0641
 1151ERGO    R515600  14.600  14.407   7.176  0.0166  0.0927  0.0598
 1151ERGO    C115601  14.787  14.275   7.480 -0.0691 -0.0454  0.0542
 1151ERGO    C215602  14.772  14.001   7.711  0.3601  0.0577 -0.3027
 1152ERGO   ROH15603   4.630  14.002   6.186 -0.1187  0.3939  0.0153
 1152ERGO    R115604   4.568  14.075   6.452 -0.3719  0.2085  0.0116
 1152ERGO    R215605   4.341  13.984   6.583 -0.1593 -0.4431 -0.0299
 1152ERGO    R315606   4.521  13.902   6.769  0.0558  0.0423 -0.0111
 1152ERGO    R415607   4.266  13.905   6.911  0.1232 -0.1725  0.1048
 1152ERGO    R515608   4.449  14.005   6.972  0.0058  0.1740 -0.0977
 1152ERGO    C115609   4.392  13.782   7.276  0.4895  0.4408  0.2009
 1152ERGO    C215610   4.499  13.743   7.554  0.4107 -0.0717  0.0550
 1153ERGO   ROH15611  16.025   2.416   6.675 -0.0205 -0.0943 -0.2178
 1153ERGO    R115612  16.087   2.446   6.950  0.0061  0.1457 -0.2494
 1153ERGO    R215613  16.027   2.675   7.092 -0.4059  0.0916 -0.3360
 1153ERGO    R315614  15.901   2.501   7.258 -0.0132 -0.0896 -0.2150
 1153ERGO    R415615  15.952   2.738   7.423 -0.5287  0.1575 -0.3744
 1153ERGO    R515616  16.009   2.533   7.470 -0.0615  0.2994 -0.2364
 1153ERGO    C115617  15.790   2.611   7.772 -0.2314  0.0257 -0.2832
 1153ERGO    C215618  15.657   2.548   8.041 -0.2013  0.0423  0.2063
 1154ERGO   ROH15619  15.746  17.565   6.310 -0.0491  0.3209 -0.0344
 1154ERGO    R115620  15.742  17.673   6.571 -0.2472  0.3198 -0.0352
 1154ERGO    R215621  15.535  17.627   6.748 -0.2071  0.0084 -0.0631
 1154ERGO    R315622  15.736  17.543   6.911 -0.0974  0.3095 -0.0358
 1154ERGO    R415623  15.511  17.598   7.092 -0.2302 -0.0854 -0.0723
 1154ERGO    R515624  15.714  17.678   7.108 -0.3598  0.2458 -0.0182
 1154ERGO    C115625  15.686  17.501   7.445 -0.1405  0.1428 -0.0520
 1154ERGO    C215626  15.792  17.466   7.801 -0.2130  0.0165 -0.5325
 1155ERGO   ROH15627   5.597   8.521   6.874  0.0879  0.0753  0.0508
 1155ERGO    R115628   5.645   8.530   7.152  0.0975  0.1218  0.0469
 1155ERGO    R215629   5.568   8.745   7.309 -0.2012  0.0010  0.0681
 1155ERGO    R315630   5.443   8.552   7.454  0.0872 -0.1948  0.0674
 1155ERGO    R415631   5.509   8.761   7.649 -0.2520 -0.0708  0.0635
 1155ERGO    R515632   5.560   8.550   7.663  0.0818  0.0018  0.0776
 1155ERGO    C115633   5.357   8.590   7.984 -0.0109 -0.2964  0.0602
 1155ERGO    C215634   5.162   8.750   8.280  0.2028 -0.0725  0.4857
 1156ERGO   ROH15635   8.897   3.602   7.018 -0.1082  0.1117  0.0077
 1156ERGO    R115636   8.728   3.696   7.225 -0.1451  0.0154  0.0247
 1156ERGO    R215637   8.583   3.527   7.388 -0.1662 -0.0677 -0.0616
 1156ERGO    R315638   8.710   3.663   7.587 -0.1914 -0.1448  0.0050
 1156ERGO    R415639   8.471   3.550   7.714 -0.2893 -0.0196 -0.1082
 1156ERGO    R515640   8.532   3.759   7.715 -0.1873 -0.0618 -0.0674
 1156ERGO    C115641   8.525   3.691   8.091 -0.3845 -0.0640 -0.0728
 1156ERGO    C215642   8.683   3.590   8.463 -0.0604 -0.2435 -0.0172
 1157ERGO   ROH15643  11.061  11.531   6.029  0.0696 -0.0241  0.0465
 1157ERGO    R115644  10.974  11.596   6.290  0.0164  0.0525  0.0105
 1157ERGO    R215645  10.888  11.404   6.470 -0.0349  0.1052  0.0449
 1157ERGO    R315646  11.078  11.516   6.630 -0.0614  0.1377  0.0540
 1157ERGO    R415647  10.880  11.405   6.816  0.0680 -0.0944  0.0495
 1157ERGO    R515648  10.954  11.610   6.812 -0.0672 -0.0454  0.1443
 1157ERGO    C115649  11.053  11.510   7.167  0.1030 -0.1802  0.0607
 1157ERGO    C215650  11.004  11.643   7.537  0.0604 -0.0033  0.0597
 1158ERGO   ROH15651  11.070  13.972   9.611  0.0601 -0.1906  0.1442
 1158ERGO    R115652  11.004  14.002   9.337 -0.1290 -0.2371  0.1816
 1158ERGO    R215653  11.196  14.043   9.141 -0.2905  0.2038  0.0965
 1158ERGO    R315654  11.079  13.826   9.027  0.0814 -0.0050  0.1002
 1158ERGO    R415655  11.199  13.972   8.803 -0.2579  0.2441  0.0890
 1158ERGO    R515656  10.992  13.907   8.820 -0.1323 -0.1467  0.1382
 1158ERGO    C115657  11.091  13.727   8.499  0.1104  0.0717  0.0881
 1158ERGO    C215658  11.104  13.687   8.188 -0.1230 -0.3228  0.1986
 1159ERGO   ROH15659  14.748   3.467   6.738 -0.0900  0.0965  0.0411
 1159ERGO    R115660  14.844   3.582   6.978 -0.1557  0.3162 -0.0340
 1159ERGO    R215661  14.683   3.734   7.145 -0.4045 -0.1052  0.1311
 1159ERGO    R315662  14.766   3.556   7.333  0.2300  0.0668  0.0382
 1159ERGO    R415663  14.649   3.776   7.486 -0.2406 -0.2540  0.1665
 1159ERGO    R515664  14.848   3.692   7.512  0.0215  0.2632 -0.0108
 1159ERGO    C115665  14.706   3.634   7.861  0.4506 -0.1791  0.0998
 1159ERGO    C215666  14.474   3.747   8.111 -0.2773  0.2227 -0.1258
 1160ERGO   ROH15667   1.702  17.203   6.462 -0.1955  0.2224 -0.1597
 1160ERGO    R115668   1.679  17.082   6.717 -0.1280  0.1349 -0.1950
 1160ERGO    R215669   1.869  17.114   6.915 -0.0999  0.1056 -0.2194
 1160ERGO    R315670   1.656  17.195   7.062 -0.0884  0.0174 -0.1529
 1160ERGO    R415671   1.867  17.144   7.259  0.0792  0.3497 -0.2371
 1160ERGO    R515672   1.666  17.060   7.260  0.1521  0.1650 -0.0595
 1160ERGO    C115673   1.666  17.238   7.598  0.1942  0.4088 -0.1851
 1160ERGO    C215674   1.445  17.391   7.886  0.0958 -0.1427  0.1277
 1161ERGO   ROH15675   7.924   2.392   6.783 -0.0421  0.1554  0.0463
 1161ERGO    R115676   7.750   2.322   6.996  0.0070  0.0281  0.0464
 1161ERGO    R215677   7.842   2.217   7.235  0.0867  0.1169  0.0586
 1161ERGO    R315678   7.703   2.424   7.342 -0.0841  0.0135  0.0378
 1161ERGO    R415679   7.743   2.240   7.565 -0.0761 -0.0044  0.0191
 1161ERGO    R515680   7.553   2.322   7.498 -0.0938 -0.1042 -0.0491
 1161ERGO    C115681   7.555   2.448   7.858 -0.3311 -0.1721 -0.0235
 1161ERGO    C215682   7.487   2.723   8.136  0.0614  0.0250 -0.0037
 1162ERGO   ROH15683  10.742   6.469   7.089  0.1004 -0.0211  0.1069
 1162ERGO    R115684  10.789   6.546   7.357  0.0966  0.0840  0.0785
 1162ERGO    R215685  10.926   6.386   7.536 -0.0111  0.0987  0.1788
 1162ERGO    R315686  11.079   6.608   7.568  0.0955  0.0373  0.0930
 1162ERGO    R415687  11.094   6.470   7.826 -0.0545  0.1826  0.1791
 1162ERGO    R515688  11.037   6.678   7.793  0.0645  0.1929  0.0389
 1162ERGO    C115689  11.336   6.728   8.024  0.0204  0.1739  0.0986
 1162ERGO    C215690  11.578   6.847   8.290 -0.2384 -0.2401  0.0276
 1163ERGO   ROH15691  11.484   4.665   7.397 -0.0509 -0.0004  0.0842
 1163ERGO    R115692  11.256   4.612   7.556 -0.1222  0.2132  0.0536
 1163ERGO    R215693  11.273   4.499   7.807 -0.2719  0.0067 -0.0329
 1163ERGO    R315694  11.129   4.718   7.880  0.0410  0.1627  0.1366
 1163ERGO    R415695  11.034   4.504   8.057 -0.4154  0.0893 -0.1688
 1163ERGO    R515696  10.911   4.633   7.930 -0.1370  0.4486 -0.0999
 1163ERGO    C115697  10.760   4.713   8.271 -0.2051  0.2839 -0.0887
 1163ERGO    C215698  10.432   4.689   8.515 -0.0662  0.0656 -0.0694
 1164ERGO   ROH15699   2.056  12.058   6.725  0.0603  0.1742  0.0671
 1164ERGO    R115700   2.061  12.135   6.998  0.1855  0.1979  0.0581
 1164ERGO    R215701   1.847  12.259   7.121  0.2382  0.1935  0.1486
 1164ERGO    R315702   1.873  12.055   7.299  0.3352  0.2126  0.1575
 1164ERGO    R415703   1.668  12.229   7.415 -0.0487 -0.0782 -0.0468
 1164ERGO    R515704   1.850  12.159   7.513 -0.0477  0.1702  0.1464
 1164ERGO    C115705   1.589  12.020   7.754 -0.1247 -0.2186 -0.1521
 1164ERGO    C215706   1.389  12.056   8.106  0.4664  0.0143  0.0309
 1165ERGO   ROH15707   7.141   2.082  10.451 -0.1222 -0.0840  0.0033
 1165ERGO    R115708   7.069   1.946  10.213 -0.1182  0.0019 -0.0468
 1165ERGO    R215709   6.904   2.058  10.022  0.0561  0.1524 -0.1062
 1165ERGO    R315710   7.110   1.998   9.856  0.0848  0.0147 -0.0234
 1165ERGO    R415711   6.871   1.975   9.688  0.1288  0.1700 -0.1184
 1165ERGO    R515712   7.025   1.824   9.715  0.0217  0.0661 -0.0542
 1165ERGO    C115713   7.047   1.871   9.337  0.1980  0.0510 -0.0477
 1165ERGO    C215714   7.157   1.970   9.021  0.2994  0.0071  0.2166
 1166ERGO   ROH15715  14.508  17.348   6.498  0.1013 -0.0438  0.0528
 1166ERGO    R115716  14.466  17.307   6.774  0.0036  0.0328  0.0500
 1166ERGO    R215717  14.637  17.155   6.930 -0.0982  0.0040  0.1343
 1166ERGO    R315718  14.645  17.379   7.083 -0.0611  0.0352  0.0873
 1166ERGO    R415719  14.727  17.163   7.263 -0.1387  0.0521  0.1441
 1166ERGO    R515720  14.567  17.307   7.298 -0.1070  0.1002  0.0930
 1166ERGO    C115721  14.786  17.379   7.602 -0.1274  0.1092  0.1058
 1166ERGO    C215722  14.877  17.344   7.910 -0.3302  0.1507 -0.2926
 1167ERGO   ROH15723  16.834  14.087  10.190 -0.1938 -0.2805  0.1523
 1167ERGO    R115724  16.742  13.958   9.955 -0.1937 -0.1550  0.0824
 1167ERGO    R215725  16.653  14.098   9.734  0.0262 -0.0330  0.0690
 1167ERGO    R315726  16.839  13.947   9.605 -0.0393 -0.1627  0.1244
 1167ERGO    R415727  16.650  14.027   9.396  0.0075 -0.1336  0.0900
 1167ERGO    R515728  16.713  13.824   9.442 -0.0923 -0.1517  0.1557
 1167ERGO    C115729  16.823  13.844   9.078 -0.0646 -0.3138  0.1544
 1167ERGO    C215730  16.817  13.718   8.728 -0.0825  0.0709  0.0087
 1168ERGO   ROH15731   8.453  13.055   9.745 -0.1115 -0.0131  0.1188
 1168ERGO    R115732   8.314  12.968   9.514 -0.0391 -0.0642  0.0936
 1168ERGO    R215733   8.243  13.139   9.309 -0.0733 -0.0874  0.0839
 1168ERGO    R315734   8.376  12.958   9.156  0.0250 -0.0324  0.1043
 1168ERGO    R415735   8.199  13.098   8.969  0.0964 -0.0151  0.0523
 1168ERGO    R515736   8.213  12.882   8.998  0.1123 -0.0187  0.0079
 1168ERGO    C115737   8.298  12.904   8.627  0.2876  0.0787  0.0530
 1168ERGO    C215738   8.334  13.110   8.356  0.0452  0.1868 -0.0026
 1169ERGO   ROH15739  14.022   8.698   6.704 -0.1652 -0.0630  0.1496
 1169ERGO    R115740  14.184   8.558   6.888 -0.3481 -0.2436  0.1765
 1169ERGO    R215741  14.384   8.680   7.034  0.1542 -0.5545 -0.2086
 1169ERGO    R315742  14.251   8.572   7.245  0.0561  0.1027  0.0932
 1169ERGO    R415743  14.525   8.611   7.342  0.1864 -0.2508 -0.1508
 1169ERGO    R515744  14.411   8.425   7.347 -0.1788 -0.0253  0.2764
 1169ERGO    C115745  14.483   8.468   7.719  0.1130  0.5429  0.1663
 1169ERGO    C215746  14.445   8.318   8.124  0.1014 -0.1887  0.1576
 1170ERGO   ROH15747   6.211   4.189   6.533 -0.1243 -0.0101  0.0672
 1170ERGO    R115748   6.157   4.136   6.806  0.0125 -0.1527  0.0684
 1170ERGO    R215749   6.357   4.113   6.995  0.0947  0.0661  0.0121
 1170ERGO    R315750   6.213   4.305   7.123 -0.1332 -0.1550  0.0959
 1170ERGO    R415751   6.305   4.126   7.337  0.1425 -0.0995  0.0267
 1170ERGO    R515752   6.099   4.187   7.298  0.0520 -0.3554  0.0856
 1170ERGO    C115753   6.140   4.314   7.656 -0.0437 -0.4036  0.1138
 1170ERGO    C215754   6.057   4.316   8.033  0.2134  0.2078  0.3839
 1171ERGO   ROH15755   0.591   2.862   6.625  0.0550  0.3193 -0.0497
 1171ERGO    R115756   0.690   2.776   6.876  0.0735  0.0866 -0.1342
 1171ERGO    R215757   0.920   2.881   6.990  0.0636  0.0036 -0.0407
 1171ERGO    R315758   0.755   2.928   7.200  0.0675 -0.2197  0.0152
 1171ERGO    R415759   1.020   2.900   7.320  0.1596  0.1508 -0.0771
 1171ERGO    R515760   0.841   2.790   7.376  0.3251 -0.1008 -0.0103
 1171ERGO    C115761   0.924   2.955   7.710  0.2191  0.0269 -0.0459
 1171ERGO    C215762   0.856   3.094   8.047 -0.2038  0.4066  0.1820
 1172ERGO   ROH15763   7.807  16.841  10.229  0.0915  0.5476  0.2099
 1172ERGO    R115764   7.716  16.847   9.961  0.2187  0.2521  0.1558
 1172ERGO    R215765   7.478  16.967   9.887  0.1444 -0.0149 -0.0624
 1172ERGO    R315766   7.637  17.102   9.714  0.1132 -0.0116 -0.0878
 1172ERGO    R415767   7.395  17.039   9.560 -0.0339  0.2415  0.0364
 1172ERGO    R515768   7.601  16.993   9.503 -0.1018  0.1415 -0.1323
 1172ERGO    C115769   7.497  17.208   9.206 -0.1671  0.3937  0.0699
 1172ERGO    C215770   7.507  17.282   8.856 -0.2584  0.3228  0.1062
 1173ERGO   ROH15771  15.828   6.852   6.835 -0.3751  0.0329 -0.0258
 1173ERGO    R115772  15.750   7.093   6.961 -0.2120  0.1006 -0.0506
 1173ERGO    R215773  15.559   7.101   7.160 -0.2257  0.2542 -0.0677
 1173ERGO    R315774  15.755   7.229   7.299 -0.1441  0.1214 -0.0602
 1173ERGO    R415775  15.506   7.324   7.419 -0.0905  0.4077 -0.1700
 1173ERGO    R515776  15.667   7.447   7.340  0.0519  0.2239 -0.1713
 1173ERGO    C115777  15.659   7.573   7.700  0.0650  0.3725 -0.2224
 1173ERGO    C215778  15.772   7.650   8.013  0.2133 -0.2521 -0.2394
 1174ERGO   ROH15779   8.935  10.826  10.161  0.0470 -0.3523  0.1368
 1174ERGO    R115780   9.072  10.886   9.921  0.0094 -0.1238  0.1694
 1174ERGO    R215781   9.191  10.691   9.764  0.1492  0.0406  0.0592
 1174ERGO    R315782   9.038  10.802   9.569  0.0700  0.0440  0.1239
 1174ERGO    R415783   9.224  10.627   9.426  0.0635  0.1239  0.0353
 1174ERGO    R515784   9.189  10.838   9.387  0.0039  0.1181  0.0886
 1174ERGO    C115785   9.099  10.694   9.046 -0.0606  0.1755  0.0822
 1174ERGO    C215786   9.144  10.724   8.778  0.1323  0.4918 -0.0500
 1175ERGO   ROH15787  16.428  12.038  10.395  0.0365  0.1187  0.0178
 1175ERGO    R115788  16.292  11.963  10.158  0.1390 -0.0219  0.0024
 1175ERGO    R215789  16.183  12.148   9.984 -0.2383 -0.1357  0.1118
 1175ERGO    R315790  16.334  12.018   9.800 -0.0141  0.2374  0.0208
 1175ERGO    R415791  16.143  12.173   9.642 -0.4665 -0.1725  0.1337
 1175ERGO    R515792  16.180  11.959   9.627  0.0272 -0.0977  0.0885
 1175ERGO    C115793  16.263  12.065   9.270 -0.3891  0.1564  0.0610
 1175ERGO    C215794  16.333  12.058   8.878  0.1573 -0.1037 -0.0914
 1176ERGO   ROH15795   5.761  15.720  10.271  0.1883 -0.1546  0.1488
 1176ERGO    R115796   5.704  15.593  10.025  0.0221 -0.1247  0.1715
 1176ERGO    R215797   5.492  15.667   9.864  0.1034  0.1054  0.1746
 1176ERGO    R315798   5.686  15.690   9.675  0.1206 -0.1567  0.1564
 1176ERGO    R415799   5.435  15.749   9.533  0.1964  0.4200  0.2321
 1176ERGO    R515800   5.585  15.601   9.476 -0.0958  0.1545  0.1165
 1176ERGO    C115801   5.584  15.818   9.162  0.2667  0.3572  0.2485
 1176ERGO    C215802   5.599  15.780   8.761  0.2435  0.1940 -0.2514
 1177ERGO   ROH15803   6.322  13.189  10.029  0.0068  0.1442  0.0741
 1177ERGO    R115804   6.421  13.191   9.764 -0.0292  0.1571  0.0610
 1177ERGO    R215805   6.350  13.000   9.577 -0.0438  0.1592  0.0666
 1177ERGO    R315806   6.281  13.217   9.430 -0.0751  0.1590  0.0799
 1177ERGO    R415807   6.234  12.989   9.252 -0.0606  0.1594  0.0722
 1177ERGO    R515808   6.355  13.165   9.208 -0.0808  0.1752  0.0730
 1177ERGO    C115809   6.102  13.187   8.924 -0.0998  0.1593  0.0880
 1177ERGO    C215810   5.992  13.193   8.602 -0.0618 -0.1641 -0.0025
 1178ERGO   ROH15811   2.443   9.758   6.646 -0.1083  0.1440 -0.1522
 1178ERGO    R115812   2.434   9.797   6.926  0.1431  0.1385 -0.1418
 1178ERGO    R215813   2.531  10.025   7.048 -0.0537  0.2863 -0.2647
 1178ERGO    R315814   2.282  10.036   7.154  0.0402 -0.0734  0.0170
 1178ERGO    R415815   2.453  10.161   7.356  0.0880  0.2597 -0.2151
 1178ERGO    R515816   2.315   9.997   7.388  0.3741  0.0445 -0.0019
 1178ERGO    C115817   2.174  10.251   7.635  0.2587 -0.0934  0.0782
 1178ERGO    C215818   2.035  10.243   7.903 -0.2208 -0.0486 -0.0865
 1179ERGO   ROH15819  15.330   6.165   7.022  0.0640 -0.0503  0.0301
 1179ERGO    R115820  15.454   6.035   7.240  0.0004 -0.1529  0.0069
 1179ERGO    R215821  15.448   6.136   7.497  0.2370 -0.0799 -0.0085
 1179ERGO    R315822  15.349   5.890   7.557 -0.0451  0.0542  0.0863
 1179ERGO    R415823  15.443   5.998   7.814  0.4835 -0.1325 -0.0261
 1179ERGO    R515824  15.498   5.806   7.726  0.0719 -0.1996 -0.1420
 1179ERGO    C115825  15.347   5.687   8.055  0.3622 -0.0373  0.0526
 1179ERGO    C215826  15.418   5.465   8.238 -0.1000  0.0081  0.1701
 1180ERGO   ROH15827   3.537  15.229   6.513 -0.0283  0.2639  0.1673
 1180ERGO    R115828   3.662  15.242   6.767  0.0720  0.0852  0.1284
 1180ERGO    R215829   3.520  15.275   7.002  0.1825  0.1711  0.1814
 1180ERGO    R315830   3.654  15.051   7.076 -0.0079  0.0216  0.0881
 1180ERGO    R415831   3.508  15.133   7.316  0.1888  0.1460  0.1711
 1180ERGO    R515832   3.722  15.094   7.302  0.1469 -0.0717  0.0628
 1180ERGO    C115833   3.627  14.840   7.570  0.0136 -0.0090  0.0776
 1180ERGO    C215834   3.644  14.730   7.938 -0.1747 -0.0104 -0.2499
 1181ERGO   ROH15835  11.158  17.285   6.050  0.1750 -0.0472  0.0886
 1181ERGO    R115836  11.045  17.156   6.275  0.0144  0.0309  0.0543
 1181ERGO    R215837  11.195  17.007   6.453 -0.1504 -0.1081  0.0795
 1181ERGO    R315838  11.082  17.173   6.636 -0.0549 -0.0271  0.0652
 1181ERGO    R415839  11.220  16.968   6.795 -0.2740 -0.1749  0.0805
 1181ERGO    R515840  11.010  17.027   6.812 -0.2319  0.0105  0.0290
 1181ERGO    C115841  11.128  17.101   7.167 -0.2563 -0.1378  0.0678
 1181ERGO    C215842  11.119  17.174   7.559  0.0094  0.0046 -0.2011
 1182ERGO   ROH15843  12.923   3.545   6.992 -0.1127  0.1268  0.1001
 1182ERGO    R115844  12.922   3.504   7.272  0.0518  0.1081  0.0986
 1182ERGO    R215845  12.813   3.280   7.390 -0.0813  0.2062  0.1579
 1182ERGO    R315846  13.058   3.260   7.505 -0.0144 -0.0420 -0.0168
 1182ERGO    R415847  12.880   3.109   7.682 -0.0806  0.2484  0.1828
 1182ERGO    R515848  13.014   3.271   7.740  0.1660  0.1166  0.0153
 1182ERGO    C115849  13.150   2.991   7.961 -0.0173  0.0398  0.0333
 1182ERGO    C215850  13.252   2.888   8.291  0.3782  0.1223 -0.0936
 1183ERGO   ROH15851  15.028   1.682   6.507 -0.0812 -0.2111  0.0804
 1183ERGO    R115852  15.082   1.524   6.736  0.0121 -0.1837  0.0782
 1183ERGO    R215853  15.272   1.324   6.737  0.1096 -0.0942  0.0659
 1183ERGO    R315854  15.367   1.460   6.953  0.0599 -0.0437  0.0559
 1183ERGO    R415855  15.484   1.192   6.977  0.1466  0.0029  0.0875
 1183ERGO    R515856  15.369   1.298   7.129  0.1098 -0.0219  0.0721
 1183ERGO    C115857  15.696   1.243   7.318  0.1214  0.1069  0.0906
 1183ERGO    C215858  16.016   1.199   7.283  0.0891  0.0958  0.1623
 1184ERGO   ROH15859   8.280  14.539   6.298  0.2314  0.0255  0.0886
 1184ERGO    R115860   8.117  14.557   6.529  0.1718 -0.0201  0.0509
 1184ERGO    R215861   7.951  14.351   6.610  0.0085  0.0302 -0.1344
 1184ERGO    R315862   8.086  14.379   6.845 -0.0398 -0.2116 -0.0758
 1184ERGO    R415863   7.807  14.332   6.924 -0.1667  0.3251 -0.1936
 1184ERGO    R515864   7.934  14.498   6.987  0.1240  0.0896 -0.1505
 1184ERGO    C115865   7.849  14.348   7.327 -0.3139  0.2698 -0.1730
 1184ERGO    C215866   7.879  14.337   7.687  0.0118 -0.0062  0.1737
 1185ERGO   ROH15867   7.859  17.572   6.480  0.0747 -0.0017 -0.0225
 1185ERGO    R115868   7.759  17.426   6.701  0.0682 -0.0392 -0.0498
 1185ERGO    R215869   7.913  17.244   6.840  0.1095  0.0419  0.0139
 1185ERGO    R315870   7.839  17.394   7.055 -0.0388  0.0189 -0.0203
 1185ERGO    R415871   7.933  17.142   7.170 -0.0522  0.0352  0.0226
 1185ERGO    R515872   7.741  17.237   7.207 -0.0912 -0.0053 -0.0798
 1185ERGO    C115873   7.876  17.224   7.563 -0.2857  0.0096 -0.0044
 1185ERGO    C215874   8.015  17.022   7.805 -0.3962  0.1079 -0.0287
 1186ERGO   ROH15875  15.965   5.704   7.028 -0.3608  0.3604  0.1319
 1186ERGO    R115876  15.995   5.870   7.255 -0.4154  0.2550  0.2168
 1186ERGO    R215877  15.846   5.836   7.485 -0.1065 -0.1844  0.3626
 1186ERGO    R315878  16.090   5.827   7.604  0.0493  0.1742  0.0868
 1186ERGO    R415879  15.927   5.991   7.783 -0.0775 -0.2722  0.4009
 1186ERGO    R515880  16.119   6.046   7.697 -0.2631  0.1618  0.2284
 1186ERGO    C115881  16.204   6.073   8.068  0.0857  0.0132  0.1641
 1186ERGO    C215882  16.341   6.080   8.324  0.0706 -0.3469  0.2557
 1187ERGO   ROH15883  12.235  10.107   6.329  0.0283  0.1412 -0.1529
 1187ERGO    R115884  12.302   9.902   6.512 -0.1867  0.1855 -0.0199
 1187ERGO    R215885  12.561   9.808   6.542 -0.3008 -0.1596 -0.0581
 1187ERGO    R315886  12.517   9.868   6.804 -0.1103  0.1131 -0.0852
 1187ERGO    R415887  12.787   9.755   6.798 -0.2327 -0.1767 -0.1220
 1187ERGO    R515888  12.622   9.690   6.924 -0.2408  0.1056  0.0164
 1187ERGO    C115889  12.878   9.781   7.192 -0.0141  0.0692 -0.1847
 1187ERGO    C215890  13.128   9.749   7.409  0.1790  0.1137 -0.2894
 1188ERGO   ROH15891   8.818   0.324   6.488  0.5910 -0.0107 -0.2416
 1188ERGO    R115892   8.696   0.179   6.698  0.3236  0.0815 -0.3295
 1188ERGO    R215893   8.829  -0.016   6.843  0.0440 -0.0797 -0.2823
 1188ERGO    R315894   8.751   0.135   7.055  0.0803 -0.0310 -0.3033
 1188ERGO    R415895   8.787  -0.134   7.165 -0.0901 -0.0525 -0.2893
 1188ERGO    R515896   8.609  -0.010   7.182 -0.0276  0.0471 -0.3311
 1188ERGO    C115897   8.689  -0.062   7.551 -0.1340  0.0092 -0.3132
 1188ERGO    C215898   8.683  -0.049   7.834 -0.1248 -0.0239  0.0316
 1189ERGO   ROH15899  13.424   1.922   6.310 -0.1861  0.0735  0.0362
 1189ERGO    R115900  13.371   2.007   6.575 -0.0937  0.0646  0.0585
 1189ERGO    R215901  13.202   1.868   6.745 -0.1972  0.1679  0.0470
 1189ERGO    R315902  13.418   1.871   6.910 -0.1756 -0.0451  0.0252
 1189ERGO    R415903  13.191   1.819   7.087 -0.2036  0.1724  0.0470
 1189ERGO    R515904  13.339   1.977   7.110 -0.0492  0.0268  0.0350
 1189ERGO    C115905  13.388   1.794   7.441 -0.1873 -0.0250  0.0265
 1189ERGO    C215906  13.285   1.572   7.759  0.0590  0.1513 -0.0137
 1190ERGO   ROH15907  10.014  16.004   6.058 -0.0095 -0.0359  0.1201
 1190ERGO    R115908  10.043  16.172   6.284 -0.0611  0.0492  0.0638
 1190ERGO    R215909   9.849  16.192   6.480 -0.0071 -0.0518  0.1251
 1190ERGO    R315910  10.056  16.129   6.645  0.1026  0.1582  0.0729
 1190ERGO    R415911   9.849  16.237   6.823 -0.0525 -0.2349  0.1508
 1190ERGO    R515912  10.057  16.303   6.809 -0.1426  0.0777  0.1677
 1190ERGO    C115913  10.043  16.204   7.177  0.0241 -0.1443  0.1168
 1190ERGO    C215914  10.174  16.045   7.518  0.0605 -0.0687 -0.0896
 1191ERGO   ROH15915   0.116  14.463   6.819 -0.1668 -0.0622  0.0605
 1191ERGO    R115916   0.076  14.534   7.090 -0.3259  0.0982 -0.0021
 1191ERGO    R215917  -0.174  14.541   7.208 -0.3594 -0.2886 -0.0319
 1191ERGO    R315918  -0.059  14.374   7.388 -0.0407  0.0843  0.1222
 1191ERGO    R415919  -0.246  14.536   7.546 -0.2594 -0.0446 -0.0051
 1191ERGO    R515920  -0.034  14.508   7.585 -0.2005  0.3379 -0.0256
 1191ERGO    C115921  -0.179  14.376   7.912  0.0979  0.4476  0.1551
 1191ERGO    C215922  -0.334  14.237   8.141  0.1027  0.0893  0.1424
 1192ERGO   ROH15923  14.206   5.087   7.058  0.1041 -0.0649  0.0318
 1192ERGO    R115924  14.232   5.125   7.337  0.1926 -0.0756  0.0242
 1192ERGO    R215925  14.016   5.114   7.509  0.2280  0.0660  0.0702
 1192ERGO    R315926  14.169   4.930   7.637  0.1382 -0.0281  0.0456
 1192ERGO    R415927  13.976   5.020   7.839  0.2023  0.0777  0.0714
 1192ERGO    R515928  14.193   5.017   7.859  0.2083 -0.0461  0.0493
 1192ERGO    C115929  14.096   4.792   8.152  0.1029 -0.0038  0.0490
 1192ERGO    C215930  14.020   4.643   8.303 -0.3917 -0.0379 -0.2304
 1193ERGO   ROH15931   3.142   6.144   6.757 -0.1246 -0.0046 -0.0357
 1193ERGO    R115932   3.230   6.281   6.989 -0.0803 -0.1496  0.0340
 1193ERGO    R215933   3.069   6.456   7.129  0.0132 -0.0798  0.0546
 1193ERGO    R315934   3.134   6.297   7.339 -0.1545 -0.2018  0.0164
 1193ERGO    R415935   2.988   6.523   7.458  0.0688 -0.0816  0.0689
 1193ERGO    R515936   3.186   6.451   7.516 -0.0036 -0.2982  0.0582
 1193ERGO    C115937   3.002   6.412   7.848 -0.0563 -0.1973  0.0413
 1193ERGO    C215938   2.909   6.322   8.139 -0.1365 -0.0497  0.0536
 1194ERGO   ROH15939   4.221   0.883   7.065  0.0392  0.0909 -0.0991
 1194ERGO    R115940   4.246   0.786   7.330 -0.2081  0.0915 -0.0742
 1194ERGO    R215941   4.478   0.816   7.477 -0.2074 -0.2630 -0.0053
 1194ERGO    R315942   4.310   0.930   7.658 -0.0841  0.0436 -0.0749
 1194ERGO    R415943   4.554   0.872   7.810 -0.2152 -0.3568  0.0134
 1194ERGO    R515944   4.351   0.810   7.861 -0.3484 -0.0140 -0.0461
 1194ERGO    C115945   4.440   1.011   8.173 -0.1040 -0.1236 -0.0411
 1194ERGO    C215946   4.510   0.970   8.531 -0.0651 -0.1295  0.1599
 1195ERGO   ROH15947  10.812  14.904   9.503 -0.0942  0.1125  0.0250
 1195ERGO    R115948  10.856  15.014   9.246 -0.1124 -0.1057 -0.0748
 1195ERGO    R215949  10.742  14.908   9.017 -0.4209 -0.0914  0.0617
 1195ERGO    R315950  10.652  15.162   8.983 -0.0878  0.0190 -0.0220
 1195ERGO    R415951  10.625  15.038   8.719 -0.4071 -0.0816  0.0616
 1195ERGO    R515952  10.729  15.224   8.765 -0.1237 -0.2008 -0.0954
 1195ERGO    C115953  10.472  15.352   8.514 -0.0864  0.0279 -0.0171
 1195ERGO    C215954  10.362  15.573   8.298  0.2669 -0.0711  0.1035
 1196ERGO   ROH15955   7.217  15.930  10.143 -0.2056 -0.0151 -0.2089
 1196ERGO    R115956   7.242  15.873   9.867 -0.0571  0.1106 -0.2238
 1196ERGO    R215957   7.053  15.726   9.728  0.1358 -0.0353 -0.3402
 1196ERGO    R315958   7.051  15.943   9.564 -0.0341  0.0265 -0.2574
 1196ERGO    R415959   6.949  15.723   9.399  0.2313 -0.0133 -0.3703
 1196ERGO    R515960   7.115  15.856   9.350  0.1131  0.1718 -0.2729
 1196ERGO    C115961   6.886  15.926   9.053  0.1274  0.0575 -0.3101
 1196ERGO    C215962   6.746  16.113   8.686  0.2184  0.0653  0.0809
 1197ERGO   ROH15963   8.375  15.932   6.150 -0.0559  0.1820 -0.0308
 1197ERGO    R115964   8.423  15.984   6.424  0.0773  0.1055 -0.0386
 1197ERGO    R215965   8.300  15.842   6.626 -0.0349  0.2284 -0.0157
 1197ERGO    R315966   8.556  15.800   6.709 -0.0574 -0.0730 -0.0903
 1197ERGO    R415967   8.400  15.822   6.957  0.1156  0.6552 -0.0299
 1197ERGO    R515968   8.578  15.937   6.904  0.2952  0.2514 -0.3454
 1197ERGO    C115969   8.698  15.771   7.227  0.1821  0.6207 -0.1082
 1197ERGO    C215970   8.691  15.561   7.548  0.0044  0.1188 -0.2389
 1198ERGO   ROH15971   7.426  12.085   6.384 -0.1585 -0.1743  0.0400
 1198ERGO    R115972   7.372  11.959   6.631 -0.1038 -0.1336  0.0732
 1198ERGO    R215973   7.570  11.899   6.814 -0.0651 -0.0859  0.0484
 1198ERGO    R315974   7.411  12.040   6.984 -0.0448 -0.0664  0.0510
 1198ERGO    R415975   7.582  11.879   7.159 -0.0359 -0.0563  0.0490
 1198ERGO    R515976   7.364  11.888   7.163 -0.0343 -0.0486  0.0680
 1198ERGO    C115977   7.440  12.001   7.519  0.0002 -0.0208  0.0518
 1198ERGO    C215978   7.391  12.157   7.815  0.0041 -0.0177  0.1959
 1199ERGO   ROH15979   2.432   8.917  10.510 -0.1199 -0.3973  0.0478
 1199ERGO    R115980   2.460   9.031  10.253 -0.0630 -0.3398  0.0797
 1199ERGO    R215981   2.689   9.000  10.100 -0.0685 -0.3885  0.0834
 1199ERGO    R315982   2.512   8.910   9.914 -0.0946 -0.2698  0.0493
 1199ERGO    R415983   2.746   8.995   9.759 -0.1046 -0.1952  0.0728
 1199ERGO    R515984   2.540   9.059   9.728 -0.1046 -0.1633  0.1313
 1199ERGO    C115985   2.613   8.907   9.386 -0.1503  0.0287  0.0347
 1199ERGO    C215986   2.549   8.907   9.012 -0.2504  0.1056  0.1091
 1200ERGO   ROH15987   6.899   3.242   6.735  0.0739  0.2589 -0.1216
 1200ERGO    R115988   6.920   3.396   6.972  0.0811  0.1754 -0.0673
 1200ERGO    R215989   6.969   3.283   7.219 -0.0248  0.0755 -0.0899
 1200ERGO    R315990   7.174   3.461   7.224  0.0486 -0.0108  0.0148
 1200ERGO    R415991   7.101   3.423   7.506 -0.0998  0.0083 -0.0222
 1200ERGO    R515992   7.116   3.614   7.400  0.0305  0.0062 -0.0070
 1200ERGO    C115993   7.370   3.673   7.678 -0.0746 -0.1118  0.1156
 1200ERGO    C215994   7.359   3.687   8.033  0.0032 -0.0395 -0.0551
 1201ERGO   ROH15995  12.758  16.765   6.287 -0.2181 -0.1853 -0.0580
 1201ERGO    R115996  12.565  16.703   6.484 -0.0780 -0.2292  0.0683
 1201ERGO    R215997  12.630  16.670   6.751  0.0691  0.0174  0.0704
 1201ERGO    R315998  12.438  16.859   6.787 -0.0910 -0.1321  0.0112
 1201ERGO    R415999  12.425  16.693   7.029  0.1616  0.0424  0.1370
 1201ERGO    R516000  12.259  16.743   6.896  0.0614 -0.2103  0.1732
 1201ERGO    C116001  12.125  16.884   7.224  0.0652 -0.0834  0.1202
 1201ERGO    C216002  12.243  16.873   7.536 -0.2140 -0.0901  0.3594
 1202ERGO   ROH16003  13.862   1.041   6.651 -0.0494 -0.0815 -0.0715
 1202ERGO    R116004  13.853   1.018   6.933 -0.1830 -0.1730 -0.0819
 1202ERGO    R216005  13.741   0.800   7.061  0.0030 -0.3491 -0.2088
 1202ERGO    R316006  13.983   0.789   7.183 -0.0481 -0.0918 -0.0770
 1202ERGO    R416007  13.792   0.704   7.389 -0.0752 -0.2479 -0.1667
 1202ERGO    R516008  13.940   0.863   7.407 -0.2397 -0.0984 -0.1104
 1202ERGO    C116009  14.049   0.637   7.695 -0.1688  0.0526 -0.0185
 1202ERGO    C216010  14.047   0.406   8.021 -0.2466  0.0875 -0.1770
 1203ERGO   ROH16011   6.096   1.630  10.629 -0.0936  0.1540  0.0302
 1203ERGO    R116012   6.079   1.779  10.388 -0.2530  0.0982  0.0058
 1203ERGO    R216013   6.273   1.766  10.192 -0.1568  0.3915  0.0775
 1203ERGO    R316014   6.062   1.704  10.033 -0.0039  0.0203  0.0081
 1203ERGO    R416015   6.277   1.772   9.846 -0.0596  0.4172  0.0786
 1203ERGO    R516016   6.077   1.858   9.850 -0.2215  0.0629  0.0223
 1203ERGO    C116017   6.081   1.718   9.496  0.1405  0.0837  0.0142
 1203ERGO    C216018   6.095   1.813   9.106  0.1038  0.1405 -0.1603
 1204ERGO   ROH16019   5.632  10.566   6.628  0.0477  0.2487 -0.0736
 1204ERGO    R116020   5.597  10.517   6.904 -0.2977  0.1594 -0.1276
 1204ERGO    R216021   5.797  10.559   7.089 -0.2952 -0.5177  0.0580
 1204ERGO    R316022   5.608  10.711   7.211  0.0237 -0.0564  0.0015
 1204ERGO    R416023   5.802  10.651   7.422 -0.2633 -0.6809  0.1027
 1204ERGO    R516024   5.587  10.616   7.430 -0.3746 -0.1084 -0.0546
 1204ERGO    C116025   5.627  10.848   7.731  0.0547 -0.3429  0.0758
 1204ERGO    C216026   5.619  10.963   8.118  0.0886  0.1187 -0.2845
 1205ERGO   ROH16027  16.858  15.244   6.244  0.1676  0.1635  0.0683
 1205ERGO    R116028  16.974  15.442   6.411  0.1655  0.1393  0.0971
 1205ERGO    R216029  16.828  15.580   6.601  0.1760  0.0757  0.1447
 1205ERGO    R316030  17.022  15.490   6.769  0.2099  0.0674  0.1027
 1205ERGO    R416031  16.834  15.632   6.943  0.2841  0.1526  0.1323
 1205ERGO    R516032  17.048  15.666   6.929  0.2946  0.1035  0.0572
 1205ERGO    C116033  17.019  15.578   7.299  0.3790  0.1896  0.0857
 1205ERGO    C216034  16.991  15.615   7.570 -0.0756 -0.1441  0.0353
 1206ERGO   ROH16035  11.788  12.836   9.839  0.1004  0.0109  0.0121
 1206ERGO    R116036  11.896  12.699   9.616 -0.0316 -0.0989  0.0144
 1206ERGO    R216037  11.750  12.515   9.470 -0.2300  0.0766 -0.0163
 1206ERGO    R316038  11.822  12.673   9.260 -0.0234  0.0126  0.0048
 1206ERGO    R416039  11.860  12.399   9.164 -0.2625 -0.0210  0.0091
 1206ERGO    R516040  12.008  12.559   9.161 -0.1071 -0.1636  0.0497
 1206ERGO    C116041  11.992  12.479   8.789 -0.0873 -0.1379  0.0436
 1206ERGO    C216042  11.889  12.331   8.516  0.0665  0.0931  0.1623
 1207ERGO   ROH16043   3.886   1.228  10.593  0.1989 -0.2455 -0.0596
 1207ERGO    R116044   3.755   1.281  10.347  0.0715 -0.1670  0.0248
 1207ERGO    R216045   3.832   1.487  10.179 -0.0918 -0.0387  0.1063
 1207ERGO    R316046   3.845   1.287   9.995 -0.0796  0.0703 -0.0131
 1207ERGO    R416047   3.832   1.533   9.837 -0.1764  0.1631  0.1322
 1207ERGO    R516048   3.701   1.360   9.818 -0.1372  0.1388  0.0593
 1207ERGO    C116049   3.844   1.373   9.464 -0.2142  0.3829  0.0352
 1207ERGO    C216050   3.920   1.434   9.136 -0.2011  0.0625 -0.0446
 1208ERGO   ROH16051   3.541   2.812   7.097 -0.0863 -0.2091 -0.0912
 1208ERGO    R116052   3.494   2.829   7.375 -0.0338 -0.1898 -0.0835
 1208ERGO    R216053   3.240   2.839   7.483 -0.0122  0.0088 -0.0477
 1208ERGO    R316054   3.328   2.627   7.628 -0.1632 -0.0741 -0.0743
 1208ERGO    R416055   3.107   2.737   7.785 -0.0040  0.1442  0.0023
 1208ERGO    R516056   3.309   2.698   7.856 -0.0137 -0.0485 -0.0688
 1208ERGO    C116057   3.112   2.479   8.098 -0.1409  0.1453  0.0065
 1208ERGO    C216058   2.882   2.370   8.457 -0.3304 -0.0534 -0.1257
 1209ERGO   ROH16059   2.914   0.146   7.121  0.0767 -0.2103 -0.0680
 1209ERGO    R116060   2.971   0.209   7.391 -0.0116 -0.0618 -0.0824
 1209ERGO    R216061   3.000   0.015   7.586 -0.0433  0.0426  0.0292
 1209ERGO    R316062   3.238   0.140   7.628 -0.0725  0.0959  0.0338
 1209ERGO    R416063   3.139   0.074   7.897  0.0448 -0.1341  0.0236
 1209ERGO    R516064   3.202   0.270   7.826 -0.0498 -0.0595  0.1424
 1209ERGO    C116065   3.444   0.225   8.117  0.0686 -0.1869  0.0247
 1209ERGO    C216066   3.422   0.198   8.433  0.0640 -0.2553  0.1598
 1210ERGO   ROH16067  16.175  12.904   6.704  0.3063 -0.1196  0.1507
 1210ERGO    R116068  16.067  12.953   6.961  0.1789 -0.1188  0.0969
 1210ERGO    R216069  15.847  12.818   7.059  0.1593 -0.1472  0.0029
 1210ERGO    R316070  16.014  12.762   7.266  0.0697 -0.1034  0.0890
 1210ERGO    R416071  15.749  12.685   7.362  0.0352 -0.1757 -0.0480
 1210ERGO    R516072  15.888  12.820   7.461 -0.0493 -0.1365  0.0261
 1210ERGO    C116073  15.849  12.556   7.734 -0.1211 -0.1513  0.0032
 1210ERGO    C216074  15.771  12.301   7.901  0.0048  0.0920  0.2408
 1211ERGO   ROH16075  17.503   4.158   7.177  0.2351  0.0471 -0.1396
 1211ERGO    R116076  17.472   4.066   7.443  0.1163  0.0182 -0.1629
 1211ERGO    R216077  17.616   3.853   7.544  0.0572 -0.0041 -0.1276
 1211ERGO    R316078  17.684   4.032   7.737 -0.0097 -0.0327 -0.0768
 1211ERGO    R416079  17.650   3.779   7.880  0.0533 -0.0808 -0.1438
 1211ERGO    R516080  17.552   3.968   7.927 -0.0063 -0.1201 -0.1028
 1211ERGO    C116081  17.733   3.904   8.257 -0.0120 -0.1523 -0.1055
 1211ERGO    C216082  17.661   3.916   8.566 -0.1539 -0.2672  0.1778
 1212ERGO   ROH16083  16.230   8.154   6.528  0.2683 -0.0382 -0.0226
 1212ERGO    R116084  16.336   8.223   6.782  0.1359 -0.1341  0.0593
 1212ERGO    R216085  16.264   8.454   6.916  0.2308 -0.0778  0.0061
 1212ERGO    R316086  16.205   8.280   7.116 -0.0673 -0.0297 -0.0349
 1212ERGO    R416087  16.223   8.540   7.248  0.2643 -0.0598  0.0059
 1212ERGO    R516088  16.330   8.359   7.304  0.0011 -0.2263  0.0097
 1212ERGO    C116089  16.144   8.427   7.629  0.0037 -0.0043 -0.0327
 1212ERGO    C216090  16.171   8.230   8.019 -0.0676  0.0103  0.1998
 1213ERGO   ROH16091   6.237   5.108  10.330 -0.1671  0.2985 -0.1548
 1213ERGO    R116092   6.305   5.026  10.068  0.0160  0.2638 -0.0976
 1213ERGO    R216093   6.114   4.969   9.876  0.1435 -0.0645 -0.1291
 1213ERGO    R316094   6.254   5.151   9.730 -0.0424  0.0470 -0.1719
 1213ERGO    R416095   6.181   4.941   9.538  0.3235 -0.1800 -0.0852
 1213ERGO    R516096   6.382   5.018   9.577  0.2090  0.1226 -0.0390
 1213ERGO    C116097   6.352   5.096   9.204  0.2539 -0.1425 -0.0999
 1213ERGO    C216098   6.270   4.956   8.874  0.1214 -0.2305  0.4432
 1214ERGO   ROH16099   1.729  13.715   6.704 -0.4203 -0.2533  0.0297
 1214ERGO    R116100   1.749  13.602   6.963  0.0550 -0.2923 -0.0163
 1214ERGO    R216101   1.990  13.580   7.097  0.2189  0.3160 -0.1797
 1214ERGO    R316102   1.856  13.713   7.293 -0.0302 -0.1042 -0.0512
 1214ERGO    R416103   2.100  13.618   7.422  0.1086  0.1528 -0.1216
 1214ERGO    R516104   1.896  13.585   7.491  0.1472 -0.2524 -0.1805
 1214ERGO    C116105   2.039  13.765   7.795 -0.1893 -0.3368  0.0328
 1214ERGO    C216106   2.351  13.762   8.047  0.0884 -0.0057  0.0601
 1215ERGO   ROH16107  10.827   3.142   7.163 -0.1016  0.0682  0.0269
 1215ERGO    R116108  10.760   3.049   7.422 -0.0085  0.0366  0.0400
 1215ERGO    R216109  10.858   3.166   7.652 -0.0069  0.0732  0.0213
 1215ERGO    R316110  10.595   3.183   7.717 -0.0008 -0.0353  0.0772
 1215ERGO    R416111  10.735   3.184   7.974  0.0526  0.0212  0.0473
 1215ERGO    R516112  10.573   3.050   7.915  0.0949 -0.0448  0.0813
 1215ERGO    C116113  10.415   3.211   8.222  0.0928 -0.1109  0.1148
 1215ERGO    C216114  10.122   3.296   8.420 -0.1074  0.0635  0.1232
 1216ERGO   ROH16115  12.974  15.605   6.266 -0.1857 -0.0637 -0.0630
 1216ERGO    R116116  13.142  15.438   6.421 -0.1026  0.0267 -0.0551
 1216ERGO    R216117  13.416  15.430   6.387 -0.1184  0.0264 -0.1797
 1216ERGO    R316118  13.418  15.484   6.654  0.0049  0.1635 -0.2071
 1216ERGO    R416119  13.646  15.305   6.613 -0.0960  0.0296 -0.2004
 1216ERGO    R516120  13.484  15.278   6.756 -0.0585  0.1821 -0.1260
 1216ERGO    C116121  13.782  15.283   6.994  0.0326  0.1600 -0.2383
 1216ERGO    C216122  14.038  15.325   7.217 -0.1326  0.0946  0.0676
 1217ERGO   ROH16123   2.587  16.394   6.399  0.1149 -0.1093  0.0283
 1217ERGO    R116124   2.407  16.504   6.587  0.0609 -0.0051 -0.0823
 1217ERGO    R216125   2.441  16.477   6.859 -0.1940 -0.1454 -0.0580
 1217ERGO    R316126   2.421  16.748   6.856  0.0761 -0.1222  0.0228
 1217ERGO    R416127   2.359  16.671   7.133 -0.4017 -0.1771 -0.0966
 1217ERGO    R516128   2.237  16.795   7.002 -0.0914 -0.0011 -0.2261
 1217ERGO    C116129   2.293  17.039   7.290 -0.2690 -0.1734 -0.0433
 1217ERGO    C216130   2.226  17.097   7.677  0.3425  0.0187 -0.2073
 1218ERGO   ROH16131   9.457   2.698   6.771 -0.1533  0.0412  0.0221
 1218ERGO    R116132   9.263   2.581   6.940 -0.1303  0.1211  0.1026
 1218ERGO    R216133   9.305   2.341   7.071 -0.2095  0.0605  0.0070
 1218ERGO    R316134   9.240   2.487   7.291  0.0116  0.0365  0.0916
 1218ERGO    R416135   9.221   2.207   7.378 -0.3661 -0.0003 -0.0603
 1218ERGO    R516136   9.067   2.360   7.397 -0.1600  0.2109  0.0350
 1218ERGO    C116137   9.112   2.265   7.764 -0.2496 -0.0582 -0.0201
 1218ERGO    C216138   9.136   2.132   8.091  0.3094  0.0617 -0.1289
 1219ERGO   ROH16139   0.509  10.864   6.337  0.4472  0.1304  0.1262
 1219ERGO    R116140   0.391  10.811   6.589  0.3291  0.0503  0.0565
 1219ERGO    R216141   0.315  10.556   6.668  0.2371  0.0269 -0.0781
 1219ERGO    R316142   0.472  10.612   6.883  0.1654 -0.0924  0.0047
 1219ERGO    R416143   0.265  10.434   6.988  0.0488 -0.0145 -0.1232
 1219ERGO    R516144   0.320  10.630   7.066  0.1010 -0.0632 -0.0588
 1219ERGO    C116145   0.384  10.416   7.375 -0.1282 -0.1506 -0.0718
 1219ERGO    C216146   0.631  10.399   7.658  0.1049  0.0522  0.2129
 1220ERGO   ROH16147   3.529  12.598  10.306 -0.0243  0.1717  0.0801
 1220ERGO    R116148   3.338  12.526  10.110  0.0849  0.0053  0.0326
 1220ERGO    R216149   3.207  12.713   9.954 -0.1056 -0.0997  0.0626
 1220ERGO    R316150   3.304  12.561   9.750  0.0990  0.0615  0.0366
 1220ERGO    R416151   3.103  12.734   9.625 -0.0926 -0.1402  0.0562
 1220ERGO    R516152   3.113  12.517   9.613  0.1643 -0.1297  0.0037
 1220ERGO    C116153   3.133  12.604   9.242  0.1069 -0.0124  0.0280
 1220ERGO    C216154   3.042  12.681   8.990 -0.1360 -0.0484 -0.1777
 1221ERGO   ROH16155   8.419   5.636   6.849 -0.1102  0.0419  0.2130
 1221ERGO    R116156   8.540   5.747   7.080  0.0188  0.0213  0.1577
 1221ERGO    R216157   8.393   5.826   7.301  0.1237  0.1516  0.1869
 1221ERGO    R316158   8.565   5.661   7.432  0.0662  0.0776  0.1674
 1221ERGO    R416159   8.446   5.826   7.643  0.0617  0.0340  0.1956
 1221ERGO    R516160   8.658   5.797   7.606  0.0610  0.0036  0.2266
 1221ERGO    C116161   8.637   5.671   7.965 -0.0284 -0.1040  0.1825
 1221ERGO    C216162   8.701   5.409   8.170 -0.1487  0.0414  0.1079
 1222ERGO   ROH16163  10.212   3.939   6.944 -0.0832 -0.2977 -0.0828
 1222ERGO    R116164  10.060   3.951   7.182 -0.1519 -0.1662 -0.1328
 1222ERGO    R216165   9.891   3.748   7.261  0.0600 -0.2612  0.0826
 1222ERGO    R316166  10.036   3.760   7.491 -0.0042  0.1938  0.1093
 1222ERGO    R416167   9.767   3.678   7.577  0.1588 -0.4282  0.0855
 1222ERGO    R516168   9.882   3.847   7.654 -0.2584 -0.1018  0.0387
 1222ERGO    C116169   9.831   3.648   7.976  0.1559 -0.0983  0.1123
 1222ERGO    C216170   9.633   3.527   8.215 -0.0700 -0.0597  0.2372
 1223ERGO   ROH16171   0.800   4.930   7.071 -0.1415  0.0145  0.1696
 1223ERGO    R116172   0.927   4.981   7.318 -0.2271  0.0518  0.2068
 1223ERGO    R216173   0.810   4.922   7.561 -0.2217 -0.1178  0.1721
 1223ERGO    R316174   1.040   4.785   7.603 -0.1118  0.0632  0.1686
 1223ERGO    R416175   0.928   4.825   7.871 -0.2110 -0.1507  0.1574
 1223ERGO    R516176   1.129   4.878   7.805 -0.2407  0.0519  0.2294
 1223ERGO    C116177   1.213   4.640   8.091 -0.1015  0.0002  0.1456
 1223ERGO    C216178   1.109   4.509   8.401 -0.0366 -0.1073  0.2174
 1224ERGO   ROH16179   4.515  14.110  10.128  0.1466  0.2712 -0.0071
 1224ERGO    R116180   4.614  14.207   9.881  0.2177 -0.0010 -0.0914
 1224ERGO    R216181   4.706  14.040   9.681 -0.0830 -0.2473 -0.0398
 1224ERGO    R316182   4.525  14.177   9.530  0.0619 -0.0611 -0.0456
 1224ERGO    R416183   4.695  14.038   9.335  0.0170 -0.0986 -0.0434
 1224ERGO    R516184   4.651  14.251   9.340  0.1675 -0.0742  0.0243
 1224ERGO    C116185   4.520  14.165   8.993  0.2112  0.1629 -0.0510
 1224ERGO    C216186   4.483  14.219   8.701  0.2405 -0.1181  0.0503
 1225ERGO   ROH16187  16.133  11.308   6.585 -0.1781 -0.0814 -0.0333
 1225ERGO    R116188  16.316  11.310   6.801 -0.1234  0.1855 -0.0798
 1225ERGO    R216189  16.292  11.483   7.015 -0.3160  0.1573 -0.0822
 1225ERGO    R316190  16.303  11.253   7.160  0.0512  0.1738 -0.0731
 1225ERGO    R416191  16.435  11.454   7.329 -0.4187  0.4488 -0.0052
 1225ERGO    R516192  16.517  11.261   7.268 -0.0093  0.5945  0.0392
 1225ERGO    C116193  16.528  11.222   7.647 -0.1335  0.6342  0.0483
 1225ERGO    C216194  16.610  11.391   7.987 -0.3796 -0.1170  0.0891
 1226ERGO   ROH16195  14.277   6.032   6.892 -0.1820  0.2037 -0.0704
 1226ERGO    R116196  14.267   6.170   7.139 -0.0339 -0.0110  0.0593
 1226ERGO    R216197  14.322   6.047   7.380  0.2889 -0.1806 -0.0923
 1226ERGO    R316198  14.500   6.251   7.406  0.1775 -0.0816 -0.1015
 1226ERGO    R416199  14.439   6.170   7.682  0.1761 -0.0572 -0.0984
 1226ERGO    R516200  14.425   6.371   7.599  0.0841 -0.0824 -0.1392
 1226ERGO    C116201  14.673   6.433   7.882  0.0058  0.1075 -0.1106
 1226ERGO    C216202  14.862   6.551   8.119  0.0421  0.2611 -0.0583
 1227ERGO   ROH16203  12.341  12.812   6.420 -0.0751  0.1335 -0.0664
 1227ERGO    R116204  12.314  12.889   6.691 -0.1533 -0.0295 -0.0261
 1227ERGO    R216205  12.448  13.105   6.799  0.1093 -0.3072  0.2381
 1227ERGO    R316206  12.198  13.183   6.872  0.1662  0.0181  0.1019
 1227ERGO    R416207  12.376  13.308   7.069  0.2008 -0.2892  0.2493
 1227ERGO    R516208  12.204  13.182   7.112  0.0016 -0.0607  0.0999
 1227ERGO    C116209  12.099  13.500   7.295  0.3074  0.0265  0.1280
 1227ERGO    C216210  11.978  13.687   7.598  0.1958 -0.0241 -0.1491
 1228ERGO   ROH16211   3.220  14.053  10.344  0.0837 -0.0194 -0.1668
 1228ERGO    R116212   3.142  14.164  10.095  0.2041  0.0802 -0.1632
 1228ERGO    R216213   3.320  14.206   9.888  0.2394 -0.1978 -0.2040
 1228ERGO    R316214   3.140  14.059   9.747 -0.0083  0.0483 -0.1516
 1228ERGO    R416215   3.289  14.208   9.544  0.1074 -0.1415 -0.1911
 1228ERGO    R516216   3.073  14.202   9.568  0.1124  0.1426 -0.1150
 1228ERGO    C116217   3.103  14.070   9.211 -0.2020  0.1222 -0.1346
 1228ERGO    C216218   3.116  14.007   8.920 -0.0676 -0.1194  0.2331
 1229ERGO   ROH16219  12.522   4.638   6.978 -0.0793 -0.2402  0.0551
 1229ERGO    R116220  12.500   4.492   7.220  0.0235 -0.2127  0.0821
 1229ERGO    R216221  12.709   4.466   7.398  0.0655 -0.0920  0.0550
 1229ERGO    R316222  12.529   4.565   7.575  0.0487 -0.1424  0.0652
 1229ERGO    R416223  12.732   4.434   7.741  0.1009 -0.0644  0.0549
 1229ERGO    R516224  12.517   4.398   7.747  0.1157 -0.1341  0.0750
 1229ERGO    C116225  12.576   4.508   8.108  0.1056 -0.0957  0.0645
 1229ERGO    C216226  12.712   4.484   8.385 -0.0256 -0.1137  0.0089
 1230ERGO   ROH16227  14.811  16.013   6.497 -0.0771 -0.1679  0.1090
 1230ERGO    R116228  14.994  16.012   6.713  0.1217  0.1178 -0.0520
 1230ERGO    R216229  15.088  16.244   6.829 -0.2738  0.2692 -0.0325
 1230ERGO    R316230  14.996  16.129   7.058  0.1736 -0.0411  0.0047
 1230ERGO    R416231  15.194  16.326   7.148 -0.4259  0.6598 -0.0762
 1230ERGO    R516232  15.190  16.114   7.198  0.3004  0.6159 -0.0575
 1230ERGO    C116233  15.169  16.265   7.548 -0.0944  0.5958 -0.0668
 1230ERGO    C216234  15.206  16.447   7.851  0.1093  0.0681 -0.2758
 1231ERGO   ROH16235   5.327   4.471   6.826  0.1212 -0.0030  0.2289
 1231ERGO    R116236   5.154   4.504   7.048 -0.0057  0.2744  0.0920
 1231ERGO    R216237   5.223   4.422   7.303 -0.3838  0.0504  0.1193
 1231ERGO    R316238   5.164   4.680   7.366  0.0784  0.1573  0.1580
 1231ERGO    R416239   5.081   4.525   7.601 -0.5287  0.1954  0.0034
 1231ERGO    R516240   4.958   4.666   7.488 -0.1134  0.5164 -0.0912
 1231ERGO    C116241   4.943   4.827   7.833 -0.1791  0.3800 -0.0275
 1231ERGO    C216242   4.910   4.926   8.126 -0.0492  0.2595  0.2659
 1232ERGO   ROH16243   6.041  12.286   9.538  0.3190 -0.3459 -0.0091
 1232ERGO    R116244   6.132  12.272   9.271  0.1903 -0.2341 -0.0603
 1232ERGO    R216245   6.031  12.090   9.089  0.0695 -0.1276 -0.1026
 1232ERGO    R316246   5.988  12.313   8.939  0.0407 -0.0456  0.0270
 1232ERGO    R416247   5.953  12.090   8.752 -0.0602  0.0569 -0.0741
 1232ERGO    R516248   6.085  12.262   8.727 -0.0487  0.0516 -0.0369
 1232ERGO    C116249   5.866  12.299   8.416 -0.1629  0.2413  0.0643
 1232ERGO    C216250   5.788  12.034   8.148  0.1137 -0.1252  0.1163
 1233ERGO   ROH16251   9.441  11.747   9.763  0.0699  0.0596  0.0893
 1233ERGO    R116252   9.450  11.808   9.487  0.3697 -0.1584  0.0456
 1233ERGO    R216253   9.502  11.618   9.294  0.0174 -0.4341  0.2185
 1233ERGO    R316254   9.268  11.707   9.188  0.2803  0.0600  0.0219
 1233ERGO    R416255   9.413  11.589   8.961  0.0357 -0.7546  0.2379
 1233ERGO    R516256   9.329  11.791   8.971  0.5927 -0.4705 -0.1194
 1233ERGO    C116257   9.141  11.656   8.668  0.2932 -0.4774  0.0646
 1233ERGO    C216258   8.953  11.672   8.300  0.0037 -0.1600  0.1539
 1234ERGO   ROH16259   4.642  15.477   6.561  0.0040 -0.1399  0.0616
 1234ERGO    R116260   4.586  15.344   6.804  0.0721 -0.1073  0.0962
 1234ERGO    R216261   4.779  15.298   6.996  0.1110 -0.0167  0.0828
 1234ERGO    R316262   4.601  15.424   7.159  0.0973 -0.0314  0.0777
 1234ERGO    R416263   4.809  15.321   7.340  0.0808 -0.0449  0.0865
 1234ERGO    R516264   4.593  15.286   7.355  0.0808 -0.0466  0.0651
 1234ERGO    C116265   4.658  15.451   7.693  0.0502 -0.0750  0.0838
 1234ERGO    C216266   4.828  15.468   8.055  0.0284 -0.1242  0.1715
 1235ERGO   ROH16267   8.625   8.296   6.494  0.0497  0.1836 -0.0888
 1235ERGO    R116268   8.699   8.357   6.761 -0.1142  0.1497 -0.0345
 1235ERGO    R216269   8.549   8.524   6.922 -0.2443  0.0816 -0.0862
 1235ERGO    R316270   8.555   8.311   7.092 -0.2891  0.0516 -0.1218
 1235ERGO    R416271   8.501   8.542   7.264  0.1947  0.1069 -0.0204
 1235ERGO    R516272   8.661   8.396   7.289  0.0587 -0.0908 -0.2358
 1235ERGO    C116273   8.479   8.354   7.622  0.4083  0.0934 -0.0154
 1235ERGO    C216274   8.456   8.117   7.951 -0.0967 -0.0268 -0.1584
 1236ERGO   ROH16275   8.202  13.041   6.026  0.2272  0.1291  0.1351
 1236ERGO    R116276   8.096  12.927   6.262  0.2660  0.1339  0.1554
 1236ERGO    R216277   8.151  12.668   6.341  0.1148  0.0643  0.0451
 1236ERGO    R316278   8.229  12.789   6.572  0.3280 -0.0625  0.0420
 1236ERGO    R416279   8.213  12.504   6.639 -0.2302 -0.0346  0.0667
 1236ERGO    R516280   8.115  12.668   6.744  0.0729  0.1699  0.0417
 1236ERGO    C116281   8.322  12.522   7.029 -0.2309 -0.2111  0.0763
 1236ERGO    C216282   8.497  12.418   7.332 -0.1897  0.0114 -0.0728
 1237ERGO   ROH16283  14.705  10.446   6.768  0.1208 -0.0094  0.1831
 1237ERGO    R116284  14.828  10.369   7.011  0.1762 -0.0391  0.1461
 1237ERGO    R216285  14.811  10.521   7.241  0.1925 -0.0874  0.1818
 1237ERGO    R316286  14.719  10.288   7.348  0.2474 -0.1244  0.1483
 1237ERGO    R416287  14.799  10.450   7.579  0.1630 -0.1253  0.1728
 1237ERGO    R516288  14.865  10.247   7.534  0.2303 -0.0992  0.1648
 1237ERGO    C116289  14.707  10.190   7.877  0.1975 -0.1822  0.1360
 1237ERGO    C216290  14.869  10.087   8.196 -0.0209 -0.1012  0.0929
 1238ERGO   ROH16291  10.618  16.282   9.746 -0.0528  0.1242 -0.1137
 1238ERGO    R116292  10.731  16.371   9.502 -0.1141  0.1582 -0.1308
 1238ERGO    R216293  10.839  16.197   9.316  0.0202  0.1971 -0.0941
 1238ERGO    R316294  10.667  16.322   9.148 -0.0733  0.0338 -0.1211
 1238ERGO    R416295  10.853  16.182   8.971 -0.0390  0.0459 -0.0904
 1238ERGO    R516296  10.803  16.393   8.965 -0.1447  0.0173 -0.1791
 1238ERGO    C116297  10.699  16.291   8.612 -0.1610 -0.1953 -0.1133
 1238ERGO    C216298  10.548  16.367   8.314  0.0913 -0.1167  0.2707
 1239ERGO   ROH16299   4.073  11.411  10.070  0.0851  0.1187  0.0103
 1239ERGO    R116300   3.896  11.355   9.856  0.0000  0.1283  0.0773
 1239ERGO    R216301   3.821  11.546   9.670  0.0255  0.1053  0.0401
 1239ERGO    R316302   3.910  11.360   9.493 -0.1002  0.0145  0.0719
 1239ERGO    R416303   3.799  11.575   9.327  0.3936  0.2396  0.0234
 1239ERGO    R516304   3.747  11.363   9.317  0.0666  0.3219 -0.0826
 1239ERGO    C116305   3.869  11.417   8.960  0.4900  0.2325  0.0436
 1239ERGO    C216306   4.031  11.469   8.634 -0.1065  0.0727 -0.3052
 1240ERGO   ROH16307   5.222  17.318   6.910  0.2724 -0.1130  0.1076
 1240ERGO    R116308   5.288  17.301   7.184  0.1378 -0.1821  0.1361
 1240ERGO    R216309   5.164  17.456   7.377  0.1505 -0.1232  0.0938
 1240ERGO    R316310   5.115  17.215   7.493 -0.0557 -0.1021  0.0524
 1240ERGO    R416311   5.133  17.404   7.717  0.2212 -0.1619  0.0944
 1240ERGO    R516312   5.245  17.218   7.694  0.0256 -0.2782  0.0082
 1240ERGO    C116313   5.068  17.147   8.024  0.0689 -0.1644  0.0559
 1240ERGO    C216314   5.024  17.185   8.388  0.1760  0.0047 -0.1456
 1241ERGO   ROH16315  14.638  13.364   6.568 -0.2334  0.0944 -0.0861
 1241ERGO    R116316  14.643  13.360   6.851 -0.0685  0.0922 -0.0864
 1241ERGO    R216317  14.413  13.351   7.004  0.0089  0.2050  0.0554
 1241ERGO    R316318  14.534  13.134   7.114 -0.0280  0.1436 -0.0284
 1241ERGO    R416319  14.398  13.265   7.339  0.1156  0.1416  0.0428
 1241ERGO    R516320  14.609  13.210   7.329  0.0835  0.0685 -0.0473
 1241ERGO    C116321  14.503  13.011   7.637  0.1431  0.0470 -0.0431
 1241ERGO    C216322  14.473  12.926   7.964  0.1071  0.0436  0.1330
 1242ERGO   ROH16323   9.084   6.521   6.916 -0.1487  0.0198 -0.0206
 1242ERGO    R116324   9.178   6.454   7.174 -0.0498  0.1249 -0.0283
 1242ERGO    R216325   9.337   6.624   7.324 -0.1743  0.2786 -0.0682
 1242ERGO    R316326   9.143   6.587   7.511 -0.1151  0.1259 -0.0353
 1242ERGO    R416327   9.316   6.794   7.624 -0.1138  0.0786  0.0512
 1242ERGO    R516328   9.257   6.608   7.720 -0.0575  0.0052 -0.0535
 1242ERGO    C116329   9.122   6.858   7.974 -0.0230 -0.1812  0.1516
 1242ERGO    C216330   8.801   6.889   8.162  0.0553  0.0589  0.1030
 1243ERGO   ROH16331   7.031   4.233  10.558 -0.1539 -0.0526  0.1306
 1243ERGO    R116332   6.911   4.337  10.325 -0.3184 -0.1798  0.1573
 1243ERGO    R216333   7.056   4.464  10.127 -0.5204  0.1634  0.2245
 1243ERGO    R316334   6.936   4.281   9.966 -0.1692  0.0016  0.1370
 1243ERGO    R416335   6.992   4.508   9.790 -0.2757  0.0488  0.1603
 1243ERGO    R516336   6.799   4.411   9.819 -0.1935 -0.1721  0.0010
 1243ERGO    C116337   6.843   4.361   9.443  0.1965 -0.1698  0.0409
 1243ERGO    C216338   6.994   4.408   9.125  0.0225 -0.1183  0.0456
 1244ERGO   ROH16339   9.007   7.436   6.484  0.2584 -0.1271  0.0598
 1244ERGO    R116340   8.977   7.454   6.765  0.1845 -0.0584  0.0475
 1244ERGO    R216341   9.175   7.377   6.941  0.1852  0.1001  0.1158
 1244ERGO    R316342   9.143   7.629   7.037  0.0293  0.1124  0.0346
 1244ERGO    R416343   9.244   7.476   7.265  0.0460  0.2273  0.1081
 1244ERGO    R516344   9.064   7.598   7.261 -0.0173  0.1353  0.0226
 1244ERGO    C116345   9.254   7.770   7.544 -0.1815  0.3129  0.0273
 1244ERGO    C216346   9.367   7.802   7.885 -0.0724  0.0155  0.1500
 1245ERGO   ROH16347   8.562   1.620   6.573  0.1311  0.0176 -0.0470
 1245ERGO    R116348   8.591   1.657   6.852 -0.0063  0.0679 -0.0393
 1245ERGO    R216349   8.396   1.584   7.033 -0.0061 -0.0918 -0.1096
 1245ERGO    R316350   8.600   1.445   7.148  0.0757  0.1014 -0.0152
 1245ERGO    R416351   8.400   1.472   7.360  0.0427  0.1265 -0.0339
 1245ERGO    R516352   8.610   1.528   7.372  0.0166  0.2604 -0.0649
 1245ERGO    C116353   8.594   1.277   7.658  0.1480  0.4351  0.0989
 1245ERGO    C216354   8.545   0.966   7.738  0.0270 -0.0735 -0.4473
 1246ERGO   ROH16355  14.263   3.330   6.813 -0.2501 -0.0726  0.1543
 1246ERGO    R116356  14.401   3.363   7.058 -0.2466  0.0442  0.1367
 1246ERGO    R216357  14.292   3.498   7.273 -0.4114 -0.2065  0.2127
 1246ERGO    R316358  14.350   3.268   7.405 -0.0259 -0.1743  0.1130
 1246ERGO    R416359  14.316   3.468   7.616 -0.2582 -0.2904  0.1959
 1246ERGO    R516360  14.488   3.338   7.588 -0.0666 -0.0303  0.0928
 1246ERGO    C116361  14.384   3.235   7.941  0.1928 -0.3090  0.0925
 1246ERGO    C216362  14.258   3.053   8.181  0.1228  0.0787  0.3619
 1247ERGO   ROH16363  16.880  17.298   6.318  0.0830 -0.0620 -0.1326
 1247ERGO    R116364  16.890  17.352   6.595 -0.0757  0.2066 -0.1770
 1247ERGO    R216365  16.740  17.552   6.713 -0.6241 -0.0801 -0.3638
 1247ERGO    R316366  16.656  17.350   6.874 -0.0984 -0.1801 -0.1923
 1247ERGO    R416367  16.618  17.593   7.034 -0.8187 -0.1051 -0.4323
 1247ERGO    R516368  16.728  17.414   7.093 -0.3195  0.2424 -0.2298
 1247ERGO    C116369  16.467  17.426   7.371 -0.4386 -0.2136 -0.3113
 1247ERGO    C216370  16.297  17.325   7.663 -0.1197 -0.0459  0.1206
 1248ERGO   ROH16371   0.605  11.103  10.542  0.1109  0.0777 -0.2468
 1248ERGO    R116372   0.734  11.014  10.306  0.0751  0.0606 -0.2600
 1248ERGO    R216373   0.616  10.836  10.131  0.0041  0.1307 -0.2843
 1248ERGO    R316374   0.669  11.030   9.948  0.0787  0.1359 -0.2574
 1248ERGO    R416375   0.616  10.790   9.788 -0.1962  0.2198 -0.2975
 1248ERGO    R516376   0.792  10.918   9.776 -0.0945  0.0779 -0.3460
 1248ERGO    C116377   0.665  10.946   9.417 -0.2429  0.2768 -0.2800
 1248ERGO    C216378   0.633  10.835   9.048  0.1595 -0.1027 -0.0359
 1249ERGO   ROH16379   6.919  10.023  10.221 -0.0758  0.0226  0.0156
 1249ERGO    R116380   7.095   9.861  10.070 -0.0283  0.0426  0.0491
 1249ERGO    R216381   7.006   9.648   9.917  0.0251  0.0344  0.0307
 1249ERGO    R316382   7.140   9.777   9.719  0.0507  0.0492  0.0573
 1249ERGO    R416383   7.051   9.525   9.597  0.0804  0.0487  0.0329
 1249ERGO    R516384   7.255   9.602   9.602  0.0772  0.0582  0.0684
 1249ERGO    C116385   7.204   9.574   9.225  0.1368  0.0708  0.0592
 1249ERGO    C216386   7.037   9.547   8.874  0.1685  0.3381  0.2280
 1250ERGO   ROH16387   0.145  17.305   6.485 -0.1868  0.1026  0.0062
 1250ERGO    R116388   0.138  17.448   6.730 -0.1128 -0.0145  0.0775
 1250ERGO    R216389  -0.098  17.500   6.865 -0.0800 -0.0031  0.1279
 1250ERGO    R316390   0.032  17.381   7.071 -0.0967 -0.1469  0.0575
 1250ERGO    R416391  -0.196  17.516   7.196 -0.0719 -0.1759  0.1399
 1250ERGO    R516392   0.013  17.538   7.252 -0.0655 -0.2457  0.1488
 1250ERGO    C116393  -0.131  17.414   7.583 -0.0828 -0.4113  0.0808
 1250ERGO    C216394  -0.053  17.196   7.813  0.0881 -0.1551  0.1409
 1251ERGO   ROH16395   0.368  16.314   6.120 -0.0817  0.1756  0.0511
 1251ERGO    R116396   0.376  16.342   6.401 -0.1549 -0.0834  0.0806
 1251ERGO    R216397   0.348  16.127   6.573  0.1875 -0.3033 -0.1315
 1251ERGO    R316398   0.583  16.218   6.674  0.0323 -0.0038 -0.0221
 1251ERGO    R416399   0.420  16.159   6.910  0.0337 -0.3419 -0.0934
 1251ERGO    R516400   0.520  16.347   6.866 -0.2188 -0.1703  0.0161
 1251ERGO    C116401   0.683  16.262   7.200 -0.2015 -0.0833  0.0314
 1251ERGO    C216402   0.608  16.347   7.629 -0.2665 -0.0087 -0.0693
 1252ERGO   ROH16403   2.840  14.121   6.531 -0.1949 -0.0492 -0.0475
 1252ERGO    R116404   2.989  14.088   6.769 -0.0319 -0.1012 -0.1549
 1252ERGO    R216405   2.882  14.137   7.019  0.2112  0.0817 -0.0836
 1252ERGO    R316406   2.966  13.883   7.069  0.0224  0.0213 -0.0656
 1252ERGO    R416407   2.924  14.001   7.334  0.1433  0.0875 -0.0721
 1252ERGO    R516408   3.106  13.903   7.263  0.0623 -0.0616 -0.0836
 1252ERGO    C116409   3.028  13.684   7.565 -0.0735  0.0341 -0.0484
 1252ERGO    C216410   2.883  13.759   7.919 -0.0102 -0.1758  0.2054
 1253ERGO   ROH16411  15.568   2.388   6.665 -0.0921 -0.3019  0.0359
 1253ERGO    R116412  15.613   2.415   6.943 -0.0464 -0.1631  0.0154
 1253ERGO    R216413  15.555   2.648   7.081  0.1039 -0.0471 -0.1158
 1253ERGO    R316414  15.409   2.480   7.238  0.0223  0.1295  0.0016
 1253ERGO    R416415  15.473   2.707   7.411  0.1151  0.2295 -0.1597
 1253ERGO    R516416  15.511   2.497   7.454  0.0207  0.2412 -0.0052
 1253ERGO    C116417  15.289   2.584   7.751  0.0451  0.5563 -0.0749
 1253ERGO    C216418  15.139   2.760   8.002  0.1873  0.3836 -0.1083
 1254ERGO   ROH16419  11.135   8.512   6.848  0.2366 -0.1725  0.1356
 1254ERGO    R116420  11.134   8.643   7.099  0.2456 -0.0665  0.0812
 1254ERGO    R216421  10.942   8.830   7.167  0.3266  0.0669 -0.0419
 1254ERGO    R316422  10.907   8.668   7.382  0.1880  0.1720  0.0162
 1254ERGO    R416423  10.886   8.940   7.490  0.0082  0.2188 -0.1451
 1254ERGO    R516424  11.018   8.782   7.562 -0.0058  0.2988  0.0558
 1254ERGO    C116425  10.820   8.851   7.880 -0.3073  0.4058 -0.1506
 1254ERGO    C216426  10.757   8.962   8.150 -0.1729 -0.1103  0.0402
 1255ERGO   ROH16427   2.282   5.499   6.774  0.0679 -0.1054 -0.0399
 1255ERGO    R116428   2.356   5.495   7.047 -0.0376 -0.2393 -0.0134
 1255ERGO    R216429   2.388   5.725   7.196  0.3099 -0.2940 -0.0030
 1255ERGO    R316430   2.210   5.604   7.362  0.0344  0.0115 -0.0634
 1255ERGO    R416431   2.330   5.818   7.524  0.5044 -0.3039  0.0362
 1255ERGO    R516432   2.318   5.606   7.576  0.0439 -0.3154 -0.0563
 1255ERGO    C116433   2.129   5.759   7.871  0.3590 -0.0228  0.0022
 1255ERGO    C216434   2.210   6.018   8.149  0.0717  0.5029  0.0238
 1256ERGO   ROH16435   3.954   8.111   6.519  0.0912  0.1547  0.0631
 1256ERGO    R116436   3.846   8.272   6.725 -0.1283  0.1266 -0.0266
 1256ERGO    R216437   3.584   8.250   6.808 -0.1048 -0.1878 -0.0122
 1256ERGO    R316438   3.698   8.217   7.053 -0.0491  0.1047  0.0050
 1256ERGO    R416439   3.413   8.259   7.109 -0.1027 -0.2402 -0.0097
 1256ERGO    R516440   3.580   8.370   7.195 -0.2450  0.0319 -0.0792
 1256ERGO    C116441   3.421   8.233   7.513 -0.0490  0.0040  0.0078
 1256ERGO    C216442   3.355   8.187   7.819  0.0158 -0.1570 -0.0181
 1257ERGO   ROH16443   1.764  13.826  10.058  0.0283  0.0484 -0.0504
 1257ERGO    R116444   1.700  13.927   9.802  0.0183 -0.0237 -0.0772
 1257ERGO    R216445   1.890  14.033   9.632  0.0017  0.0016 -0.0848
 1257ERGO    R316446   1.790  13.850   9.458  0.0725 -0.0679 -0.0524
 1257ERGO    R416447   1.868  14.077   9.290 -0.1502 -0.0141 -0.0771
 1257ERGO    R516448   1.672  13.981   9.295 -0.0774 -0.1532 -0.0110
 1257ERGO    C116449   1.760  13.932   8.927 -0.1722 -0.0885 -0.0420
 1257ERGO    C216450   1.702  13.843   8.636 -0.1304 -0.0400 -0.0182
 1258ERGO   ROH16451   2.661  15.773  10.355  0.1601 -0.1365 -0.0596
 1258ERGO    R116452   2.729  15.629  10.120  0.1930 -0.0406 -0.1097
 1258ERGO    R216453   2.561  15.613   9.901  0.1579 -0.0774 -0.0809
 1258ERGO    R316454   2.779  15.706   9.768  0.0814  0.0762 -0.1008
 1258ERGO    R416455   2.593  15.625   9.557  0.0759  0.0476 -0.0845
 1258ERGO    R516456   2.800  15.561   9.579  0.1137  0.1463 -0.1509
 1258ERGO    C116457   2.816  15.720   9.232 -0.0436  0.2646 -0.1052
 1258ERGO    C216458   2.959  15.721   8.935 -0.1908 -0.4207  0.0588
 1259ERGO   ROH16459  10.149  12.367   6.522 -0.1389 -0.1907  0.1396
 1259ERGO    R116460  10.148  12.392   6.804 -0.0630  0.0044  0.1239
 1259ERGO    R216461  10.134  12.174   6.973 -0.2117  0.1305  0.2770
 1259ERGO    R316462  10.359  12.283   7.080 -0.0990  0.0189  0.1572
 1259ERGO    R416463  10.248  12.114   7.293 -0.1272  0.1528  0.2512
 1259ERGO    R516464  10.301  12.325   7.309  0.0154  0.1252  0.1680
 1259ERGO    C116465  10.526  12.180   7.581  0.0277  0.0610  0.1238
 1259ERGO    C216466  10.678  11.847   7.786  0.1813 -0.1121  0.2357
 1260ERGO   ROH16467   2.871  12.751   6.714 -0.0666 -0.0190 -0.0670
 1260ERGO    R116468   2.762  12.899   6.929 -0.3321 -0.1389 -0.1139
 1260ERGO    R216469   2.589  12.788   7.113 -0.0360 -0.4327  0.0039
 1260ERGO    R316470   2.771  12.883   7.293 -0.1754  0.0711 -0.1075
 1260ERGO    R416471   2.525  12.844   7.448 -0.0631 -0.2977 -0.0244
 1260ERGO    R516472   2.643  13.027   7.435 -0.4278 -0.0678 -0.1923
 1260ERGO    C116473   2.657  12.966   7.812 -0.2099  0.2538 -0.1455
 1260ERGO    C216474   2.586  12.818   8.246  0.2349  0.0264 -0.1507
 1261ERGO   ROH16475   6.724  17.036  10.601 -0.1537 -0.0964  0.1643
 1261ERGO    R116476   6.710  16.901  10.352 -0.1895 -0.0102  0.1194
 1261ERGO    R216477   6.479  16.782  10.259 -0.2341  0.1240  0.0575
 1261ERGO    R316478   6.525  16.938  10.041 -0.1421  0.1743  0.1115
 1261ERGO    R416479   6.310  16.756   9.959 -0.0732  0.1577 -0.0376
 1261ERGO    R516480   6.499  16.789   9.855 -0.0226  0.2063  0.0673
 1261ERGO    C116481   6.254  16.887   9.580  0.1069  0.2244 -0.0425
 1261ERGO    C216482   6.103  17.009   9.244  0.0037  0.0327 -0.0073
 1262ERGO   ROH16483  15.510   9.339   6.629  0.1806  0.1015 -0.0279
 1262ERGO    R116484  15.574   9.485   6.863 -0.0381  0.1580 -0.0002
 1262ERGO    R216485  15.382   9.609   7.018 -0.2179 -0.0543 -0.0403
 1262ERGO    R316486  15.496   9.464   7.217 -0.1134  0.0501 -0.0241
 1262ERGO    R416487  15.465   9.731   7.331 -0.2248  0.0530 -0.0807
 1262ERGO    R516488  15.648   9.615   7.323 -0.1722  0.1448 -0.0821
 1262ERGO    C116489  15.620   9.666   7.700 -0.1307  0.2134 -0.0891
 1262ERGO    C216490  15.557   9.649   8.047  0.0671 -0.1920 -0.0371
 1263ERGO   ROH16491   2.217   6.913   6.863  0.2640  0.1282 -0.2094
 1263ERGO    R116492   2.144   7.018   7.116 -0.1186  0.1427 -0.3192
 1263ERGO    R216493   2.331   7.079   7.311 -0.4275 -0.1578  0.0854
 1263ERGO    R316494   2.210   7.322   7.304 -0.1046  0.0036 -0.0946
 1263ERGO    R416495   2.309   7.296   7.578 -0.3198 -0.0213 -0.0149
 1263ERGO    R516496   2.105   7.343   7.518 -0.2236  0.2256 -0.1700
 1263ERGO    C116497   2.183   7.652   7.727  0.0460  0.2096 -0.2424
 1263ERGO    C216498   2.149   7.780   8.092 -0.0266 -0.1245 -0.0795
 1264ERGO   ROH16499   9.283   0.239   9.971  0.0842 -0.1867 -0.1766
 1264ERGO    R116500   9.213   0.170   9.705 -0.0193 -0.1477 -0.1593
 1264ERGO    R216501   9.091   0.348   9.533  0.0621 -0.0705 -0.1362
 1264ERGO    R316502   9.300   0.285   9.371 -0.0143 -0.2150 -0.1815
 1264ERGO    R416503   9.100   0.402   9.191  0.1411  0.2002 -0.0944
 1264ERGO    R516504   9.198   0.209   9.168 -0.1127  0.0853 -0.2505
 1264ERGO    C116505   9.302   0.374   8.841  0.1153  0.2221 -0.1126
 1264ERGO    C216506   9.330   0.522   8.514 -0.1818  0.2631  0.0569
 1265ERGO   ROH16507   0.645  14.766  10.185 -0.3139  0.1835  0.0651
 1265ERGO    R116508   0.560  14.844   9.926 -0.0338  0.2691 -0.0047
 1265ERGO    R216509   0.732  14.953   9.739  0.2686 -0.0783  0.0592
 1265ERGO    R316510   0.638  14.751   9.583 -0.0001  0.0407  0.0632
 1265ERGO    R416511   0.770  14.933   9.396  0.3569 -0.1987  0.0754
 1265ERGO    R516512   0.566  14.860   9.382  0.2403  0.1225  0.0190
 1265ERGO    C116513   0.703  14.733   9.050  0.1561 -0.1569  0.0886
 1265ERGO    C216514   0.759  14.705   8.716 -0.2721 -0.0485 -0.0206
 1266ERGO   ROH16515   5.285   7.311   6.557 -0.1268 -0.0783 -0.0490
 1266ERGO    R116516   5.326   7.281   6.835 -0.1516 -0.2028 -0.0569
 1266ERGO    R216517   5.477   7.075   6.942  0.0209 -0.1352 -0.1455
 1266ERGO    R316518   5.611   7.278   7.062 -0.1888 -0.0745 -0.0121
 1266ERGO    R416519   5.698   7.037   7.204 -0.1699 -0.0235  0.0331
 1266ERGO    R516520   5.615   7.218   7.294 -0.3398 -0.0856 -0.0184
 1266ERGO    C116521   5.953   7.206   7.470 -0.4777  0.0985  0.2623
 1266ERGO    C216522   6.137   7.284   7.713  0.2629  0.0929 -0.0386
 1267ERGO   ROH16523  16.618   3.319   6.824  0.0803 -0.1395  0.0239
 1267ERGO    R116524  16.581   3.250   7.096 -0.0546  0.0360  0.0511
 1267ERGO    R216525  16.760   3.321   7.294 -0.0751  0.0294  0.0663
 1267ERGO    R316526  16.539   3.427   7.411 -0.0454  0.2383 -0.0588
 1267ERGO    R416527  16.740   3.419   7.625 -0.1338  0.1466  0.0296
 1267ERGO    R516528  16.539   3.335   7.632 -0.2071  0.3026 -0.0274
 1267ERGO    C116529  16.521   3.576   7.927 -0.1401  0.4110 -0.1092
 1267ERGO    C216530  16.616   3.723   8.179 -0.0893 -0.0939  0.3109
 1268ERGO   ROH16531  17.186   2.324   6.861  0.3981 -0.1815 -0.0539
 1268ERGO    R116532  17.151   2.451   7.111  0.1722 -0.1326 -0.1082
 1268ERGO    R216533  16.991   2.345   7.311  0.0992 -0.1603 -0.1853
 1268ERGO    R316534  17.217   2.370   7.460 -0.0097 -0.0046 -0.0412
 1268ERGO    R416535  17.009   2.301   7.653 -0.0785 -0.2507 -0.1865
 1268ERGO    R516536  17.144   2.471   7.664 -0.2306 -0.1287 -0.0517
 1268ERGO    C116537  17.231   2.299   7.992 -0.2842 -0.1571 -0.0520
 1268ERGO    C216538  17.331   2.087   8.282  0.2205  0.1776 -0.2546
 1269ERGO   ROH16539  16.542   9.551   6.555 -0.2683 -0.2520  0.1747
 1269ERGO    R116540  16.482   9.420   6.798 -0.1475 -0.0250  0.3260
 1269ERGO    R216541  16.668   9.267   6.935 -0.1484 -0.0525  0.2562
 1269ERGO    R316542  16.602   9.432   7.142  0.1654  0.1326  0.2217
 1269ERGO    R416543  16.705   9.189   7.270  0.0410  0.0613  0.2662
 1269ERGO    R516544  16.513   9.285   7.309  0.1410  0.2807  0.3649
 1269ERGO    C116545  16.665   9.298   7.658  0.4459  0.3013  0.2397
 1269ERGO    C216546  16.784   9.100   7.983  0.0172 -0.0439  0.1267
 1270ERGO   ROH16547  11.336  13.922   5.944  0.2010  0.2872 -0.1172
 1270ERGO    R116548  11.253  14.059   6.177  0.2176  0.3523 -0.1499
 1270ERGO    R216549  11.294  13.960   6.432  0.0174  0.3057 -0.1361
 1270ERGO    R316550  11.413  14.201   6.472  0.2119  0.2028 -0.0730
 1270ERGO    R416551  11.352  14.103   6.741 -0.0741  0.2745 -0.1039
 1270ERGO    R516552  11.294  14.296   6.657  0.1610  0.3249 -0.1638
 1270ERGO    C116553  11.497  14.413   6.959  0.0552  0.1596 -0.0259
 1270ERGO    C216554  11.761  14.503   7.296  0.3358 -0.2036 -0.1288
 1271ERGO   ROH16555   3.382   3.814   6.508  0.1779 -0.0754  0.1296
 1271ERGO    R116556   3.438   3.869   6.780  0.2424 -0.2411  0.1505
 1271ERGO    R216557   3.252   3.981   6.952  0.4210  0.0713  0.1446
 1271ERGO    R316558   3.309   3.763   7.104 -0.0072 -0.0768  0.1078
 1271ERGO    R416559   3.223   3.966   7.296  0.1749 -0.0109  0.1235
 1271ERGO    R516560   3.409   3.853   7.302  0.0042 -0.2974  0.2062
 1271ERGO    C116561   3.260   3.754   7.639 -0.3703 -0.1979  0.0766
 1271ERGO    C216562   3.318   3.609   7.993  0.1952  0.0761 -0.1697
 1272ERGO   ROH16563   0.175  15.036  10.247  0.0503  0.0022 -0.1082
 1272ERGO    R116564   0.097  15.076   9.978  0.1319 -0.0588 -0.1403
 1272ERGO    R216565   0.269  15.177   9.786  0.2080 -0.1687 -0.1236
 1272ERGO    R316566   0.200  14.951   9.652  0.1791 -0.1883 -0.0785
 1272ERGO    R416567   0.266  15.145   9.442  0.0589 -0.1815 -0.1229
 1272ERGO    R516568   0.082  15.031   9.459  0.0779 -0.2103 -0.0313
 1272ERGO    C116569   0.200  14.915   9.115 -0.0551 -0.2074 -0.0802
 1272ERGO    C216570   0.167  14.895   8.674  0.2771  0.1802 -0.2234
 1273ERGO   ROH16571  16.500   5.940   6.931  0.2521  0.0165 -0.0447
 1273ERGO    R116572  16.430   5.861   7.194 -0.0342  0.3209 -0.0231
 1273ERGO    R216573  16.593   5.703   7.351 -0.4688 -0.0177  0.1097
 1273ERGO    R316574  16.565   5.906   7.528 -0.0213  0.1569 -0.0051
 1273ERGO    R416575  16.674   5.685   7.686 -0.5529 -0.0257  0.1295
 1273ERGO    R516576  16.494   5.799   7.731 -0.3026  0.4247  0.0463
 1273ERGO    C116577  16.694   5.865   8.049 -0.1817  0.1337  0.0333
 1273ERGO    C216578  16.780   5.826   8.437 -0.1655  0.0614  0.0953
 1274ERGO   ROH16579  15.793  15.104   9.892  0.1003  0.2547 -0.0622
 1274ERGO    R116580  15.969  15.121   9.671  0.1554 -0.0549 -0.0498
 1274ERGO    R216581  15.997  14.918   9.487 -0.1521 -0.1333 -0.0321
 1274ERGO    R316582  15.941  15.115   9.309  0.1726 -0.0536 -0.0483
 1274ERGO    R416583  16.094  14.917   9.155 -0.2048 -0.3397 -0.0460
 1274ERGO    R516584  16.138  15.130   9.173  0.1760 -0.4173 -0.0812
 1274ERGO    C116585  16.098  15.101   8.795  0.0690 -0.3850 -0.0694
 1274ERGO    C216586  16.143  15.067   8.476  0.1877  0.0890  0.1966
 1275ERGO   ROH16587   4.482   4.934   6.899  0.0112  0.4920 -0.0012
 1275ERGO    R116588   4.439   4.811   7.150  0.1467  0.3144 -0.0627
 1275ERGO    R216589   4.581   4.881   7.376  0.0476  0.3825 -0.0161
 1275ERGO    R316590   4.333   4.916   7.482 -0.0077  0.0249 -0.0182
 1275ERGO    R416591   4.515   4.925   7.713  0.0060  0.5416 -0.0450
 1275ERGO    R516592   4.340   4.796   7.690  0.2315  0.2061  0.0800
 1275ERGO    C116593   4.243   4.983   8.008 -0.0701  0.2986 -0.0638
 1275ERGO    C216594   4.237   5.007   8.373  0.1498 -0.0025  0.0047
 1276ERGO   ROH16595  11.366   9.413   6.397  0.2284  0.1405 -0.1535
 1276ERGO    R116596  11.375   9.555   6.642  0.1871  0.0741 -0.1116
 1276ERGO    R216597  11.287   9.816   6.666  0.2479  0.0966 -0.0700
 1276ERGO    R316598  11.135   9.712   6.865  0.1546  0.0792 -0.1519
 1276ERGO    R416599  11.198   9.983   6.955  0.1419  0.0527 -0.0785
 1276ERGO    R516600  11.231   9.799   7.066  0.0759  0.0337 -0.0973
 1276ERGO    C116601  11.003   9.983   7.310 -0.0073  0.0107 -0.1603
 1276ERGO    C216602  10.955  10.026   7.576 -0.0134 -0.2534 -0.2943
 1277ERGO   ROH16603   5.571  15.310   6.399 -0.1740  0.1437  0.0040
 1277ERGO    R116604   5.721  15.399   6.622 -0.0233  0.0311 -0.0525
 1277ERGO    R216605   5.606  15.456   6.867  0.1182  0.0768 -0.0007
 1277ERGO    R316606   5.791  15.280   6.959  0.0536 -0.0417 -0.0923
 1277ERGO    R416607   5.744  15.462   7.183  0.1075 -0.1398  0.0102
 1277ERGO    R516608   5.937  15.412   7.095  0.0970 -0.1612 -0.0141
 1277ERGO    C116609   5.999  15.300   7.454  0.0406 -0.3772 -0.0694
 1277ERGO    C216610   6.104  15.325   7.874 -0.2021  0.2975  0.1062
 1278ERGO   ROH16611   1.965   2.455   7.195 -0.2407 -0.1945 -0.0221
 1278ERGO    R116612   1.774   2.387   7.392 -0.1947 -0.0840  0.0620
 1278ERGO    R216613   1.820   2.193   7.583 -0.2311 -0.1263  0.0290
 1278ERGO    R316614   1.755   2.393   7.755 -0.0230 -0.0941  0.0717
 1278ERGO    R416615   1.798   2.158   7.926 -0.2076 -0.1620  0.0267
 1278ERGO    R516616   1.621   2.286   7.923 -0.0938 -0.0006  0.0753
 1278ERGO    C116617   1.725   2.326   8.288  0.0014 -0.1526  0.0654
 1278ERGO    C216618   1.644   2.356   8.689 -0.0606 -0.1861  0.2297
 1279ERGO   ROH16619   1.423   2.966   6.829  0.0262  0.0890  0.1665
 1279ERGO    R116620   1.470   2.977   7.107  0.0983  0.0359  0.1567
 1279ERGO    R216621   1.638   2.800   7.237  0.0974 -0.0181  0.0876
 1279ERGO    R316622   1.758   3.027   7.324  0.1630 -0.0543  0.0916
 1279ERGO    R416623   1.823   2.826   7.528  0.0420 -0.0539  0.1263
 1279ERGO    R516624   1.732   3.021   7.562  0.1079 -0.0178  0.0852
 1279ERGO    C116625   2.044   3.055   7.779  0.0714 -0.1087  0.1527
 1279ERGO    C216626   2.077   3.174   8.078 -0.0592  0.0462 -0.0086
 1280ERGO   ROH16627   7.042  15.977   6.551  0.1136 -0.1773  0.0521
 1280ERGO    R116628   7.277  15.956   6.708  0.0723 -0.1449  0.1192
 1280ERGO    R216629   7.272  15.963   6.985 -0.0074 -0.1463  0.1206
 1280ERGO    R316630   7.406  15.728   6.961  0.0303 -0.1280  0.1550
 1280ERGO    R416631   7.388  15.773   7.249 -0.0836 -0.1542  0.1482
 1280ERGO    R516632   7.569  15.734   7.136 -0.0374 -0.1236  0.2158
 1280ERGO    C116633   7.581  15.442   7.381 -0.0925 -0.1416  0.1965
 1280ERGO    C216634   7.712  15.227   7.541  0.0949  0.0555  0.2860
 1281ERGO   ROH16635   3.867  11.248   6.652 -0.1329  0.0753 -0.0275
 1281ERGO    R116636   3.905  11.392   6.893 -0.0085  0.0516 -0.0313
 1281ERGO    R216637   3.697  11.453   7.064  0.0637  0.1105  0.0425
 1281ERGO    R316638   3.855  11.330   7.248  0.0861  0.0475 -0.0194
 1281ERGO    R416639   3.728  11.551   7.394  0.0250 -0.0732  0.1011
 1281ERGO    R516640   3.942  11.510   7.381  0.0329 -0.0091  0.0882
 1281ERGO    C116641   3.895  11.492   7.759  0.0235 -0.2393  0.0770
 1281ERGO    C216642   3.907  11.571   8.099 -0.1253  0.1358 -0.2195
 1282ERGO   ROH16643  10.979  11.883  10.350 -0.0877 -0.0615  0.0351
 1282ERGO    R116644  10.884  12.014  10.118 -0.0773 -0.0320  0.0469
 1282ERGO    R216645  11.053  12.131   9.933 -0.0664 -0.0467  0.0452
 1282ERGO    R316646  10.918  11.973   9.758 -0.0989 -0.0160  0.0434
 1282ERGO    R416647  11.026  12.191   9.594 -0.1815  0.0439  0.0704
 1282ERGO    R516648  10.817  12.127   9.604 -0.1685  0.0123  0.1178
 1282ERGO    C116649  10.883  12.078   9.232 -0.2791  0.1254  0.0833
 1282ERGO    C216650  10.823  12.083   8.991  0.1387  0.1645  0.1376
 1283ERGO   ROH16651   6.829   7.796   6.601  0.1116  0.1431  0.0049
 1283ERGO    R116652   6.894   7.943   6.834  0.0837  0.0821  0.0515
 1283ERGO    R216653   6.725   8.132   6.943  0.1261  0.1472  0.0046
 1283ERGO    R316654   6.757   7.983   7.169 -0.0377  0.1024  0.0000
 1283ERGO    R416655   6.621   8.227   7.259  0.0394  0.1569 -0.0264
 1283ERGO    R516656   6.807   8.144   7.339 -0.0318  0.0585  0.0408
 1283ERGO    C116657   6.592   8.144   7.654 -0.1648  0.1204 -0.0487
 1283ERGO    C216658   6.498   8.055   7.938 -0.3881 -0.0006  0.1281
 1284ERGO   ROH16659  10.675   7.391   7.062 -0.2776 -0.1775 -0.0777
 1284ERGO    R116660  10.601   7.341   7.331 -0.2128 -0.1676 -0.0582
 1284ERGO    R216661  10.706   7.483   7.543 -0.1095 -0.2074 -0.0842
 1284ERGO    R316662  10.444   7.528   7.601 -0.0800 -0.1345 -0.0027
 1284ERGO    R416663  10.587   7.583   7.852  0.0398  0.0506 -0.1071
 1284ERGO    R516664  10.419   7.447   7.825  0.0117  0.0447  0.0758
 1284ERGO    C116665  10.273   7.684   8.086  0.1545  0.2694 -0.0438
 1284ERGO    C216666  10.224   7.751   8.299  0.0477  0.0187  0.0981
 1285ERGO   ROH16667   5.423   0.860   6.546 -0.1741  0.2154  0.0894
 1285ERGO    R116668   5.642   0.772   6.702 -0.1774 -0.1234 -0.0909
 1285ERGO    R216669   5.790   0.943   6.862  0.2215 -0.3484 -0.2193
 1285ERGO    R316670   5.728   0.762   7.055  0.1085 -0.2487 -0.1580
 1285ERGO    R416671   5.844   0.990   7.200  0.1125 -0.1888 -0.2219
 1285ERGO    R516672   5.907   0.782   7.214  0.0654 -0.2073 -0.1022
 1285ERGO    C116673   5.817   0.849   7.578 -0.0571 -0.0023 -0.1659
 1285ERGO    C216674   5.885   0.763   7.932  0.2930 -0.0332  0.1626
 1286ERGO   ROH16675   9.711  15.821   9.778  0.0980 -0.1289  0.0283
 1286ERGO    R116676   9.689  15.992   9.553 -0.0093 -0.0954  0.0638
 1286ERGO    R216677   9.862  15.977   9.338  0.0223  0.0816  0.0771
 1286ERGO    R316678   9.631  15.953   9.196  0.0536 -0.0605  0.0492
 1286ERGO    R416679   9.832  16.035   8.998  0.0430  0.0076  0.0625
 1286ERGO    R516680   9.640  16.132   9.037 -0.0134 -0.0818  0.0191
 1286ERGO    C116681   9.598  16.046   8.668  0.0843 -0.1689  0.0277
 1286ERGO    C216682   9.755  16.072   8.318 -0.3372  0.0507  0.0016
 1287ERGO   ROH16683  17.625   2.359   6.912 -0.1748  0.0184  0.0547
 1287ERGO    R116684  17.542   2.271   7.167 -0.1223 -0.0188  0.0597
 1287ERGO    R216685  17.626   2.032   7.277 -0.1462 -0.0668 -0.0160
 1287ERGO    R316686  17.702   2.191   7.484 -0.0475 -0.1269 -0.0064
 1287ERGO    R416687  17.657   1.926   7.604 -0.1128 -0.1195 -0.0363
 1287ERGO    R516688  17.568   2.115   7.669 -0.0308 -0.1029  0.0106
 1287ERGO    C116689  17.747   2.013   7.990 -0.0006 -0.2065 -0.0392
 1287ERGO    C216690  17.800   1.830   8.282 -0.1422  0.1877 -0.0187
 1288ERGO   ROH16691   0.822  15.179   6.309 -0.2109  0.0429  0.0150
 1288ERGO    R116692   0.839  15.324   6.552  0.0615  0.0927 -0.0308
 1288ERGO    R216693   0.698  15.252   6.778 -0.1313  0.4639 -0.0270
 1288ERGO    R316694   0.944  15.255   6.893 -0.1299 -0.0214  0.0075
 1288ERGO    R416695   0.759  15.310   7.113 -0.0632  0.3992 -0.0277
 1288ERGO    R516696   0.932  15.430   7.056  0.2009  0.0422 -0.0252
 1288ERGO    C116697   1.026  15.348   7.416 -0.0222 -0.0942  0.0044
 1288ERGO    C216698   1.209  15.372   7.703 -0.3449 -0.1299  0.2577
 1289ERGO   ROH16699   0.815  13.877   6.833 -0.0956  0.2332  0.0189
 1289ERGO    R116700   0.802  13.808   7.107  0.0037  0.0771 -0.0131
 1289ERGO    R216701   0.982  13.904   7.294 -0.0184  0.0978  0.0048
 1289ERGO    R316702   0.757  13.985   7.423 -0.0495 -0.1171  0.0884
 1289ERGO    R416703   0.935  13.891   7.636  0.0377 -0.1198  0.0054
 1289ERGO    R516704   0.730  13.827   7.600  0.0765 -0.2296  0.0050
 1289ERGO    C116705   0.697  13.961   7.956  0.0411 -0.4481  0.0842
 1289ERGO    C216706   0.500  14.067   8.255 -0.2134 -0.1131 -0.0185
 1290ERGO   ROH16707   3.317  16.225   6.640  0.2241  0.1835  0.0732
 1290ERGO    R116708   3.452  16.227   6.889  0.0539  0.1448  0.1680
 1290ERGO    R216709   3.360  16.369   7.107 -0.1640  0.0118  0.1685
 1290ERGO    R316710   3.377  16.128   7.231 -0.1356 -0.0333  0.0768
 1290ERGO    R416711   3.357  16.323   7.449 -0.1336 -0.1197  0.1509
 1290ERGO    R516712   3.511  16.170   7.425 -0.1250 -0.0976  0.0820
 1290ERGO    C116713   3.372  16.069   7.765 -0.0893 -0.2383  0.0546
 1290ERGO    C216714   3.179  15.979   8.092  0.0744 -0.0742 -0.1299
 1291ERGO   ROH16715   9.904   5.767   7.085 -0.0302  0.1435 -0.0969
 1291ERGO    R116716   9.991   5.793   7.353  0.0562  0.0177 -0.1113
 1291ERGO    R216717  10.066   6.035   7.462  0.1443 -0.0393 -0.0350
 1291ERGO    R316718   9.881   5.970   7.651  0.1837 -0.0740 -0.0093
 1291ERGO    R416719  10.087   6.118   7.797  0.0163  0.2449 -0.0943
 1291ERGO    R516720  10.010   5.920   7.846  0.2059  0.2067  0.0496
 1291ERGO    C116721   9.926   6.104   8.169 -0.0213  0.3777 -0.1047
 1291ERGO    C216722   9.851   6.221   8.518 -0.1509 -0.0366 -0.0376
 1292ERGO   ROH16723  12.425   7.359   7.105  0.0057  0.0877  0.1655
 1292ERGO    R116724  12.347   7.498   7.339 -0.1899 -0.1785  0.2640
 1292ERGO    R216725  12.242   7.371   7.560  0.1798 -0.5065  0.2562
 1292ERGO    R316726  12.443   7.501   7.690 -0.0325 -0.1308  0.2224
 1292ERGO    R416727  12.285   7.375   7.903  0.3085 -0.5630  0.2418
 1292ERGO    R516728  12.339   7.586   7.889 -0.1404 -0.4292  0.3023
 1292ERGO    C116729  12.498   7.500   8.225  0.1841 -0.2432  0.2017
 1292ERGO    C216730  12.549   7.533   8.545  0.0780 -0.1081 -0.0215
 1293ERGO   ROH16731   4.856  14.425  10.247  0.1260  0.3875 -0.1056
 1293ERGO    R116732   4.961  14.512   9.998  0.2271 -0.0393 -0.2191
 1293ERGO    R216733   5.043  14.335   9.801 -0.3882 -0.3924 -0.1787
 1293ERGO    R316734   4.870  14.478   9.648 -0.0890  0.0214 -0.1472
 1293ERGO    R416735   5.075  14.386   9.461 -0.4135 -0.6245 -0.2180
 1293ERGO    R516736   5.010  14.591   9.490  0.1533 -0.4164 -0.2654
 1293ERGO    C116737   4.933  14.549   9.119 -0.1474 -0.3710 -0.2113
 1293ERGO    C216738   4.818  14.583   8.846 -0.1635 -0.2156  0.1661
 1294ERGO   ROH16739   6.039  14.008   6.191 -0.1068 -0.0756  0.0027
 1294ERGO    R116740   5.989  13.961   6.465 -0.1875  0.1785  0.0335
 1294ERGO    R216741   6.166  13.824   6.628 -0.3935  0.0211  0.1279
 1294ERGO    R316742   6.148  14.048   6.781 -0.0692  0.1542 -0.0183
 1294ERGO    R416743   6.292  13.854   6.948 -0.3020  0.0651  0.0881
 1294ERGO    R516744   6.112  13.965   7.003 -0.1492  0.3478  0.0446
 1294ERGO    C116745   6.348  14.082   7.279  0.0559  0.2156 -0.0722
 1294ERGO    C216746   6.360  13.998   7.586 -0.4900 -0.0125  0.0956
 1295ERGO   ROH16747  11.868   3.271   6.940 -0.1461 -0.0678  0.0380
 1295ERGO    R116748  11.839   3.114   7.174 -0.1859 -0.0023  0.0766
 1295ERGO    R216749  12.020   3.123   7.383 -0.1446 -0.0518  0.0373
 1295ERGO    R316750  11.798   3.175   7.530 -0.0892  0.0938  0.0732
 1295ERGO    R416751  12.011   3.137   7.728 -0.0949 -0.1662  0.0446
 1295ERGO    R516752  11.820   3.034   7.722 -0.1930  0.0016  0.0227
 1295ERGO    C116753  11.797   3.195   8.068 -0.0139 -0.0961  0.0825
 1295ERGO    C216754  11.714   3.453   8.395  0.1311 -0.1234  0.0671
 1296ERGO   ROH16755   6.723   2.392   6.693  0.0005  0.1974  0.0047
 1296ERGO    R116756   6.694   2.350   6.971  0.0568 -0.0348 -0.0226
 1296ERGO    R216757   6.453   2.385   7.102  0.1639  0.2151  0.1125
 1296ERGO    R316758   6.499   2.131   7.186 -0.1971  0.0506 -0.1609
 1296ERGO    R416759   6.290   2.231   7.364  0.0794  0.2333  0.0711
 1296ERGO    R516760   6.479   2.142   7.424 -0.0207 -0.1405 -0.1341
 1296ERGO    C116761   6.237   1.902   7.596 -0.3088  0.0895 -0.2097
 1296ERGO    C216762   6.129   1.677   7.964  0.1951  0.1709 -0.2667
 1297ERGO   ROH16763   6.230   9.524   6.799  0.2355 -0.2040  0.0424
 1297ERGO    R116764   6.286   9.510   7.076  0.2069  0.1622  0.0724
 1297ERGO    R216765   6.221   9.713   7.251 -0.3181  0.1729 -0.1127
 1297ERGO    R316766   6.094   9.514   7.385  0.1134 -0.0270  0.0174
 1297ERGO    R416767   6.096   9.739   7.572 -0.3592  0.1018 -0.1233
 1297ERGO    R516768   6.168   9.537   7.611  0.0796  0.2726  0.0000
 1297ERGO    C116769   5.903   9.567   7.885  0.0220 -0.1273 -0.0073
 1297ERGO    C216770   5.796   9.727   8.236  0.4302 -0.0506 -0.0597
 1298ERGO   ROH16771   1.973   4.092   7.860 -0.3123  0.1107  0.2365
 1298ERGO    R116772   2.073   4.331   7.975 -0.1997  0.1079  0.1472
 1298ERGO    R216773   1.964   4.443   8.203 -0.0097  0.1288  0.2300
 1298ERGO    R316774   2.221   4.430   8.292  0.0611  0.1099  0.0269
 1298ERGO    R416775   2.148   4.712   8.318  0.0688  0.0978  0.1777
 1298ERGO    R516776   2.321   4.632   8.213 -0.0083  0.1395  0.0160
 1298ERGO    C116777   2.495   4.857   8.467  0.1810  0.0619 -0.0434
 1298ERGO    C216778   2.492   5.185   8.531  0.3380  0.1548  0.3280
 1299ERGO   ROH16779   4.258   6.502   6.835  0.0661  0.0015  0.0782
 1299ERGO    R116780   4.175   6.533   7.104  0.0255  0.0056  0.0649
 1299ERGO    R216781   4.279   6.383   7.311  0.0371  0.0494  0.0914
 1299ERGO    R316782   4.329   6.627   7.420 -0.0356  0.0722  0.0749
 1299ERGO    R416783   4.410   6.435   7.626  0.2158  0.1097  0.0089
 1299ERGO    R516784   4.272   6.601   7.651  0.1331  0.0244  0.1116
 1299ERGO    C116785   4.534   6.695   7.912  0.2517  0.1663 -0.0546
 1299ERGO    C216786   4.519   6.694   8.192  0.2268  0.0211  0.2691
 1300ERGO   ROH16787   5.229   1.193  10.673  0.1959 -0.0546 -0.1315
 1300ERGO    R116788   5.333   1.047  10.454  0.0904 -0.0160 -0.2081
 1300ERGO    R216789   5.172   0.928  10.263 -0.0000  0.0604 -0.1783
 1300ERGO    R316790   5.325   1.073  10.091 -0.0397  0.0781 -0.1994
 1300ERGO    R416791   5.178   0.885   9.921 -0.0715  0.0862 -0.1834
 1300ERGO    R516792   5.394   0.914   9.926 -0.0700  0.0917 -0.2264
 1300ERGO    C116793   5.326   0.995   9.559 -0.1503  0.1178 -0.2062
 1300ERGO    C216794   5.335   1.040   9.251 -0.0919 -0.0936 -0.4096
 1301ERGO   ROH16795   1.365  10.897   7.127  0.3481 -0.0129  0.2173
 1301ERGO    R116796   1.342  10.671   7.295 -0.0259 -0.1079  0.0452
 1301ERGO    R216797   1.401  10.679   7.566  0.1598 -0.4451  0.0082
 1301ERGO    R316798   1.150  10.579   7.590 -0.0454  0.0514  0.0878
 1301ERGO    R416799   1.249  10.594   7.864  0.2539 -0.4880  0.0465
 1301ERGO    R516800   1.165  10.419   7.767 -0.2090 -0.2136 -0.1150
 1301ERGO    C116801   0.925  10.451   8.061  0.1161 -0.0468  0.1436
 1301ERGO    C216802   0.746  10.211   8.338 -0.0592  0.1014  0.1693
 1302ERGO   ROH16803   5.926  17.669  10.380 -0.0811 -0.1841  0.0612
 1302ERGO    R116804   5.749  17.571  10.182 -0.0670 -0.0955  0.0045
 1302ERGO    R216805   5.605  17.738  10.016  0.0373 -0.0228 -0.0131
 1302ERGO    R316806   5.721  17.590   9.820  0.0321 -0.0429 -0.0010
 1302ERGO    R416807   5.533  17.766   9.679 -0.0229 -0.1045 -0.0074
 1302ERGO    R516808   5.543  17.549   9.664  0.0134 -0.1065  0.0361
 1302ERGO    C116809   5.600  17.643   9.299 -0.0628 -0.1710  0.0074
 1302ERGO    C216810   5.536  17.796   8.937 -0.1273 -0.3697 -0.0140
 1303ERGO   ROH16811   9.268  12.364   5.843 -0.1552 -0.1075  0.0152
 1303ERGO    R116812   9.168  12.436   6.098 -0.1444  0.0181 -0.0146
 1303ERGO    R216813   9.118  12.250   6.297 -0.3035  0.0926  0.0232
 1303ERGO    R316814   9.281  12.411   6.443 -0.2106  0.0141  0.0055
 1303ERGO    R416815   9.101  12.291   6.639 -0.3257  0.2069  0.0084
 1303ERGO    R516816   9.139  12.503   6.612 -0.1659  0.1675 -0.0441
 1303ERGO    C116817   9.244  12.465   6.976 -0.2514  0.1997 -0.0167
 1303ERGO    C216818   9.392  12.362   7.279 -0.0383 -0.2624 -0.0690
 1304ERGO   ROH16819  13.231  12.287   6.672  0.1537 -0.0494  0.2085
 1304ERGO    R116820  13.198  12.460   6.893 -0.1300  0.0966  0.0545
 1304ERGO    R216821  13.412  12.573   7.028 -0.3014  0.0992  0.3128
 1304ERGO    R316822  13.282  12.805   6.973 -0.1390  0.1193 -0.0210
 1304ERGO    R416823  13.494  12.882   7.159 -0.4215  0.1242  0.3343
 1304ERGO    R516824  13.282  12.924   7.180 -0.4625  0.2037 -0.0555
 1304ERGO    C116825  13.420  13.280   7.184 -0.3391  0.1577  0.0333
 1304ERGO    C216826  13.563  13.580   7.298  0.0459  0.0382  0.0476
 1305ERGO   ROH16827  13.336   6.323   6.847  0.2261  0.1001 -0.1599
 1305ERGO    R116828  13.238   6.325   7.113  0.0747  0.0920 -0.2153
 1305ERGO    R216829  13.388   6.237   7.327 -0.0472  0.0888 -0.1344
 1305ERGO    R316830  13.331   6.483   7.427 -0.1076  0.0847 -0.1557
 1305ERGO    R416831  13.466   6.343   7.646  0.0234  0.1698 -0.1772
 1305ERGO    R516832  13.272   6.442   7.656 -0.0140  0.0976 -0.1270
 1305ERGO    C116833  13.458   6.636   7.926  0.0076  0.2130 -0.2222
 1305ERGO    C216834  13.747   6.717   8.201  0.4699  0.1810 -0.0861
 1306ERGO   ROH16835  16.616  14.210   6.260 -0.1292 -0.0510 -0.0137
 1306ERGO    R116836  16.617  14.292   6.531 -0.1983 -0.0013 -0.0286
 1306ERGO    R216837  16.453  14.178   6.721 -0.1202 -0.0889 -0.0163
 1306ERGO    R316838  16.687  14.138   6.853 -0.0942  0.1078  0.0023
 1306ERGO    R416839  16.482  14.128   7.062 -0.1240 -0.2167 -0.0334
 1306ERGO    R516840  16.660  14.254   7.060 -0.2591 -0.0165  0.0544
 1306ERGO    C116841  16.720  14.062   7.384 -0.1016 -0.1064 -0.0258
 1306ERGO    C216842  16.696  13.820   7.763 -0.1227 -0.1037 -0.1952
 1307ERGO   ROH16843  16.807   1.435   6.830 -0.1301 -0.1650  0.1454
 1307ERGO    R116844  16.947   1.461   7.075  0.0277 -0.1795  0.0577
 1307ERGO    R216845  16.818   1.494   7.317  0.1874 -0.0123  0.1191
 1307ERGO    R316846  16.967   1.279   7.389  0.0826 -0.0902  0.1074
 1307ERGO    R416847  16.868   1.388   7.642  0.3882  0.1355  0.1388
 1307ERGO    R516848  17.075   1.346   7.591  0.3155 -0.0564 -0.0234
 1307ERGO    C116849  17.037   1.124   7.898  0.4067  0.1485  0.1394
 1307ERGO    C216850  16.872   0.916   8.095 -0.1657  0.1246  0.1784
 1308ERGO   ROH16851  11.341  17.174   8.053 -0.1294 -0.1952 -0.2117
 1308ERGO    R116852  11.308  17.455   8.059 -0.0392 -0.1819 -0.3248
 1308ERGO    R216853  11.145  17.589   7.881 -0.3297 -0.2518 -0.1136
 1308ERGO    R316854  11.033  17.687   8.109  0.1094 -0.0753  0.0376
 1308ERGO    R416855  10.996  17.900   7.911 -0.3075 -0.2435 -0.0837
 1308ERGO    R516856  11.088  17.920   8.107  0.0866 -0.0657 -0.2723
 1308ERGO    C116857  10.804  18.173   8.142  0.1177 -0.0732  0.0756
 1308ERGO    C216858  10.703  18.498   8.164  0.1059 -0.0953 -0.0372
 1309ERGO   ROH16859   5.474  16.521   6.797 -0.1425  0.0477  0.1393
 1309ERGO    R116860   5.560  16.371   7.021 -0.2339  0.0628  0.1852
 1309ERGO    R216861   5.827  16.328   7.077 -0.2588 -0.3026  0.0494
 1309ERGO    R316862   5.760  16.432   7.319  0.0415 -0.0379  0.0256
 1309ERGO    R416863   6.038  16.342   7.351 -0.1244 -0.6157 -0.0339
 1309ERGO    R516864   5.868  16.288   7.477 -0.2039 -0.1980  0.0541
 1309ERGO    C116865   6.097  16.447   7.737  0.2357 -0.5493 -0.1048
 1309ERGO    C216866   6.348  16.560   7.896 -0.3600  0.2722  0.2093
 1310ERGO   ROH16867   6.998  14.277   6.458 -0.1918 -0.1334  0.0996
 1310ERGO    R116868   6.999  14.536   6.573 -0.0221 -0.1518  0.1421
 1310ERGO    R216869   6.766  14.672   6.636  0.0647  0.0270  0.0833
 1310ERGO    R316870   6.881  14.688   6.882 -0.0068 -0.1073  0.1260
 1310ERGO    R416871   6.686  14.906   6.877  0.0931 -0.0185  0.1370
 1310ERGO    R516872   6.898  14.922   6.925  0.0850 -0.1293  0.2109
 1310ERGO    C116873   6.747  15.057   7.248  0.0425 -0.1710  0.2085
 1310ERGO    C216874   6.944  15.287   7.565  0.0694 -0.0156 -0.1371
 1311ERGO   ROH16875   8.007  14.083   9.635 -0.1750  0.0108  0.0002
 1311ERGO    R116876   7.923  14.064   9.365 -0.1069  0.0504 -0.0241
 1311ERGO    R216877   7.935  14.277   9.190  0.0515  0.0431 -0.0237
 1311ERGO    R316878   8.076  14.102   9.037  0.0079 -0.0302  0.0196
 1311ERGO    R416879   7.945  14.279   8.844  0.0203 -0.0700 -0.0257
 1311ERGO    R516880   7.936  14.061   8.848 -0.0163 -0.0677  0.0455
 1311ERGO    C116881   8.082  14.116   8.500 -0.0388 -0.2047  0.0139
 1311ERGO    C216882   8.084  14.113   8.151 -0.2266  0.3280  0.3168
 1312ERGO   ROH16883   3.425   1.303  10.696 -0.0309  0.0761  0.0774
 1312ERGO    R116884   3.286   1.434  10.486 -0.1307 -0.0411  0.0697
 1312ERGO    R216885   3.411   1.605  10.309 -0.2705  0.0874  0.0951
 1312ERGO    R316886   3.301   1.440  10.123 -0.0956 -0.0051  0.0713
 1312ERGO    R416887   3.418   1.660   9.968 -0.2466  0.0990  0.0974
 1312ERGO    R516888   3.213   1.588   9.957 -0.1877 -0.0749  0.0552
 1312ERGO    C116889   3.320   1.537   9.594 -0.0685  0.0190  0.0762
 1312ERGO    C216890   3.420   1.527   9.258  0.0738  0.0878  0.0218
 1313ERGO   ROH16891  10.661   7.620  10.484 -0.0886  0.0176 -0.0556
 1313ERGO    R116892  10.783   7.687  10.237 -0.0215  0.0009 -0.0265
 1313ERGO    R216893  10.930   7.504  10.090 -0.0692 -0.0370 -0.0228
 1313ERGO    R316894  10.758   7.575   9.892 -0.0065  0.0548 -0.0460
 1313ERGO    R416895  10.957   7.405   9.760 -0.0798 -0.0625 -0.0164
 1313ERGO    R516896  10.897   7.605   9.700  0.0386 -0.0276 -0.0295
 1313ERGO    C116897  10.810   7.413   9.382 -0.0272  0.0088 -0.0344
 1313ERGO    C216898  10.937   7.541   9.100  0.3286 -0.0482 -0.1447
 1314ERGO   ROH16899   1.111   8.369   6.442  0.1467  0.0915  0.0610
 1314ERGO    R116900   1.127   8.444   6.714  0.0855  0.0785  0.0689
 1314ERGO    R216901   0.904   8.469   6.876  0.0533 -0.0031  0.0418
 1314ERGO    R316902   1.040   8.296   7.035  0.0878  0.0279  0.0455
 1314ERGO    R416903   0.848   8.427   7.214  0.0948  0.0216  0.0514
 1314ERGO    R516904   1.064   8.412   7.243  0.0969  0.0480  0.0311
 1314ERGO    C116905   0.943   8.239   7.561  0.1513  0.0651  0.0605
 1314ERGO    C216906   1.017   8.149   7.793 -0.1849 -0.0444 -0.0692
 1315ERGO   ROH16907  10.463  12.312   9.756  0.1598  0.0622  0.0361
 1315ERGO    R116908  10.368  12.402   9.505  0.2028  0.1206  0.0403
 1315ERGO    R216909  10.471  12.312   9.266  0.0137 -0.0828  0.0318
 1315ERGO    R316910  10.211  12.253   9.212 -0.0836  0.2448  0.1265
 1315ERGO    R416911  10.330  12.314   8.950 -0.0742  0.0114  0.0721
 1315ERGO    R516912  10.151  12.406   9.037  0.0681  0.2755  0.0994
 1315ERGO    C116913  10.003  12.261   8.717 -0.2168  0.3738  0.1845
 1315ERGO    C216914   9.951  12.200   8.331 -0.1300 -0.0557  0.0357
 1316ERGO   ROH16915  12.289  17.696   6.447 -0.0199 -0.1301  0.0730
 1316ERGO    R116916  12.313  17.741   6.726 -0.0871 -0.1956  0.0897
 1316ERGO    R216917  12.195  17.956   6.853  0.1466 -0.0481  0.0591
 1316ERGO    R316918  12.087  17.763   7.010 -0.1914  0.0787 -0.0100
 1316ERGO    R416919  12.085  18.004   7.177  0.2779  0.0300  0.0922
 1316ERGO    R516920  12.171  17.811   7.229 -0.0668 -0.1606  0.0009
 1316ERGO    C116921  11.919  17.851   7.513  0.0369  0.1944  0.0466
 1316ERGO    C216922  12.033  17.767   7.872  0.0570  0.2594  0.2467
 1317ERGO   ROH16923  15.194  12.160   6.563  0.1959  0.0846  0.0686
 1317ERGO    R116924  15.066  12.171   6.815  0.1344  0.2476  0.0318
 1317ERGO    R216925  15.110  11.981   7.012 -0.1284  0.2158  0.0609
 1317ERGO    R316926  15.170  12.200   7.163  0.0682  0.1653  0.0595
 1317ERGO    R416927  15.130  11.984   7.357 -0.0344  0.1754  0.0563
 1317ERGO    R516928  15.031  12.178   7.356  0.1019  0.2493  0.0959
 1317ERGO    C116929  15.198  12.190   7.699  0.2049  0.1045  0.0523
 1317ERGO    C216930  15.307  12.169   8.020  0.1055 -0.0827  0.0489
 1318ERGO   ROH16931  11.298  10.831   8.122  0.0042  0.1144 -0.4025
 1318ERGO    R116932  11.100  11.023   8.058 -0.0790  0.1192 -0.1411
 1318ERGO    R216933  10.883  11.072   8.222  0.0747  0.0420  0.0916
 1318ERGO    R316934  10.971  11.329   8.207  0.0359  0.0557  0.0949
 1318ERGO    R416935  10.695  11.351   8.303  0.0546  0.0104  0.1547
 1318ERGO    R516936  10.780  11.453   8.131  0.0036  0.0367  0.1458
 1318ERGO    C116937  10.668  11.754   8.336  0.0067  0.0049  0.1945
 1318ERGO    C216938  10.545  12.135   8.554 -0.2393 -0.0265  0.1815
 1319ERGO   ROH16939   0.204  11.196   6.436 -0.3067  0.1312  0.1009
 1319ERGO    R116940   0.144  11.217   6.712 -0.1873  0.0023  0.1360
 1319ERGO    R216941   0.179  11.008   6.889  0.0029 -0.0387  0.0396
 1319ERGO    R316942   0.328  11.190   7.025 -0.0278 -0.0141  0.0447
 1319ERGO    R416943   0.209  11.020   7.233  0.2625 -0.2638  0.0302
 1319ERGO    R516944   0.198  11.237   7.221  0.0808 -0.2536  0.1865
 1319ERGO    C116945   0.366  11.198   7.561  0.3849 -0.3720  0.0293
 1319ERGO    C216946   0.486  11.190   7.877 -0.0190  0.0793 -0.1609
 1320ERGO   ROH16947   7.700   7.404   6.751  0.2511 -0.1998 -0.1312
 1320ERGO    R116948   7.771   7.360   7.021  0.1942 -0.0500 -0.0910
 1320ERGO    R216949   7.750   7.556   7.215 -0.0377 -0.0023 -0.1634
 1320ERGO    R316950   7.603   7.367   7.343  0.0748 -0.0833 -0.1520
 1320ERGO    R416951   7.661   7.568   7.548  0.2931 -0.2317 -0.0614
 1320ERGO    R516952   7.700   7.355   7.562  0.2921 -0.2470 -0.2534
 1320ERGO    C116953   7.471   7.398   7.864  0.5914 -0.4414  0.0086
 1320ERGO    C216954   7.355   7.573   8.201  0.0604 -0.1985 -0.1002
 1321ERGO   ROH16955  12.179   0.886   6.297 -0.1102  0.3164  0.0386
 1321ERGO    R116956  12.238   0.932   6.570 -0.1355  0.1899  0.0653
 1321ERGO    R216957  12.078   0.838   6.775 -0.1287  0.0561  0.0065
 1321ERGO    R316958  12.311   0.728   6.862 -0.1133  0.0570 -0.0313
 1321ERGO    R416959  12.138   0.729   7.098 -0.0486  0.1375  0.0202
 1321ERGO    R516960  12.338   0.813   7.084 -0.0425  0.1158 -0.0602
 1321ERGO    C116961  12.392   0.563   7.367  0.0123  0.1856 -0.0074
 1321ERGO    C216962  12.454   0.314   7.643 -0.0010 -0.2628 -0.5300
 1322ERGO   ROH16963  15.665   3.760   7.018 -0.1092  0.0058 -0.0409
 1322ERGO    R116964  15.729   3.660   7.274 -0.0234  0.0607 -0.0419
 1322ERGO    R216965  15.738   3.820   7.498 -0.1008  0.0771 -0.0576
 1322ERGO    R316966  15.565   3.636   7.598  0.0240 -0.0239 -0.0219
 1322ERGO    R416967  15.674   3.773   7.835 -0.2416  0.2764 -0.0539
 1322ERGO    R516968  15.672   3.557   7.798 -0.0031  0.2364  0.1047
 1322ERGO    C116969  15.474   3.572   8.124 -0.2064  0.2976 -0.0182
 1322ERGO    C216970  15.479   3.415   8.470  0.0354 -0.4656  0.0012
 1323ERGO   ROH16971   0.317  11.946  10.307  0.1060 -0.0048  0.0430
 1323ERGO    R116972   0.389  12.078  10.067  0.0426  0.0118  0.0334
 1323ERGO    R216973   0.579  11.977   9.893  0.0746  0.0788  0.0313
 1323ERGO    R316974   0.378  12.004   9.711  0.0565 -0.0099  0.0372
 1323ERGO    R416975   0.622  11.988   9.550  0.0303 -0.2168  0.0133
 1323ERGO    R516976   0.470  12.144   9.541  0.0758 -0.1770 -0.0929
 1323ERGO    C116977   0.459  12.019   9.180 -0.0125 -0.4723  0.0083
 1323ERGO    C216978   0.381  11.834   8.800 -0.1054 -0.0970 -0.1682
 1324ERGO   ROH16979   5.425   1.142   8.763  0.0930  0.0035 -0.0925
 1324ERGO    R116980   5.602   1.278   8.588  0.0243  0.0209 -0.1503
 1324ERGO    R216981   5.873   1.226   8.581  0.0547  0.1541 -0.1299
 1324ERGO    R316982   5.826   1.187   8.316  0.0675  0.0180 -0.1124
 1324ERGO    R416983   6.115   1.226   8.334  0.0051  0.5487 -0.1833
 1324ERGO    R516984   5.978   1.336   8.206 -0.2236  0.2764 -0.1740
 1324ERGO    C116985   6.211   1.190   7.942 -0.0117  0.6507 -0.1980
 1324ERGO    C216986   6.283   0.997   7.578  0.2976 -0.0496  0.2771
 1325ERGO   ROH16987  10.690  13.611   9.556 -0.0340 -0.0160 -0.0086
 1325ERGO    R116988  10.773  13.506   9.307 -0.0930 -0.0487 -0.0152
 1325ERGO    R216989  10.595  13.404   9.121 -0.1538  0.0824 -0.0319
 1325ERGO    R316990  10.716  13.582   8.956 -0.0317  0.0198 -0.0103
 1325ERGO    R416991  10.559  13.412   8.778  0.0724 -0.0257 -0.0595
 1325ERGO    R516992  10.772  13.455   8.761  0.0873 -0.0473  0.0662
 1325ERGO    C116993  10.652  13.584   8.422  0.3187 -0.1475 -0.0554
 1325ERGO    C216994  10.590  13.434   8.093 -0.3580  0.1687  0.1123
 1326ERGO   ROH16995   3.827   9.658   6.981 -0.1897  0.0341  0.1099
 1326ERGO    R116996   3.962   9.733   7.219 -0.0734 -0.0515  0.0720
 1326ERGO    R216997   3.989   9.996   7.298  0.0912 -0.0693  0.0809
 1326ERGO    R316998   3.877   9.904   7.529  0.1159 -0.0255  0.1106
 1326ERGO    R416999   3.966  10.176   7.593  0.0631  0.0096  0.0307
 1326ERGO    R517000   4.015   9.994   7.702  0.1021  0.0514  0.0815
 1326ERGO    C117001   3.848  10.194   7.980  0.0699  0.0970  0.0293
 1326ERGO    C217002   3.776  10.484   8.213 -0.2430 -0.1190  0.4288
 1327ERGO   ROH17003   5.403   5.972   6.716 -0.0245  0.0283 -0.0248
 1327ERGO    R117004   5.534   6.040   6.958 -0.1448 -0.1513  0.0934
 1327ERGO    R217005   5.534   5.874   7.179 -0.0521 -0.4288 -0.1087
 1327ERGO    R317006   5.803   5.903   7.160 -0.0709 -0.1621 -0.0121
 1327ERGO    R417007   5.763   5.758   7.410 -0.0103 -0.3089 -0.0887
 1327ERGO    R517008   5.876   5.942   7.385 -0.1774 -0.1886  0.0265
 1327ERGO    C117009   6.149   5.717   7.527 -0.0037  0.0112  0.0136
 1327ERGO    C217010   6.356   5.451   7.737  0.2316 -0.2043  0.2055
 1328ERGO   ROH17011  14.273  14.640   6.415  0.0163 -0.1256 -0.0964
 1328ERGO    R117012  14.153  14.486   6.620 -0.0421  0.0103 -0.0271
 1328ERGO    R217013  14.263  14.249   6.711 -0.1426  0.0001  0.0625
 1328ERGO    R317014  14.245  14.372   6.953 -0.0773  0.1043  0.0160
 1328ERGO    R417015  14.310  14.093   7.016 -0.2212  0.0893  0.1213
 1328ERGO    R517016  14.143  14.208   7.095 -0.1631  0.2089  0.0794
 1328ERGO    C117017  14.320  14.117   7.420 -0.2058  0.2389  0.1119
 1328ERGO    C217018  14.304  14.021   7.819 -0.0160 -0.0227  0.0968
 1329ERGO   ROH17019   5.371  12.759   6.531 -0.2816 -0.1121  0.0714
 1329ERGO    R117020   5.296  12.758   6.804  0.0048  0.1443  0.1561
 1329ERGO    R217021   5.314  12.533   6.962 -0.2379  0.1752  0.2264
 1329ERGO    R317022   5.460  12.696   7.123  0.2390 -0.0150  0.0097
 1329ERGO    R417023   5.418  12.452   7.282 -0.3715  0.2407  0.2874
 1329ERGO    R517024   5.371  12.657   7.342  0.1753  0.4506  0.0819
 1329ERGO    C117025   5.614  12.558   7.619 -0.0016  0.1003  0.1194
 1329ERGO    C217026   5.598  12.435   7.933 -0.1969  0.4248  0.2361
 1330ERGO   ROH17027  12.250   3.952   8.899  0.0247 -0.1174 -0.0642
 1330ERGO    R117028  12.481   3.796   8.850  0.1007  0.0054 -0.1016
 1330ERGO    R217029  12.690   3.885   8.693  0.1210  0.2001  0.0333
 1330ERGO    R317030  12.838   3.825   8.913  0.0693  0.0950  0.0400
 1330ERGO    R417031  12.984   3.703   8.690  0.1864  0.3053 -0.0011
 1330ERGO    R517032  12.919   3.603   8.872  0.1607  0.1512 -0.0931
 1330ERGO    C117033  13.294   3.541   8.894  0.1759  0.2678 -0.0147
 1330ERGO    C217034  13.535   3.475   8.859 -0.0528  0.0451 -0.1176
 1331ERGO   ROH17035   2.146  14.790  10.270  0.0891  0.0441 -0.0373
 1331ERGO    R117036   2.018  14.778  10.018  0.0539  0.0335 -0.0185
 1331ERGO    R217037   1.977  15.001   9.860 -0.0071  0.0328 -0.0018
 1331ERGO    R317038   2.105  14.852   9.673 -0.0106  0.0632 -0.0289
 1331ERGO    R417039   1.944  15.042   9.519 -0.1833 -0.0525  0.0041
 1331ERGO    R517040   1.944  14.825   9.498 -0.0766 -0.0583  0.0483
 1331ERGO    C117041   2.044  14.925   9.144 -0.2892 -0.0736 -0.0180
 1331ERGO    C217042   2.053  14.867   8.783  0.0106  0.1617 -0.0061
 1332ERGO   ROH17043  12.385   6.291   7.323 -0.0254 -0.0399 -0.1617
 1332ERGO    R117044  12.282   6.206   7.573  0.0119 -0.0865 -0.1623
 1332ERGO    R217045  12.404   6.011   7.726  0.1604  0.0469 -0.1106
 1332ERGO    R317046  12.395   6.203   7.918 -0.0357  0.0738 -0.1442
 1332ERGO    R417047  12.331   5.953   8.058 -0.0403  0.0709 -0.1491
 1332ERGO    R517048  12.213   6.136   8.059 -0.1074  0.0303 -0.2548
 1332ERGO    C117049  12.280   6.099   8.433 -0.3412  0.1101 -0.2030
 1332ERGO    C217050  12.482   6.103   8.843 -0.0926  0.2174  0.2698
 1333ERGO   ROH17051  12.439  11.407   6.766  0.1719 -0.2702 -0.0467
 1333ERGO    R117052  12.333  11.347   7.022  0.0310 -0.3444 -0.1201
 1333ERGO    R217053  12.435  11.147   7.183  0.1624 -0.1767  0.0214
 1333ERGO    R317054  12.453  11.348   7.365 -0.2535 -0.0960 -0.0184
 1333ERGO    R417055  12.508  11.104   7.518  0.2054  0.0504  0.0418
 1333ERGO    R517056  12.359  11.256   7.565 -0.0977 -0.2313 -0.0124
 1333ERGO    C117057  12.566  11.268   7.884 -0.1600  0.2584  0.0162
 1333ERGO    C217058  12.806  11.179   7.981 -0.2163 -0.2381 -0.2208
 1334ERGO   ROH17059   6.319   0.210  10.541  0.0605 -0.1018  0.1537
 1334ERGO    R117060   6.448   0.136  10.301  0.0850  0.0222  0.1300
 1334ERGO    R217061   6.314   0.019  10.089  0.1344  0.0137  0.1129
 1334ERGO    R317062   6.422   0.225   9.948  0.0306  0.0976  0.1508
 1334ERGO    R417063   6.333   0.034   9.745  0.0105  0.1356  0.1090
 1334ERGO    R517064   6.533   0.119   9.764  0.0001  0.1868  0.0735
 1334ERGO    C117065   6.445   0.235   9.412 -0.1591  0.2854  0.1423
 1334ERGO    C217066   6.404   0.258   9.024 -0.0149 -0.3231  0.0025
 1335ERGO   ROH17067   7.265   1.346   6.570 -0.1455  0.2292 -0.2209
 1335ERGO    R117068   7.299   1.293   6.846 -0.1411 -0.0437 -0.2703
 1335ERGO    R217069   7.416   1.474   7.019  0.0786 -0.3053 -0.1324
 1335ERGO    R317070   7.186   1.440   7.159  0.0689 -0.1953 -0.1216
 1335ERGO    R417071   7.397   1.436   7.362  0.0446 -0.0019 -0.0979
 1335ERGO    R517072   7.244   1.284   7.332  0.0595 -0.0373  0.0233
 1335ERGO    C117073   7.170   1.381   7.694  0.0157  0.2780 -0.0677
 1335ERGO    C217074   7.192   1.287   7.990 -0.0822 -0.2082  0.1522
 1336ERGO   ROH17075  11.917  12.611   6.265  0.1249 -0.2081  0.0618
 1336ERGO    R117076  11.892  12.758   6.506  0.2839 -0.0970  0.0139
 1336ERGO    R217077  11.710  12.691   6.703  0.1323  0.2304 -0.0034
 1336ERGO    R317078  11.931  12.690   6.861  0.0985 -0.0528  0.0429
 1336ERGO    R417079  11.705  12.700   7.048  0.0633  0.4099 -0.0098
 1336ERGO    R517080  11.875  12.836   7.042  0.2930  0.1322 -0.0430
 1336ERGO    C117081  11.909  12.703   7.398 -0.0088  0.2485  0.0300
 1336ERGO    C217082  11.824  12.803   7.673  0.0348 -0.0270 -0.6173
 1337ERGO   ROH17083   0.001   7.726   6.796  0.2253 -0.1719  0.0473
 1337ERGO    R117084  -0.050   7.870   7.034 -0.0016 -0.1577 -0.0076
 1337ERGO    R217085  -0.193   7.763   7.246  0.1101 -0.2786  0.0076
 1337ERGO    R317086   0.028   7.834   7.388 -0.0004  0.0654  0.0169
 1337ERGO    R417087  -0.194   7.863   7.577 -0.0778 -0.1140 -0.0414
 1337ERGO    R517088  -0.046   8.014   7.527 -0.2522  0.0473 -0.0870
 1337ERGO    C117089   0.012   7.987   7.903 -0.2908  0.3048 -0.0612
 1337ERGO    C217090  -0.045   8.017   8.216 -0.1557 -0.0193  0.0826
 1338ERGO   ROH17091   2.546  11.207   6.812  0.2584  0.2144 -0.0056
 1338ERGO    R117092   2.382  11.163   7.039  0.0695  0.3816 -0.1070
 1338ERGO    R217093   2.459  11.001   7.249 -0.3863 -0.0177 -0.2336
 1338ERGO    R317094   2.406  11.222   7.398  0.0927 -0.0226 -0.0367
 1338ERGO    R417095   2.277  11.002   7.543 -0.4218  0.1150 -0.2553
 1338ERGO    R517096   2.183  11.188   7.478 -0.0050  0.3989 -0.0996
 1338ERGO    C117097   2.121  11.211   7.854  0.0072  0.1875 -0.0830
 1338ERGO    C217098   2.077  11.139   8.196  0.1183  0.2256 -0.0373
 1339ERGO   ROH17099   4.812   8.049   6.881  0.0813  0.1841 -0.1464
 1339ERGO    R117100   4.693   7.906   7.093  0.0129  0.1305 -0.2212
 1339ERGO    R217101   4.756   7.951   7.358  0.0992 -0.0969 -0.2028
 1339ERGO    R317102   4.488   7.984   7.384  0.1275  0.0897 -0.1275
 1339ERGO    R417103   4.587   7.973   7.659  0.1537 -0.4187 -0.1450
 1339ERGO    R517104   4.429   7.850   7.573  0.0393 -0.1590 -0.3227
 1339ERGO    C117105   4.237   8.017   7.858  0.2121 -0.4308 -0.0405
 1339ERGO    C217106   4.070   7.922   8.165  0.1614  0.2282  0.0539
 1340ERGO   ROH17107   8.222   9.170   6.573  0.1875 -0.0060 -0.0460
 1340ERGO    R117108   8.139   9.370   6.756  0.1054 -0.1040  0.0255
 1340ERGO    R217109   8.073   9.314   7.018  0.2028 -0.2128  0.0275
 1340ERGO    R317110   8.258   9.505   7.072  0.0960 -0.1102  0.0319
 1340ERGO    R417111   8.076   9.513   7.301  0.1912 -0.3467  0.1221
 1340ERGO    R517112   8.134   9.681   7.176  0.0185 -0.2448  0.1733
 1340ERGO    C117113   8.251   9.808   7.515  0.0841 -0.3281  0.1815
 1340ERGO    C217114   8.247   9.879   7.802  0.1287 -0.1803 -0.1378
 1341ERGO   ROH17115  15.463   9.428  10.017 -0.0840 -0.2487 -0.0151
 1341ERGO    R117116  15.587   9.455   9.764  0.0012 -0.0122  0.0491
 1341ERGO    R217117  15.566   9.262   9.567  0.3377  0.0176 -0.0219
 1341ERGO    R317118  15.479   9.472   9.417  0.1381 -0.0445  0.0041
 1341ERGO    R417119  15.573   9.273   9.222  0.2818  0.0472 -0.0222
 1341ERGO    R517120  15.634   9.482   9.235  0.1058  0.1007 -0.0167
 1341ERGO    C117121  15.495   9.476   8.880  0.0619  0.0064  0.0019
 1341ERGO    C217122  15.466   9.456   8.468  0.2049  0.1311 -0.0921
 1342ERGO   ROH17123  11.631  15.989   6.589 -0.0210  0.1975 -0.0024
 1342ERGO    R117124  11.485  15.997   6.831  0.1465  0.2499  0.0965
 1342ERGO    R217125  11.343  15.779   6.927 -0.1340  0.4055  0.0154
 1342ERGO    R317126  11.493  15.822   7.150  0.0719 -0.0021 -0.0331
 1342ERGO    R417127  11.258  15.673   7.245 -0.3383  0.6019  0.0305
 1342ERGO    R517128  11.331  15.863   7.323  0.2113  0.4284  0.0216
 1342ERGO    C117129  11.349  15.650   7.639 -0.2637  0.3337 -0.0062
 1342ERGO    C217130  11.076  15.504   7.764  0.0110 -0.2496  0.1112
 1343ERGO   ROH17131  15.052   2.316   6.650 -0.0710  0.1674  0.2048
 1343ERGO    R117132  15.073   2.443   6.902  0.1203 -0.0314  0.2927
 1343ERGO    R217133  14.854   2.547   7.035  0.2821  0.2924  0.3131
 1343ERGO    R317134  14.943   2.389   7.238 -0.0478 -0.0101  0.2326
 1343ERGO    R417135  14.759   2.577   7.366  0.1581  0.1612  0.2908
 1343ERGO    R517136  14.966   2.537   7.424  0.0785 -0.1895  0.3664
 1343ERGO    C117137  14.788   2.446   7.749 -0.2240 -0.1992  0.2025
 1343ERGO    C217138  14.795   2.368   8.102 -0.1358  0.1220  0.0127
 1344ERGO   ROH17139   0.996   1.727   6.703 -0.1487 -0.0636 -0.0346
 1344ERGO    R117140   1.023   1.715   6.984 -0.1466 -0.3063 -0.0416
 1344ERGO    R217141   0.929   1.914   7.151  0.2275 -0.2361  0.1066
 1344ERGO    R317142   0.799   1.708   7.271 -0.1468 -0.0902 -0.0371
 1344ERGO    R417143   0.884   1.881   7.492  0.1216 -0.3773  0.0786
 1344ERGO    R517144   0.924   1.668   7.472 -0.2452 -0.4340 -0.0446
 1344ERGO    C117145   0.735   1.669   7.804 -0.2915 -0.3226 -0.0727
 1344ERGO    C217146   0.653   1.525   8.206 -0.1377  0.0502 -0.1289
 1345ERGO   ROH17147   4.804  11.010   6.670  0.0852  0.0826 -0.0969
 1345ERGO    R117148   4.910  11.140   6.898  0.0289  0.0605 -0.0576
 1345ERGO    R217149   5.003  11.400   6.890  0.1447  0.0202 -0.0390
 1345ERGO    R317150   4.828  11.435   7.095  0.0569  0.1161 -0.1289
 1345ERGO    R417151   5.046  11.625   7.149  0.1176  0.0189 -0.0334
 1345ERGO    R517152   4.968  11.474   7.286 -0.0214  0.0649 -0.0608
 1345ERGO    C117153   4.908  11.789   7.493  0.0194  0.1082 -0.1143
 1345ERGO    C217154   4.713  11.945   7.840  0.2736  0.1926  0.0165
 1346W        W17155  17.491  10.531   2.066  0.1260 -0.0070 -0.2962
 1347W        W17156   7.514  11.745  11.574 -0.0885 -0.2307 -0.0686
 1348W        W17157   3.363   7.903   4.080 -0.2695  0.2091  0.0984
 1349W        W17158  12.643   1.636  12.196 -0.2221 -0.0317  0.2369
 1350W        W17159  12.592  14.853  10.423  0.0768  0.2109  0.0432
 1351W        W17160   7.607   2.160   3.366  0.2360 -0.1160 -0.2419
 1352W        W17161  15.784   2.065  16.171 -0.0125  0.0876  0.1901
 1353W        W17162  15.755  14.837  12.407  0.2230  0.1398  0.0110
 1354W        W17163   1.896   5.109   4.828  0.1528 -0.0692  0.1082
 1355W        W17164   8.742  17.082  13.213  0.0239 -0.2979 -0.2199
 1356W        W17165  11.935   3.697   2.632  0.0948  0.2531  0.2932
 1357W        W17166   3.341   0.070   3.551 -0.1096 -0.2657 -0.1225
 1358W        W17167   7.730   7.770   1.905  0.2120 -0.4545 -0.1975
 1359W        W17168  12.988  12.972  12.912  0.1237 -0.1013  0.0433
 1360W        W17169  15.636   0.579   3.619  0.2779 -0.0795 -0.0358
 1361W        W17170   6.651   8.856   3.888  0.2104 -0.0862  0.0647
 1362W        W17171  15.641  17.460   5.013 -0.2903  0.1423 -0.4206
 1363W        W17172   1.731   5.007   3.281  0.2019 -0.0752 -0.4058
 1364W        W17173   4.340   0.390   5.421 -0.1269  0.1460  0.0614
 1365W        W17174   9.115  14.679   2.308 -0.2840  0.0699  0.1604
 1366W        W17175  12.283   3.823   3.957 -0.0735  0.4429  0.0857
 1367W        W17176   5.338   0.658   0.156  0.0627  0.0578  0.1563
 1368W        W17177  15.245   3.058  12.530  0.1520  0.1662 -0.0470
 1369W        W17178   2.262   9.981  12.484  0.2312  0.4413  0.1574
 1370W        W17179  15.683  16.299  15.136  0.1167  0.1648  0.0535
 1371W        W17180   1.022   8.318   3.174 -0.1508 -0.3479  0.1380
 1372W        W17181  16.078   9.147  13.886 -0.0446 -0.0071 -0.0054
 1373W        W17182   8.570   1.772   1.070 -0.3480  0.0885 -0.0089
 1374W        W17183  10.955   9.342   4.808  0.0225 -0.4483  0.1850
 1375W        W17184  11.068   5.229  14.690 -0.0350 -0.1043  0.1675
 1376W        W17185   7.420  11.181  13.004  0.0206  0.0190 -0.1271
 1377W        W17186  17.530  15.054  12.675  0.2848 -0.1700 -0.2147
 1378W        W17187  15.152  11.195  15.346 -0.0404 -0.1103  0.1277
 1379W        W17188   4.280   0.711   4.313  0.1708 -0.2060 -0.1237
 1380W        W17189   0.453   1.377   4.849 -0.0414  0.0299 -0.0792
 1381W        W17190  12.534  11.611   5.258 -0.1026  0.0213  0.2695
 1382W        W17191   6.272  17.572   0.323  0.2018  0.2919 -0.1265
 1383W        W17192  13.726   4.557  16.378  0.1092  0.0662 -0.3785
 1384W        W17193   2.624   8.436   1.386  0.2343  0.0937 -0.0702
 1385W        W17194   1.468   0.680   0.312 -0.0020 -0.3388  0.1504
 1386W        W17195   0.581   2.174   4.805 -0.1002  0.0561 -0.0156
 1387W        W17196   6.916  13.634   1.978 -0.1769 -0.2489  0.0822
 1388W        W17197   8.121   7.673  12.799  0.0859  0.0326  0.0404
 1389W        W17198   7.906  13.981   5.070  0.2597 -0.0896 -0.3011
 1390W        W17199   0.312   2.414   0.018 -0.1631  0.0649  0.1832
 1391W        W17200   1.061  17.670   4.408  0.0296  0.0238 -0.0210
 1392W        W17201   6.479  13.856   1.340  0.0131  0.1447 -0.3196
 1393W        W17202  10.087   0.706  16.383 -0.2896  0.2774 -0.0790
 1394W        W17203   6.677  10.279   4.326 -0.1669 -0.0622  0.0133
 1395W        W17204   4.435   3.450  12.035  0.0034  0.1556 -0.1753
 1396W        W17205   1.955  11.219  11.955 -0.0425 -0.2280 -0.0452
 1397W        W17206   2.862   5.034   1.444 -0.1548  0.0229  0.1805
 1398W        W17207   1.843   9.824  13.666  0.0036 -0.1622  0.1130
 1399W        W17208   5.247   1.271  13.652 -0.0730 -0.2106 -0.0641
 1400W        W17209   3.676   7.000   1.518 -0.0535 -0.0732  0.0088
 1401W        W17210  13.754  11.172  16.765  0.0302 -0.0301  0.3392
 1402W        W17211  14.418  10.545  16.947  0.1942 -0.3166 -0.3553
 1403W        W17212   7.826   0.263  13.205 -0.1345  0.3185 -0.3302
 1404W        W17213  16.349   6.696   0.807  0.1775  0.1073  0.1945
 1405W        W17214  12.489   2.181   3.179  0.0606  0.1025  0.1232
 1406W        W17215  12.180  16.976  12.694  0.1846  0.1045 -0.1043
 1407W        W17216  11.124   5.616   6.393  0.3449 -0.0858 -0.3626
 1408W        W17217   1.127   1.013  11.951 -0.1236  0.1545  0.1114
 1409W        W17218   8.109   8.523  15.340  0.1496 -0.1148 -0.3304
 1410W        W17219   5.299   6.410  13.761  0.0720  0.0348  0.0054
 1411W        W17220  13.598   5.918   2.553  0.1319  0.0176 -0.2642
 1412W        W17221   9.966   7.163  15.058  0.1165 -0.2428  0.1751
 1413W        W17222  16.371  16.353   3.282  0.0555  0.1460 -0.4555
 1414W        W17223   4.688  17.720   5.551 -0.1159 -0.1209 -0.2156
 1415W        W17224   9.476  11.904   5.622 -0.1613 -0.1704 -0.2309
 1416W        W17225  15.092   7.697  15.050 -0.0349  0.1929  0.0069
 1417W        W17226   3.453   7.046  13.942  0.1395 -0.1193 -0.1254
 1418W        W17227   7.581  11.191   3.563 -0.0921 -0.0995  0.1108
 1419W        W17228   6.091   9.814  14.422  0.0884  0.2369  0.1926
 1420W        W17229  11.407  14.992  11.291 -0.0458  0.2489 -0.2247
 1421W        W17230   1.796   8.272   5.252  0.1107  0.3251 -0.3217
 1422W        W17231  10.936   5.684  13.259  0.2542 -0.3388 -0.3493
 1423W        W17232  17.327   7.791   5.050  0.1051 -0.0412 -0.0824
 1424W        W17233  13.077  16.045   0.336  0.1463  0.0273  0.2150
 1425W        W17234  13.404  14.887   4.097  0.0971  0.1356 -0.2242
 1426W        W17235   9.877  10.205   3.580 -0.0065  0.0209 -0.0970
 1427W        W17236  11.068  13.993   0.954  0.1308 -0.3056 -0.1645
 1428W        W17237  11.873   8.924  16.610 -0.1623  0.1290 -0.2896
 1429W        W17238  15.721   3.010   4.060  0.2854  0.0830  0.0565
 1430W        W17239   8.771   3.083   1.347 -0.1929  0.1700  0.0713
 1431W        W17240  16.401  12.242   0.681 -0.0820 -0.3144 -0.2409
 1432W        W17241   8.443  14.333  12.398  0.1575  0.1841  0.1078
 1433W        W17242   2.477  16.985  11.016  0.0237  0.0971 -0.2600
 1434W        W17243   0.971  10.127  16.935 -0.0784 -0.0024 -0.0346
 1435W        W17244   8.252  14.271   4.345 -0.0799  0.1227  0.0167
 1436W        W17245   6.748  13.005  14.856  0.0386 -0.1289  0.1129
 1437W        W17246   2.870  11.697   3.099 -0.2752 -0.1957 -0.1934
 1438W        W17247  16.797  14.247  11.584  0.2535 -0.0001 -0.0217
 1439W        W17248  12.043  14.301  13.694 -0.0240  0.0163  0.1113
 1440W        W17249  10.279   0.305  14.882 -0.0029 -0.1299  0.0204
 1441W        W17250  15.041   6.059  13.183 -0.0549 -0.2580 -0.0478
 1442W        W17251  16.658   9.883  14.680  0.1672 -0.0992 -0.2186
 1443W        W17252  16.653  13.010   0.801 -0.0590 -0.1014  0.1647
 1444W        W17253   7.333   9.851   1.260  0.2252  0.0619 -0.0311
 1445W        W17254  16.808  15.868  12.022 -0.2966  0.0715 -0.0161
 1446W        W17255   6.084  15.545  12.920 -0.3117 -0.2266 -0.7141
 1447W        W17256  15.963  15.068   0.968  0.3313 -0.0078 -0.1134
 1448W        W17257   3.210  15.264   4.501 -0.0002  0.1014  0.0472
 1449W        W17258   1.727   3.454   3.091  0.1864 -0.0955 -0.2723
 1450W        W17259   3.514  12.109   5.350 -0.1122 -0.3303  0.0196
 1451W        W17260  10.269  12.856   4.954 -0.0308  0.1840 -0.1487
 1452W        W17261   4.586   8.049   3.961 -0.0139 -0.0521  0.0204
 1453W        W17262   0.561   0.779  14.688 -0.1453  0.2103  0.0904
 1454W        W17263  11.020   4.376   6.047  0.0858  0.2622 -0.0724
 1455W        W17264   9.910  16.275   2.177 -0.2160  0.0207  0.0822
 1456W        W17265   7.902  10.362   0.694 -0.3301  0.1517 -0.0697
 1457W        W17266  15.745   5.018   4.479 -0.0960  0.1953 -0.1576
 1458W        W17267   9.057   5.908  13.565 -0.1388 -0.1159 -0.2539
 1459W        W17268   5.562  14.700   4.441  0.1151 -0.3248  0.0925
 1460W        W17269   1.485  17.140   2.642 -0.3230 -0.0351  0.2614
 1461W        W17270  13.808   9.812   4.621 -0.3634 -0.0433  0.2079
 1462W        W17271   2.824   4.717  16.404 -0.3489  0.0859  0.0305
 1463W        W17272  15.070   9.345  14.821  0.1816  0.0581  0.1085
 1464W        W17273  15.799  16.385  13.058 -0.2584  0.0223 -0.0262
 1465W        W17274   1.606   9.630   5.243 -0.1666  0.2746 -0.1778
 1466W        W17275   1.681   3.290   4.428 -0.3134 -0.1139  0.1792
 1467W        W17276   7.841  11.727  16.831  0.2099 -0.0800  0.3849
 1468W        W17277   2.415  17.523  14.454  0.0509  0.3119 -0.1946
 1469W        W17278  12.346  13.226   5.195  0.1645  0.2838  0.0724
 1470W        W17279  13.640   7.353   3.131  0.2429  0.1416  0.0092
 1471W        W17280   2.047   1.270   6.083 -0.3650  0.2276 -0.2131
 1472W        W17281  17.007   8.507  15.146 -0.1394  0.0737 -0.1629
 1473W        W17282  13.735  11.417  13.068  0.2974  0.0511  0.1668
 1474W        W17283   2.465   6.117   2.674 -0.1217  0.3082  0.1070
 1475W        W17284  10.412   8.489   0.273 -0.1161 -0.1396 -0.1592
 1476W        W17285   9.092   7.797  13.692 -0.1184 -0.0239 -0.0797
 1477W        W17286  12.489  10.450   4.590  0.1264 -0.1334 -0.0653
 1478W        W17287   2.688   6.357  13.309  0.2045  0.1918  0.3086
 1479W        W17288   6.014  16.282   1.244 -0.1127  0.0055  0.1359
 1480W        W17289   5.630   5.065   3.813  0.0958  0.2331 -0.0336
 1481W        W17290   4.770  17.724   3.481  0.1311  0.1676 -0.0675
 1482W        W17291  14.199   5.602  14.094  0.1572 -0.0542  0.3527
 1483W        W17292  11.090   3.868   4.525  0.2046 -0.2249  0.1175
 1484W        W17293  14.749   7.593  14.432 -0.0613 -0.1629 -0.1751
 1485W        W17294   6.749  10.203  11.156  0.1389 -0.2714 -0.1895
 1486W        W17295   6.755  15.027  13.902  0.2422  0.0275  0.0975
 1487W        W17296  15.808   0.787  15.302  0.1650 -0.3228  0.0534
 1488W        W17297   1.615   2.295  14.213 -0.0576 -0.3077 -0.0150
 1489W        W17298  14.399  15.032  14.255  0.0706  0.1199  0.1568
 1490W        W17299  10.239  14.014   1.913  0.0552 -0.0484 -0.0306
 1491W        W17300   0.961   3.111  14.545  0.0738 -0.0869 -0.0100
 1492W        W17301   9.992   2.429   1.624  0.0698  0.0452 -0.1001
 1493W        W17302  17.225  11.330   0.083  0.3087 -0.3010  0.0438
 1494W        W17303  14.965  13.624   4.023  0.0741  0.2723 -0.2926
 1495W        W17304   8.777  16.898   3.270  0.0575  0.2935 -0.0598
 1496W        W17305  14.718  13.650  14.577  0.2509  0.1187  0.1020
 1497W        W17306   8.526   0.693  11.906 -0.1796 -0.1982  0.0026
 1498W        W17307   3.708   6.341   4.669  0.1259 -0.0538 -0.0555
 1499W        W17308   0.870   0.518   2.611 -0.4027 -0.1750  0.0516
 1500W        W17309  11.085  14.149  16.123 -0.1772  0.1849  0.4195
 1501W        W17310   7.648  12.989  10.198 -0.0176  0.1755  0.3104
 1502W        W17311   5.978   0.740  14.674  0.2718  0.1094 -0.1447
 1503W        W17312  15.767   1.942   0.923  0.0721 -0.1163 -0.2909
 1504W        W17313   1.989  12.957   3.291 -0.1186 -0.1103 -0.1469
 1505W        W17314  10.270   6.255  15.919  0.0651  0.0181 -0.2797
 1506W        W17315  16.049  14.373  11.215 -0.2199 -0.0724 -0.0652
 1507W        W17316   6.787   2.921  14.948  0.0734  0.1668  0.1583
 1508W        W17317   5.435   2.743   0.899  0.0986  0.1930  0.1657
 1509W        W17318   1.778  15.832  13.161 -0.3227  0.2077 -0.4607
 1510W        W17319   2.821  16.467   3.619  0.0928 -0.3373 -0.0467
 1511W        W17320  15.898   1.903  10.893  0.0906  0.1329 -0.0561
 1512W        W17321   7.971   7.335  11.937  0.3582  0.0712  0.1090
 1513W        W17322   9.609  10.872   1.425  0.0764  0.0692 -0.0894
 1514W        W17323  17.280   2.693   2.128  0.2297 -0.1059 -0.0934
 1515W        W17324  17.085  13.141  15.365 -0.0465  0.2639  0.1844
 1516W        W17325   3.633   0.635   1.731  0.1881  0.1311 -0.1285
 1517W        W17326  14.846  15.998   2.245 -0.0409 -0.1890 -0.2220
 1518W        W17327  15.042   7.402   3.578 -0.1704 -0.0067 -0.4386
 1519W        W17328   1.772   0.995   3.830  0.0944 -0.0429 -0.0691
 1520W        W17329  17.021  15.923  16.179 -0.1924 -0.1153 -0.0495
 1521W        W17330   1.116  17.318  15.000 -0.1500 -0.0954 -0.1591
 1522W        W17331   1.591   0.370  16.374  0.1165  0.2178  0.1162
 1523W        W17332   5.597   2.739   0.211 -0.1857  0.0091  0.0324
 1524W        W17333  11.896   8.493   0.829 -0.0205  0.2775  0.1813
 1525W        W17334  16.012   8.112   0.262 -0.2999  0.2523 -0.0467
 1526W        W17335  12.920   4.994   0.383 -0.0932  0.0034 -0.3251
 1527W        W17336   7.362   8.530   0.106  0.6026 -0.0904  0.0702
 1528W        W17337  17.363   8.882   0.912  0.0595  0.0303  0.2827
 1529W        W17338  13.569   0.934  12.949  0.2213  0.3913  0.0067
 1530W        W17339  15.025   6.552  13.585 -0.0656 -0.0735 -0.2704
 1531W        W17340   3.928   7.300   3.793  0.1621 -0.2232 -0.0374
 1532W        W17341   7.619  13.387   4.088  0.0184 -0.1722  0.0695
 1533W        W17342   5.830  12.371   1.245 -0.1618 -0.0968 -0.1674
 1534W        W17343  16.960  16.621   4.688 -0.0308  0.0376 -0.1262
 1535W        W17344  14.897   8.839   3.099  0.1967  0.0013 -0.1317
 1536W        W17345  16.387  14.362  14.292 -0.0476  0.0038 -0.1122
 1537W        W17346   3.367  14.646   1.422  0.1674  0.0768  0.1050
 1538W        W17347   9.592  11.504  14.174 -0.3456 -0.0165  0.1048
 1539W        W17348   2.922   3.543  13.523  0.0758  0.2295 -0.0800
 1540W        W17349   7.055  16.493   0.115 -0.0357  0.1403 -0.0208
 1541W        W17350  10.057   8.404  13.097  0.0261  0.2186  0.0249
 1542W        W17351   0.839  17.154   2.400 -0.3060  0.3907  0.0091
 1543W        W17352   9.376  17.217   4.202 -0.1471  0.1790 -0.1596
 1544W        W17353  16.497  10.403  15.895  0.1067  0.1400 -0.0487
 1545W        W17354   4.875   7.278  15.594  0.0878 -0.0644  0.2798
 1546W        W17355  15.114   8.512  15.878 -0.1616 -0.2857  0.2516
 1547W        W17356  14.667  15.215   1.064  0.1695  0.2093  0.3382
 1548W        W17357   4.199   3.956  15.052  0.0722 -0.4828  0.0191
 1549W        W17358  13.633  17.346   0.615  0.1382  0.0580  0.0372
 1550W        W17359  13.351  16.878  15.987  0.0076 -0.1987  0.0844
 1551W        W17360   6.222   4.981   1.136 -0.0038 -0.2934  0.1965
 1552W        W17361  13.769   4.544   3.740  0.2053  0.2123  0.0352
 1553W        W17362  10.302   0.321   0.852  0.5390  0.0773 -0.1487
 1554W        W17363  12.908  16.635   9.937 -0.1543 -0.0574  0.2351
 1555W        W17364   7.606   8.784   4.886 -0.1562  0.3821 -0.3275
 1556W        W17365   4.793  14.090  15.111  0.3302 -0.0081 -0.1432
 1557W        W17366   5.848   8.833   0.032 -0.1448  0.0270 -0.2320
 1558W        W17367   9.850  14.944  11.727  0.0503 -0.1044  0.0577
 1559W        W17368   9.695  14.388  15.151  0.0632 -0.0112 -0.2636
 1560W        W17369  15.951  16.523  16.944 -0.3245 -0.0566 -0.3424
 1561W        W17370  12.620  12.408  11.770  0.1745  0.1055 -0.2585
 1562W        W17371  15.857  11.194  10.390 -0.2254  0.0823 -0.1300
 1563W        W17372   1.281  17.712  14.557 -0.1801  0.2789 -0.1758
 1564W        W17373   6.567   2.618   3.548  0.1564  0.0456 -0.0170
 1565W        W17374  12.514   3.695  15.368 -0.1895  0.2105 -0.0706
 1566W        W17375   1.015  13.957   0.197  0.0638  0.2537  0.0816
 1567W        W17376   0.397   8.906   4.687  0.2496 -0.0651  0.1486
 1568W        W17377  17.280  10.368   4.502 -0.0435  0.2438 -0.0789
 1569W        W17378   3.109   0.380   6.205 -0.2184 -0.1527  0.0039
 1570W        W17379   1.740   9.564   3.215 -0.0362  0.0654 -0.4525
 1571W        W17380  14.046   6.032  16.878 -0.3815 -0.3325  0.0009
 1572W        W17381   2.259  15.122   6.126  0.1877 -0.0324 -0.0225
 1573W        W17382  12.731  14.725   1.772  0.1722 -0.1108 -0.1622
 1574W        W17383   8.256  14.349  13.815 -0.2621 -0.1139 -0.1002
 1575W        W17384   6.724  10.530   1.618  0.1044  0.1686 -0.2929
 1576W        W17385   4.082  17.462  12.678  0.1469  0.1686  0.0567
 1577W        W17386   9.251   4.810  15.510 -0.0642  0.0817  0.2061
 1578W        W17387   4.745   1.614   0.482  0.1425 -0.3804  0.2979
 1579W        W17388   1.207   1.623   4.996 -0.1018  0.1663  0.1836
 1580W        W17389   6.906  13.325  14.455 -0.0057  0.0850  0.1787
 1581W        W17390   0.188  17.228   2.584  0.2469  0.3106  0.1327
 1582W        W17391   5.556   7.786  11.536 -0.2089  0.0040  0.1477
 1583W        W17392   2.365  15.770   3.920  0.2481  0.5881 -0.0815
 1584W        W17393  16.459   7.431   3.906  0.0207 -0.2330 -0.1005
 1585W        W17394   8.698  14.334   4.748 -0.1109 -0.1242  0.0738
 1586W        W17395  13.195  13.775  11.895 -0.1237  0.3192 -0.0334
 1587W        W17396   9.715   8.351   1.331  0.0150 -0.1544  0.0393
 1588W        W17397  13.587  10.356   5.630 -0.0635  0.0239  0.0542
 1589W        W17398   4.259   8.410  12.844  0.2341  0.0586 -0.0197
 1590W        W17399   3.149  12.238  16.201  0.1166  0.5619 -0.2832
 1591W        W17400   2.155  16.450   2.493 -0.1429 -0.2290  0.3552
 1592W        W17401   4.689   0.558   5.723 -0.1437  0.0968  0.1331
 1593W        W17402   1.711   3.606  16.649 -0.0898 -0.0425  0.4701
 1594W        W17403  15.119   3.371   1.013 -0.1441 -0.2158  0.0197
 1595W        W17404   0.348   7.019   2.475 -0.1472 -0.1787 -0.0071
 1596W        W17405   8.370   6.666   3.752  0.1243 -0.1289 -0.2350
 1597W        W17406   3.768  14.047   2.494 -0.0943 -0.2748  0.0647
 1598W        W17407  17.307   5.291  15.766  0.4317  0.1587 -0.0171
 1599W        W17408   7.394   1.808   0.435  0.0004 -0.4021 -0.0981
 1600W        W17409   0.823   6.251  11.891  0.0624 -0.1240  0.4894
 1601W        W17410  14.361   4.077   3.349 -0.1785  0.1585  0.0897
 1602W        W17411  16.524  13.233  15.365  0.0213 -0.2802  0.1355
 1603W        W17412  11.496   2.718  16.135 -0.2431  0.1185 -0.1519
 1604W        W17413   9.240  16.632  14.717 -0.4392  0.2430 -0.1180
 1605W        W17414   8.346  12.063   6.123  0.0103  0.0958  0.1072
 1606W        W17415   4.165   8.561  16.889 -0.2686  0.1496  0.0993
 1607W        W17416   0.245   3.551  12.263  0.1663 -0.1414 -0.3256
 1608W        W17417   4.576  10.739   6.238  0.0432 -0.0964  0.2355
 1609W        W17418  16.751  11.683  14.739 -0.0117 -0.1407  0.2636
 1610W        W17419  15.635   9.583   4.083 -0.1333 -0.0748  0.2956
 1611W        W17420  16.472   9.128  13.037  0.0409  0.1188  0.2573
 1612W        W17421  14.184   0.036  12.083  0.0233  0.0641 -0.0420
 1613W        W17422   1.761   9.009   3.865 -0.2274  0.2036  0.0337
 1614W        W17423   6.852   8.152  12.982  0.0259  0.1639  0.0687
 1615W        W17424   8.713  12.084  15.431  0.0911  0.1940 -0.0320
 1616W        W17425  13.041   9.163  12.527  0.1059 -0.3407  0.1163
 1617W        W17426   6.464   7.952   0.675  0.2371 -0.0150  0.1816
 1618W        W17427  10.057  12.238  15.204 -0.2301  0.2274 -0.2309
 1619W        W17428   9.784  13.127  15.681  0.2023  0.0386 -0.1614
 1620W        W17429   4.981   0.805   0.412  0.2207  0.1232  0.1024
 1621W        W17430  12.724   4.855  16.319  0.1259  0.0987 -0.1564
 1622W        W17431   8.747   6.947  12.997  0.2958  0.3419  0.2177
 1623W        W17432   6.323  10.806   1.790 -0.0928 -0.0255  0.2324
 1624W        W17433   9.552   3.694   2.302  0.0259  0.1455 -0.0335
 1625W        W17434   6.038  16.385  12.479 -0.0310 -0.0279 -0.0209
 1626W        W17435   9.922  14.382  13.145  0.0877 -0.0214  0.0552
 1627W        W17436  12.512  16.845  12.222 -0.2148 -0.0486 -0.1800
 1628W        W17437   2.375  15.027  13.522  0.1978 -0.1967  0.1528
 1629W        W17438   2.397  15.930   4.748 -0.0540 -0.1755 -0.0958
 1630W        W17439  13.566   1.260  16.993  0.1811 -0.2797  0.3512
 1631W        W17440   5.273   6.107  11.971 -0.1807 -0.1406  0.0063
 1632W        W17441  15.874  16.325  12.126  0.1952 -0.0963 -0.2031
 1633W        W17442   6.698  15.008   2.091 -0.1443  0.1452  0.1503
 1634W        W17443   1.741  10.674   5.650  0.0988 -0.3371  0.0176
 1635W        W17444   5.370   5.336   1.358 -0.1055  0.1244 -0.1424
 1636W        W17445   9.778  14.557  15.804  0.0049  0.1970  0.0998
 1637W        W17446   8.003   8.333  11.188 -0.3342  0.0715 -0.0974
 1638W        W17447   1.267   0.804   3.826 -0.0493  0.1643  0.0528
 1639W        W17448   6.091  11.919  16.526  0.1005 -0.0779 -0.0102
 1640W        W17449   5.706  14.807   5.431 -0.1077 -0.1438 -0.1072
 1641W        W17450  10.485  13.137   3.399  0.4026 -0.0527 -0.1347
 1642W        W17451   1.322   0.304   5.445  0.1383 -0.1556  0.1195
 1643W        W17452  17.640   8.376   6.117  0.3274  0.2653 -0.0819
 1644W        W17453   7.742   9.352  13.932  0.0264 -0.0038  0.1888
 1645W        W17454  13.382  16.761   0.259  0.0426  0.2639 -0.0587
 1646W        W17455  11.336   0.707  12.986  0.2440  0.0586  0.2556
 1647W        W17456  16.807   5.329   0.323  0.2039  0.2467 -0.0816
 1648W        W17457   0.928   3.695   0.150 -0.3175  0.0478 -0.1737
 1649W        W17458   9.452   3.898  15.697 -0.4875 -0.1589  0.2141
 1650W        W17459  10.498   0.644  12.598 -0.0212  0.1734  0.2416
 1651W        W17460  10.898  16.537   2.619  0.0719 -0.0451  0.2667
 1652W        W17461   4.395   4.852   5.025 -0.4424  0.0211 -0.1507
 1653W        W17462  13.477   7.448  13.819  0.3086  0.2997  0.0455
 1654W        W17463  17.127  10.346   2.652  0.2253 -0.0107 -0.0074
 1655W        W17464   4.097   6.191  12.452  0.3064 -0.3186  0.1483
 1656W        W17465  14.587  16.737  11.402  0.1706  0.0168 -0.1214
 1657W        W17466   1.540  10.501   1.734 -0.0040 -0.0965 -0.0435
 1658W        W17467   4.774   6.792  15.503  0.0391 -0.0123  0.2299
 1659W        W17468   7.976   6.293   2.438  0.0614  0.1558  0.2884
 1660W        W17469  14.987   6.248   2.719  0.1994  0.1107 -0.0836
 1661W        W17470   4.303   2.848  15.063  0.1065 -0.0023 -0.1315
 1662W        W17471   7.944   0.072   4.694  0.0236  0.0909  0.1479
 1663W        W17472  17.240   6.943   1.862  0.2101  0.0406  0.0123
 1664W        W17473   0.681  12.653  13.179  0.0316  0.3034 -0.2251
 1665W        W17474   2.617   3.671   4.087  0.2026  0.0148  0.0348
 1666W        W17475  15.204  14.641  15.623  0.1162  0.1358 -0.1214
 1667W        W17476   6.170   5.961  11.445 -0.0573 -0.0783 -0.2206
 1668W        W17477  16.415  11.934  16.087  0.1390  0.0608 -0.0733
 1669W        W17478  14.823  14.663  13.460 -0.1792 -0.0615 -0.2641
 1670W        W17479  10.329  15.611  12.833  0.0905  0.1481 -0.2738
 1671W        W17480   7.716   8.249   3.210 -0.0670 -0.1500 -0.2568
 1672W        W17481   4.928  13.075  12.156  0.2142  0.2728  0.0545
 1673W        W17482   8.896   3.988  13.234 -0.0518 -0.0101 -0.1875
 1674W        W17483   0.109   8.280  11.998  0.3450 -0.1202  0.0529
 1675W        W17484  14.844  13.450   0.613 -0.1417 -0.2906  0.1622
 1676W        W17485   5.700   7.273  13.154  0.0088  0.2177 -0.0280
 1677W        W17486  13.279   0.610  12.452 -0.0206 -0.0853 -0.1806
 1678W        W17487  12.319   3.515  14.896 -0.0181 -0.1093  0.1422
 1679W        W17488  10.221  12.490   3.788  0.0436  0.0724 -0.1077
 1680W        W17489   0.844  13.324  11.976  0.1413  0.2668  0.0147
 1681W        W17490  13.558  15.371   4.636  0.0287 -0.0260 -0.4616
 1682W        W17491  10.394  16.152  15.231  0.1397  0.0072  0.0857
 1683W        W17492   2.162  15.885   0.299  0.1253 -0.1853  0.1167
 1684W        W17493   9.260  14.146  11.915  0.0143 -0.0414  0.2311
 1685W        W17494   4.922  16.068   2.789 -0.0298 -0.0810 -0.0067
 1686W        W17495  11.619  14.787  10.347  0.2631  0.0885  0.1199
 1687W        W17496   6.642  12.099  12.725 -0.2465 -0.0587  0.1568
 1688W        W17497  10.532  13.069  13.596  0.2531  0.0182  0.0601
 1689W        W17498   5.992   7.909  16.977 -0.1582 -0.1968 -0.1029
 1690W        W17499   9.668   4.413   1.494 -0.3187  0.1070 -0.1904
 1691W        W17500  16.395  11.321   4.872 -0.0002 -0.2163 -0.1360
 1692W        W17501  16.818  10.899   6.086 -0.1639 -0.0785  0.0072
 1693W        W17502  12.098   9.571  15.931  0.0641  0.0875 -0.2159
 1694W        W17503   4.116   8.914  16.508 -0.2114 -0.1472  0.0374
 1695W        W17504  13.466  11.933  13.823 -0.1941  0.1028  0.0181
 1696W        W17505  15.617  12.127   1.842 -0.0352 -0.1397  0.0477
 1697W        W17506   9.108   9.579  15.284 -0.0561  0.2473  0.0853
 1698W        W17507   0.408  15.570   2.375  0.1804 -0.4162  0.3232
 1699W        W17508  16.301   5.016  16.243  0.5225 -0.0054 -0.3070
 1700W        W17509  10.729  15.766   0.301  0.1200 -0.1994 -0.1569
 1701W        W17510   1.486  13.604   2.037 -0.0708 -0.0686  0.0907
 1702W        W17511   7.514  13.485   0.870  0.1402 -0.3604 -0.0432
 1703W        W17512  14.637   2.326  16.123  0.1400 -0.4613  0.2971
 1704W        W17513   4.685   6.131   4.890 -0.3207  0.1618  0.0178
 1705W        W17514   7.516  13.513   2.906  0.1715  0.3093 -0.2251
 1706W        W17515  11.646  14.498  14.001 -0.1239  0.1038  0.0359
 1707W        W17516  14.634   3.503   0.894 -0.1571 -0.0278  0.3576
 1708W        W17517   5.888  11.053  14.305  0.2170 -0.6672 -0.1116
 1709W        W17518   8.436   1.886   5.633  0.2276 -0.0539  0.1514
 1710W        W17519  15.253  16.179   2.108  0.2955 -0.0868  0.0978
 1711W        W17520   7.637   0.698   5.403  0.0204 -0.0589 -0.0994
 1712W        W17521  16.489  17.353  16.612  0.0746 -0.1901  0.1616
 1713W        W17522   1.720   4.689   2.474  0.0252 -0.0780  0.0687
 1714W        W17523   5.214   9.357   4.784  0.0287  0.3508  0.1529
 1715W        W17524   8.273  16.188  13.012  0.0988 -0.1809  0.4037
 1716W        W17525  15.222   3.036   5.541  0.0425 -0.0036  0.1017
 1717W        W17526   3.635  10.615  14.054  0.2720 -0.0641 -0.1327
 1718W        W17527   2.092   8.860  11.929 -0.2248  0.0513 -0.1213
 1719W        W17528   9.481  15.963  13.091  0.3770 -0.0627 -0.2138
 1720W        W17529   0.488   5.561   1.344  0.0004 -0.0030  0.0618
 1721W        W17530   6.323   3.187  16.717 -0.1776  0.1571 -0.2334
 1722W        W17531   6.402  14.040   0.265  0.1311  0.1383 -0.2416
 1723W        W17532   4.187  17.488   4.032  0.1937  0.0597 -0.0796
 1724W        W17533   2.920   6.992  13.998 -0.1705 -0.1054  0.0120
 1725W        W17534   3.034   6.724   0.685 -0.1449 -0.2363  0.2898
 1726W        W17535   3.419  14.037   5.215  0.0862 -0.2332  0.0835
 1727W        W17536  15.144  17.467   2.461  0.2424  0.0537  0.2674
 1728W        W17537  11.222   3.812  16.062  0.0948 -0.2594  0.1268
 1729W        W17538  12.267   2.370   2.095  0.2270  0.1991  0.1825
 1730W        W17539  16.525  14.250  16.620 -0.2300 -0.0243 -0.0655
 1731W        W17540   0.447   1.656   3.577 -0.2561 -0.0260  0.2055
 1732W        W17541   3.163  17.478  16.927 -0.0945 -0.1519  0.0367
 1733W        W17542  15.343   2.689  16.768 -0.0988  0.5483 -0.0666
 1734W        W17543   7.715  15.148  16.267 -0.0173  0.0991  0.1213
 1735W        W17544   0.422  14.624   3.183  0.3097  0.1914  0.0993
 1736W        W17545   8.018  16.014  13.440  0.1229 -0.1018 -0.0973
 1737W        W17546   7.275   7.438  15.314 -0.4459  0.0045  0.4319
 1738W        W17547  10.866   2.341   4.093  0.0938  0.0410 -0.0922
 1739W        W17548  11.206  17.269   4.022  0.0102  0.1390 -0.1787
 1740W        W17549   6.312  15.280  14.746  0.2776  0.1232 -0.1238
 1741W        W17550  12.931  15.868  14.087 -0.1378  0.0081 -0.1343
 1742W        W17551   6.158   3.501   3.822 -0.2100  0.1670 -0.4137
 1743W        W17552  12.995   8.474   3.336 -0.1909 -0.0186  0.1003
 1744W        W17553   4.097   1.139   4.079  0.0637  0.0041  0.0810
 1745W        W17554   1.608   6.668   1.789 -0.2706  0.0958 -0.0929
 1746W        W17555   8.846  12.842   3.649 -0.1409 -0.0536  0.0185
 1747W        W17556   9.045   6.385  16.700  0.1668  0.0131 -0.1334
 1748W        W17557   7.473  16.916  13.054 -0.1364 -0.0333  0.0649
 1749W        W17558   1.324   1.745  16.423  0.1000  0.3119  0.1192
 1750W        W17559  12.994  10.034  15.578  0.1845  0.2190  0.0923
 1751W        W17560   2.468  13.908   0.728  0.1682  0.0292 -0.0530
 1752W        W17561  12.601   6.139  12.759  0.0041 -0.0720  0.0558
 1753W        W17562   5.548  17.663  11.085 -0.0244 -0.2452  0.4129
 1754W        W17563  11.551  16.308   0.097  0.0659 -0.0134  0.2563
 1755W        W17564  15.637   7.866  14.824 -0.0631  0.0253  0.2156
 1756W        W17565   7.874   1.680   0.537  0.2116  0.4080 -0.1210
 1757W        W17566   6.609   4.206   1.268 -0.1095  0.1612 -0.0934
 1758W        W17567  12.301   2.847  15.001 -0.4656  0.1536 -0.1589
 1759W        W17568  12.955  17.379  13.163 -0.1757 -0.1797 -0.2089
 1760W        W17569  15.627   7.714   1.662 -0.0642  0.3556  0.1091
 1761W        W17570   9.289  10.562  12.645  0.1135  0.0825 -0.1006
 1762W        W17571  15.000  17.606   4.598 -0.0147  0.2110  0.0570
 1763W        W17572  17.288   2.892  15.655 -0.4769 -0.2004  0.0941
 1764W        W17573   5.564  16.663   3.286 -0.0731  0.1330 -0.3080
 1765W        W17574  17.624  13.468  14.180 -0.1955 -0.0364 -0.1667
 1766W        W17575  11.359   1.348  11.744 -0.1125  0.2760  0.0526
 1767W        W17576  14.687  15.203   5.229 -0.4020 -0.0045  0.0376
 1768W        W17577   6.633  16.489  16.889 -0.0356  0.2480 -0.1381
 1769W        W17578  15.125   2.568   1.329  0.0196 -0.1697  0.2186
 1770W        W17579  12.848  10.444  15.841 -0.0556 -0.1564  0.2263
 1771W        W17580   4.815  15.162  14.183 -0.2476 -0.1908  0.4008
 1772W        W17581   6.336   3.843   0.470 -0.2931  0.0930 -0.1873
 1773W        W17582  10.296  12.034  11.919  0.0660  0.1022  0.0992
 1774W        W17583  17.510  14.552  15.868 -0.2681 -0.1299 -0.1083
 1775W        W17584   9.817  13.436   2.606  0.1168 -0.1633  0.0032
 1776W        W17585  12.302   9.642   3.069 -0.1327  0.0234 -0.0439
 1777W        W17586   0.139  11.230  12.243 -0.0162 -0.3405  0.0089
 1778W        W17587   6.799   4.527   0.445  0.1522 -0.0284 -0.2854
 1779W        W17588   6.990   2.006  11.941  0.1747 -0.0074 -0.0004
 1780W        W17589   4.907   5.947  16.438  0.1586 -0.1320  0.0462
 1781W        W17590   3.369  11.368  15.789 -0.3240 -0.2700 -0.1416
 1782W        W17591   7.391  10.759  12.758  0.1702 -0.0249 -0.1004
 1783W        W17592   3.561  14.190  14.753 -0.2880  0.1661  0.1690
 1784W        W17593  16.702   3.087  15.639  0.0087  0.1326 -0.0769
 1785W        W17594  12.316  11.145  11.933 -0.1106  0.1816 -0.3281
 1786W        W17595  16.061  15.610   5.845  0.0406  0.2339 -0.0553
 1787W        W17596   0.980  15.591  13.393  0.1304 -0.2465  0.0783
 1788W        W17597  16.882   9.463  11.510  0.0989  0.0089 -0.0428
 1789W        W17598   1.651  11.686  15.121 -0.1151 -0.1548  0.2544
 1790W        W17599  10.678   4.718   3.419 -0.0223  0.1543 -0.0315
 1791W        W17600   9.910  11.690   3.383  0.3117 -0.0087 -0.0157
 1792W        W17601   4.304  10.761  14.036 -0.0145 -0.3732  0.0238
 1793W        W17602   8.823  11.023  13.749 -0.1396  0.0867 -0.2602
 1794W        W17603   6.437   3.222  14.656  0.1917  0.1852 -0.0888
 1795W        W17604   4.626   5.832   1.728 -0.2165  0.0683 -0.0068
 1796W        W17605   1.204   2.685   0.945 -0.0787 -0.1250  0.3193
 1797W        W17606   2.979   5.953   1.134 -0.0125  0.1204 -0.1635
 1798W        W17607   9.776  12.999  11.193  0.2932  0.0264  0.0033
 1799W        W17608   6.306  13.797  11.770  0.1008  0.1644 -0.1933
 1800W        W17609  13.037   0.332   4.429  0.2056 -0.2597 -0.0293
 1801W        W17610  13.974  14.210  15.433  0.0885  0.3297 -0.3253
 1802W        W17611   2.868   4.828  15.876  0.0490  0.1213 -0.1284
 1803W        W17612   0.686   4.698  16.784  0.1300  0.1751  0.0085
 1804W        W17613  14.649  13.252   0.232  0.0291 -0.0233 -0.0268
 1805W        W17614  10.640   3.024   1.918  0.1307 -0.2222  0.2146
 1806W        W17615   9.764   2.029   0.772  0.1779  0.2192  0.0011
 1807W        W17616   7.613   2.695   4.045 -0.1634  0.0996 -0.1726
 1808W        W17617  15.925   1.256   4.784  0.0649  0.1337 -0.3226
 1809W        W17618   3.869   8.248  12.311  0.0929  0.1064 -0.2456
 1810W        W17619   8.538  13.631   3.074  0.3126 -0.0416  0.0758
 1811W        W17620   7.648  17.013  14.441 -0.0725 -0.0085 -0.1133
 1812W        W17621   2.540  12.496   5.920  0.0532 -0.0055 -0.2594
 1813W        W17622   2.790   2.704   3.681 -0.0487 -0.0931 -0.0507
 1814W        W17623  11.651  13.280   3.496  0.0341  0.2029  0.1183
 1815W        W17624   2.681   6.253   1.469 -0.1198  0.1971 -0.2171
 1816W        W17625   3.510   6.139   1.194 -0.2304 -0.2135 -0.1683
 1817W        W17626   5.427   6.136   2.380  0.0608 -0.2245  0.0301
 1818W        W17627   9.356   2.518   4.066 -0.0004 -0.0087 -0.1317
 1819W        W17628  14.618  15.581   2.029 -0.0676  0.0017 -0.2041
 1820W        W17629  14.642   1.315  11.893 -0.2710 -0.2478 -0.3076
 1821W        W17630   7.768   9.860  14.778 -0.1417  0.1405 -0.2652
 1822W        W17631   3.446   9.909   3.745 -0.1487 -0.2034  0.0718
 1823W        W17632  13.498   1.245   2.249  0.0833  0.0870 -0.0235
 1824W        W17633  17.182   9.578  16.416 -0.0790 -0.1728 -0.1691
 1825W        W17634   0.842   8.770   4.393 -0.1983 -0.2283 -0.0396
 1826W        W17635   9.937   6.846  11.402 -0.2805 -0.1349 -0.1533
 1827W        W17636  16.242  11.912  15.600 -0.1477  0.2242  0.1631
 1828W        W17637  14.079   8.597   4.119  0.0897 -0.2437  0.0465
 1829W        W17638  12.109  17.563  15.647  0.1315  0.3505  0.1887
 1830W        W17639  15.877  12.564  16.274  0.1335  0.1987  0.0456
 1831W        W17640  16.932  10.728   1.347 -0.0131  0.0864  0.2696
 1832W        W17641   2.510  14.698   2.266  0.3233  0.0506  0.1967
 1833W        W17642   5.733  14.788   0.146  0.0791 -0.1250 -0.2747
 1834W        W17643   0.857   8.357   4.034 -0.0522 -0.0287  0.0554
 1835W        W17644   2.061   2.470  11.599  0.1284 -0.0734 -0.1702
 1836W        W17645   7.272   2.167  16.784  0.0412  0.2139  0.3031
 1837W        W17646  17.280   9.459   4.463  0.0542  0.2484 -0.1139
 1838W        W17647  14.080   1.791  15.181  0.1139  0.1100  0.1267
 1839W        W17648   5.177  10.445  16.142 -0.1129  0.0685 -0.0471
 1840W        W17649  11.901  11.595  12.834  0.3598  0.0389 -0.1355
 1841W        W17650   8.533  11.451  11.689  0.0440  0.2795  0.0356
 1842W        W17651   2.362  14.200  14.959 -0.0776  0.2559  0.1311
 1843W        W17652  15.766   9.839  16.961 -0.1103 -0.0605  0.0310
 1844W        W17653   7.121   0.695  16.543  0.1027 -0.4262 -0.0895
 1845W        W17654   6.446   5.766  14.033 -0.0231 -0.0833 -0.2229
 1846W        W17655  12.746  12.620   3.763  0.1844 -0.1275 -0.2648
 1847W        W17656  17.271  10.602  13.996  0.0006 -0.0401  0.1346
 1848W        W17657   8.983   7.826   5.727 -0.0079 -0.0191 -0.0060
 1849W        W17658   2.234   7.279  15.927 -0.2469  0.0275 -0.0016
 1850W        W17659   5.054   6.093   3.909  0.3873 -0.1642 -0.2075
 1851W        W17660  15.846  13.408  13.538 -0.3689 -0.1000  0.3412
 1852W        W17661   0.851   9.133   4.771 -0.2265 -0.3748 -0.0132
 1853W        W17662   8.083  17.633   2.706  0.1857 -0.1566  0.0417
 1854W        W17663  11.100  10.413   5.674 -0.1132 -0.0884  0.1875
 1855W        W17664  11.582   4.265  11.666 -0.1775  0.0734 -0.0475
 1856W        W17665  16.005   5.451   1.507  0.2154 -0.1158 -0.3514
 1857W        W17666   5.854  12.185  13.480 -0.1644  0.0185  0.1495
 1858W        W17667   7.300  12.764  11.192 -0.1362  0.1073  0.0467
 1859W        W17668   4.282   3.268  15.794  0.3215 -0.2623  0.1113
 1860W        W17669  10.526  10.722   3.944 -0.0958 -0.2880  0.0413
 1861W        W17670   1.303   2.061  14.960 -0.1173  0.2570  0.1367
 1862W        W17671   6.346   9.615   1.235  0.0253 -0.1408 -0.4085
 1863W        W17672  10.160   6.813  13.913 -0.1258 -0.0783  0.4735
 1864W        W17673   4.822  14.122   3.737 -0.0398 -0.0222 -0.2032
 1865W        W17674  13.616  17.389   2.223 -0.0392 -0.0800  0.2554
 1866W        W17675  10.042  15.973  13.690 -0.1526  0.0356 -0.1081
 1867W        W17676   6.390   8.707  13.698  0.1012 -0.0596  0.0461
 1868W        W17677  11.911  11.917  15.513  0.4163  0.0523 -0.0610
 1869W        W17678   0.644   3.228   5.656 -0.2133 -0.1552  0.0931
 1870W        W17679  17.520   6.795  15.413  0.1310 -0.0496  0.1759
 1871W        W17680  16.867  10.380   5.914  0.2686 -0.0931 -0.1352
 1872W        W17681  12.590  13.058   5.616 -0.1726  0.0693  0.1402
 1873W        W17682  12.178  17.574  11.425 -0.1731  0.1042  0.0176
 1874W        W17683   8.470  16.454   3.420  0.3784 -0.1883  0.0982
 1875W        W17684  16.345   6.760  14.656  0.0751 -0.1848  0.0154
 1876W        W17685  11.845   6.963   3.626 -0.1718 -0.0823  0.1645
 1877W        W17686  10.935   9.319  12.006 -0.2822  0.1250  0.1159
 1878W        W17687   9.444  13.138   2.250  0.0765  0.0399 -0.1903
 1879W        W17688  12.884   6.009   4.421  0.2201 -0.1336  0.4789
 1880W        W17689  15.218   9.275   3.089 -0.1150  0.0279  0.0607
 1881W        W17690  15.038  10.384  16.373  0.2070 -0.0565  0.0395
 1882W        W17691   8.864   7.683  15.815  0.0400  0.0663 -0.2530
 1883W        W17692   5.806   5.640   3.086 -0.2951 -0.0568 -0.0410
 1884W        W17693   6.503   9.959   0.869 -0.0834 -0.0427 -0.1156
 1885W        W17694   3.164   3.152   6.047 -0.3443 -0.0253 -0.1143
 1886W        W17695  13.359  11.621  15.601  0.2127  0.0340 -0.3315
 1887W        W17696  15.001   3.741  13.850  0.1251  0.0962 -0.0748
 1888W        W17697  10.303  13.194   5.770  0.1575 -0.0250 -0.0157
 1889W        W17698   6.892   8.762  14.654 -0.2739 -0.1063  0.1880
 1890W        W17699   3.368   9.677   1.037 -0.3291  0.3210 -0.1618
 1891W        W17700   1.836   6.081   3.012  0.2259  0.2895  0.0085
 1892W        W17701   5.447  13.030  13.678 -0.1449  0.0905  0.2790
 1893W        W17702   4.648   1.378   1.417  0.1790  0.2007  0.1137
 1894W        W17703   6.686  16.038   1.871  0.0541  0.0147  0.2272
 1895W        W17704  16.289   5.787   3.019  0.2541  0.1314 -0.1072
 1896W        W17705  13.911   8.751   5.790  0.0854 -0.2631 -0.2076
 1897W        W17706  11.203   5.279   1.290  0.2724 -0.0756 -0.0159
 1898W        W17707  11.770   6.727   6.086 -0.2060  0.0634  0.1872
 1899W        W17708  13.530  10.958   0.487  0.0566 -0.1298 -0.1402
 1900W        W17709   6.931  13.216   0.147  0.0222  0.1655  0.1181
 1901W        W17710  11.142   5.384   3.136  0.1395 -0.0890  0.0899
 1902W        W17711   4.864  15.628  12.368 -0.0181 -0.3017  0.0887
 1903W        W17712  12.717   4.291  12.281  0.2559  0.1099  0.1189
 1904W        W17713  10.074   5.244   1.419  0.2555 -0.0672 -0.0084
 1905W        W17714   8.242  13.920   3.958  0.1259  0.4397 -0.2174
 1906W        W17715   5.562  17.102  14.490 -0.0426 -0.0222 -0.0338
 1907W        W17716   1.458   7.293   5.145 -0.1115  0.0758 -0.3281
 1908W        W17717   2.546   5.730  12.442 -0.0901 -0.0196  0.1475
 1909W        W17718   3.127   2.692   6.318 -0.2971  0.0579 -0.1391
 1910W        W17719   7.651  16.087  11.574 -0.2828  0.1346  0.1448
 1911W        W17720  11.327   1.669   1.636  0.1552 -0.0273 -0.0755
 1912W        W17721   4.591  16.759   2.369  0.3589 -0.0090  0.0801
 1913W        W17722  14.145   6.068  12.471 -0.1679  0.1192 -0.0745
 1914W        W17723   3.833  14.262   3.531 -0.3873 -0.1654  0.0628
 1915W        W17724   3.506   1.778   4.041 -0.0590 -0.0325  0.2750
 1916W        W17725   1.896  12.028   3.688  0.1820 -0.1277 -0.2377
 1917W        W17726   8.352   5.091   3.901 -0.0168 -0.0574  0.0168
 1918W        W17727  11.864   3.391   4.932 -0.0682 -0.1634 -0.0996
 1919W        W17728  15.319  13.057   2.714  0.0168  0.1393  0.0380
 1920W        W17729   1.589   4.187  13.956 -0.0513  0.1486 -0.1139
 1921W        W17730   2.365  14.283   4.684 -0.2842 -0.0424 -0.0183
 1922W        W17731  11.215   3.643   2.035  0.0213  0.0538  0.1425
 1923W        W17732   7.365   8.883   4.389 -0.0326  0.0613 -0.0924
 1924W        W17733   5.008   3.459  16.665 -0.0784  0.0569 -0.2950
 1925W        W17734   0.581   0.386  14.211  0.0676 -0.0155 -0.1759
 1926W        W17735   5.785   9.975  12.550  0.1560 -0.0462 -0.1909
 1927W        W17736  12.945   6.165   3.240  0.0437  0.0135  0.2963
 1928W        W17737   7.684   8.751  13.946 -0.0408 -0.2115 -0.2092
 1929W        W17738   9.313   8.286  15.510  0.0344  0.4643 -0.0052
 1930W        W17739   2.314   3.727   4.888 -0.0222  0.0266  0.0674
 1931W        W17740   4.072   0.923   1.887  0.2262 -0.0969  0.1433
 1932W        W17741   1.512  12.630   3.222  0.3595 -0.0292 -0.2047
 1933W        W17742   4.940  12.488  15.115 -0.0651 -0.1510  0.2259
 1934W        W17743  15.160   9.503  15.363  0.0555 -0.1851  0.3157
 1935W        W17744  12.356   4.608  12.203  0.1279  0.0441 -0.0555
 1936W        W17745   3.741  12.165   5.838 -0.2275  0.0337 -0.0728
 1937W        W17746  12.981  10.533  16.324 -0.1731 -0.3318 -0.1743
 1938W        W17747   9.035  13.495   4.287 -0.0618 -0.2598  0.1377
 1939W        W17748   1.407  12.913   0.731 -0.1234 -0.1274  0.1938
 1940W        W17749  11.969   1.565   2.529 -0.0405 -0.1090 -0.0296
 1941W        W17750   1.164   4.125  12.626  0.1408  0.1479 -0.0067
 1942W        W17751  11.033  16.632   5.334 -0.0795  0.1352  0.1207
 1943W        W17752  14.069  10.441  13.240 -0.3047  0.1732 -0.0918
 1944W        W17753  13.352   4.878   0.568  0.2091 -0.3020 -0.0123
 1945W        W17754   3.784   1.084  12.860  0.2076  0.1920 -0.1305
 1946W        W17755  13.970  12.935   2.371 -0.0071  0.0815 -0.1440
 1947W        W17756   3.073   7.660   0.011  0.3633  0.1059  0.0955
 1948W        W17757   0.856  17.687  16.743 -0.0146 -0.0386  0.0737
 1949W        W17758  17.077   5.918  13.941  0.1192  0.1490  0.0939
 1950W        W17759   3.406  17.020   2.316  0.0216 -0.0890  0.0623
 1951W        W17760   5.285  10.073  12.677  0.2249 -0.1343  0.1999
 1952W        W17761   7.782   7.486   4.134 -0.3810 -0.0712  0.0093
 1953W        W17762  13.914  13.927   0.357  0.1063  0.1202  0.1811
 1954W        W17763   8.023   4.765   3.681  0.2899 -0.1593  0.0582
 1955W        W17764  12.700   2.002  15.099  0.0374 -0.0924  0.2197
 1956W        W17765   0.724   4.748  16.258 -0.1547  0.0895 -0.1469
 1957W        W17766  16.999   3.398   3.448 -0.0341 -0.1570  0.0558
 1958W        W17767   9.851  15.107  12.536 -0.1503 -0.1561  0.1295
 1959W        W17768  11.352  13.553  13.738 -0.1625 -0.0032  0.0558
 1960W        W17769  16.637   6.463   5.913 -0.1650 -0.2129 -0.1933
 1961W        W17770   3.521   7.824  12.309 -0.2086  0.1779 -0.0895
 1962W        W17771   8.689   6.804   2.964 -0.1487 -0.0008  0.0720
 1963W        W17772  12.179   1.341  14.840 -0.1121 -0.2614  0.3248
 1964W        W17773   1.983  12.598   2.888  0.1294 -0.0445 -0.0305
 1965W        W17774   3.856   6.239  11.975  0.1982  0.3133  0.5064
 1966W        W17775   5.951  15.640   2.684  0.1635  0.0350  0.2698
 1967W        W17776   3.766   3.226   0.195 -0.3225  0.2372  0.0488
 1968W        W17777   7.456   4.730  12.416  0.0554  0.2905 -0.1508
 1969W        W17778  13.462   8.821  11.977 -0.1418  0.0822  0.0074
 1970W        W17779   7.931   6.329  14.387 -0.1921  0.0179 -0.0215
 1971W        W17780   6.487   1.775  15.001  0.1064  0.1842  0.3140
 1972W        W17781   6.317  11.469  15.028  0.0488  0.0835  0.1564
 1973W        W17782  15.984  11.070   5.315 -0.4717  0.2453  0.3350
 1974W        W17783   8.201  12.299  13.876  0.1466 -0.2567 -0.1006
 1975W        W17784   7.518   5.627   3.167 -0.0358 -0.0622 -0.1322
 1976W        W17785   7.692  14.934  12.799 -0.0415 -0.2197  0.3025
 1977W        W17786   7.190   5.114   3.976 -0.1407 -0.0061 -0.1299
 1978W        W17787   0.541   8.796  15.882 -0.2961  0.0914 -0.0419
 1979W        W17788   8.377   7.102  13.377  0.1337  0.0708  0.1886
 1980W        W17789   2.393   2.296  13.783  0.2967 -0.0074  0.2255
 1981W        W17790  16.474  10.225  12.825 -0.4229  0.0787  0.3192
 1982W        W17791  14.023  10.017  12.960  0.1638  0.0313  0.1131
 1983W        W17792   3.130  11.742   4.442 -0.1523  0.1028  0.2010
 1984W        W17793   1.078  15.577  11.631 -0.0517 -0.2284  0.0586
 1985W        W17794  11.307  11.077   4.030 -0.1311  0.0689 -0.1101
 1986W        W17795   6.265  13.075   1.696 -0.1375  0.0017 -0.1523
 1987W        W17796  16.799   8.111   3.418  0.1931  0.0914 -0.0826
 1988W        W17797  13.337  13.294  14.476  0.0569  0.1817 -0.0532
 1989W        W17798  15.821   4.565  14.459  0.0314 -0.0558 -0.2173
 1990W        W17799  15.584   0.516  14.212 -0.0825  0.0541 -0.0409
 1991W        W17800   1.824  16.311   0.336 -0.2957 -0.1329 -0.2765
 1992W        W17801  11.905  14.597  16.522 -0.0132  0.0959 -0.0647
 1993W        W17802  16.700  14.835   4.958  0.0350  0.1178  0.2132
 1994W        W17803   6.996   4.451  15.572 -0.0375  0.4865 -0.2920
 1995W        W17804  10.387  17.350  13.503 -0.0715  0.0262  0.0192
 1996W        W17805   5.856  13.730   1.105  0.1367  0.1352 -0.2040
 1997W        W17806   4.247   5.845   0.162 -0.2585  0.0649 -0.2232
 1998W        W17807  12.837   0.755  15.808 -0.1788  0.4034 -0.3192
 1999W        W17808   5.699   8.691  12.519 -0.1628  0.2100 -0.0932
 2000W        W17809   2.888  14.277  16.868  0.0741 -0.1370  0.1319
 2001W        W17810  16.905  14.352  13.061  0.1574  0.1356 -0.1596
 2002W        W17811  17.707  17.213   6.024  0.2285 -0.2136  0.3203
 2003W        W17812  11.911  12.047   0.598  0.0877 -0.0848 -0.0427
 2004W        W17813  15.590  11.770   4.730 -0.0437 -0.1415  0.2131
 2005W        W17814  12.499  10.840  12.816 -0.0160 -0.3160  0.1911
 2006W        W17815   4.463   3.892  14.543 -0.0608 -0.0413  0.1088
 2007W        W17816   1.134   1.404  13.846 -0.1655  0.1799 -0.0670
 2008W        W17817  14.394  10.174  15.609 -0.1242 -0.0860 -0.1289
 2009W        W17818   4.087  10.422  14.300 -0.2530  0.1369 -0.1499
 2010W        W17819   6.269  17.437   2.523 -0.1119 -0.2723  0.0679
 2011W        W17820   2.711  11.000   2.370 -0.1548  0.0209  0.1079
 2012W        W17821   0.871  13.859  12.888  0.2644  0.2741 -0.5553
 2013W        W17822   0.396  11.261   2.413  0.3133 -0.2931  0.0169
 2014W        W17823  13.381  14.350   4.303  0.1016  0.0978  0.1253
 2015W        W17824   4.383  17.165  15.363 -0.1318  0.0219  0.0068
 2016W        W17825   4.772  15.359  13.309 -0.0395 -0.1313  0.0440
 2017W        W17826   2.676  14.231  14.469 -0.2163  0.0539  0.1304
 2018W        W17827  15.438   0.771   4.124 -0.2250  0.3139 -0.0621
 2019W        W17828   5.747   9.677  16.578 -0.1672 -0.1714 -0.1360
 2020W        W17829   7.453   0.384   0.418 -0.2947 -0.3447  0.1105
 2021W        W17830   6.952   0.983  16.205  0.2710  0.0274  0.0844
 2022W        W17831   1.309  10.798  13.785  0.0239 -0.3802 -0.0246
 2023W        W17832  12.663  16.537  11.763 -0.3877  0.0791 -0.1949
 2024W        W17833   1.842   9.891  16.316 -0.2985  0.1511  0.1374
 2025W        W17834   4.455   1.544  13.072  0.1990  0.1236 -0.0622
 2026W        W17835  16.520   4.100   3.645  0.0485  0.1238 -0.0211
 2027W        W17836  16.784  14.229  13.992 -0.0586  0.0588 -0.0075
 2028W        W17837  16.089   9.237  14.461 -0.1845 -0.0657 -0.0127
 2029W        W17838   4.742   8.522  14.656 -0.2089 -0.0459  0.2405
 2030W        W17839   1.487  16.289   0.803  0.1590  0.2328 -0.0413
 2031W        W17840  12.695  13.975  10.520 -0.2172 -0.3370  0.1789
 2032W        W17841   6.192  13.820  13.051  0.0209  0.1334 -0.0418
 2033W        W17842  15.433   3.999  12.099 -0.1214  0.1971  0.0910
 2034W        W17843   3.339   4.163  12.712 -0.0390 -0.1472  0.0251
 2035W        W17844  10.581  10.259   0.921  0.0940  0.2474  0.0380
 2036W        W17845  11.999  16.645  16.885 -0.3430 -0.0620  0.0816
 2037W        W17846  11.493   0.208  13.537 -0.2282  0.4796  0.0239
 2038W        W17847   5.141   0.771  15.591 -0.2468 -0.0554 -0.1218
 2039W        W17848   2.138   9.568   5.407  0.1971  0.3624  0.1030
 2040W        W17849   8.868  11.711   4.415  0.0971  0.1131  0.1099
 2041W        W17850  16.576   3.739   2.911 -0.2769 -0.0931 -0.2809
 2042W        W17851  13.697   1.842   3.190 -0.0244 -0.0001 -0.1051
 2043W        W17852   1.146  12.852   1.237  0.1701 -0.1684 -0.0045
 2044W        W17853   4.224  14.504   0.032 -0.2124 -0.1469 -0.0419
 2045W        W17854  11.753  16.254   2.607 -0.2832 -0.1386 -0.0765
 2046W        W17855  13.149   3.170  16.078  0.1834 -0.2183  0.0768
 2047W        W17856   4.856   3.307  11.791  0.1549  0.2024 -0.2468
 2048W        W17857  16.382   0.265  13.516 -0.0194  0.0133 -0.1148
 2049W        W17858   3.107   3.174  14.375 -0.2715  0.0224 -0.1140
 2050W        W17859   3.820  17.593   4.357 -0.2263  0.2826  0.0346
 2051W        W17860   4.088  15.112  16.283  0.1720 -0.1128 -0.0163
 2052W        W17861  10.912  15.767   5.053 -0.2183  0.1936  0.0902
 2053W        W17862   6.633   8.845   0.160 -0.2357 -0.0503 -0.2124
 2054W        W17863  16.170   0.238  11.589 -0.1488  0.1238 -0.0381
 2055W        W17864   6.593  16.717   5.725  0.1072 -0.0004 -0.1211
 2056W        W17865  11.650   3.281  13.331 -0.0841 -0.2134  0.1199
 2057W        W17866  15.883  13.765   0.791 -0.2031 -0.0404  0.0115
 2058W        W17867   2.772  17.353   5.583  0.2230 -0.4206 -0.1783
 2059W        W17868   9.423   9.409  13.892  0.2341  0.2604 -0.0659
 2060W        W17869   1.244  14.379   4.862 -0.1530 -0.2147 -0.0300
 2061W        W17870  13.831  17.646   1.066  0.1554  0.1393 -0.3410
 2062W        W17871   4.958  13.813  13.483  0.2965  0.1549  0.1292
 2063W        W17872   0.045   7.386   5.219  0.0497 -0.0115  0.0575
 2064W        W17873  14.591  11.012  16.971 -0.0128  0.0660 -0.1250
 2065W        W17874   8.444  11.708   3.699 -0.0267  0.1578 -0.0773
 2066W        W17875   3.270   0.779  16.812 -0.0720  0.1034 -0.0611
 2067W        W17876   8.371   5.642   6.100  0.0557 -0.2433 -0.0307
 2068W        W17877   1.163   4.811   0.287 -0.1385 -0.0158 -0.0334
 2069W        W17878   4.731   3.102  14.020  0.0221 -0.0367 -0.0180
 2070W        W17879  11.782   4.457   1.200  0.2867  0.0717  0.1176
 2071W        W17880  15.639  17.590  16.868  0.0582  0.0435 -0.1503
 2072W        W17881  17.173   0.690   1.682  0.0963 -0.3148  0.1239
 2073W        W17882  15.649   6.555  13.584 -0.2019  0.1119  0.0942
 2074W        W17883  10.098   2.515   4.749  0.1085 -0.1038  0.0249
 2075W        W17884   6.663  10.866   2.862  0.0646 -0.2349 -0.0087
 2076W        W17885  10.801  16.987  12.818 -0.2162  0.0353 -0.1981
 2077W        W17886   0.436  13.067  11.991  0.2197  0.0354  0.1056
 2078W        W17887   4.328   3.140   4.484  0.0539  0.2238 -0.2892
 2079W        W17888  13.580  12.943   1.363  0.0433 -0.3467 -0.0810
 2080W        W17889   1.243   3.549   2.342  0.1809 -0.0457 -0.0796
 2081W        W17890  14.369   0.176   1.729  0.1254  0.0280  0.1459
 2082W        W17891   8.226  12.995  12.647 -0.0134  0.0237  0.0750
 2083W        W17892   4.479   8.020  15.347  0.0510  0.1750 -0.0626
 2084W        W17893   9.462  16.519   2.173  0.2230  0.1153 -0.1078
 2085W        W17894  16.976  14.602  15.225 -0.0940  0.0863  0.0970
 2086W        W17895   8.675  13.582  12.178  0.1124 -0.0385  0.0736
 2087W        W17896   6.683   5.669  15.612 -0.1848  0.0334  0.0549
 2088W        W17897  10.210   3.078  12.550 -0.1548 -0.3025 -0.0943
 2089W        W17898   5.366  11.953  11.420 -0.2734  0.0142 -0.1445
 2090W        W17899   7.456   8.003   1.411  0.0574  0.1768  0.2666
 2091W        W17900   1.010   6.639   2.434 -0.1279 -0.1128  0.2532
 2092W        W17901  13.989   3.949  13.259  0.1362 -0.0718  0.0347
 2093W        W17902  11.886   5.321   0.186 -0.0250  0.1830 -0.2043
 2094W        W17903   9.318   0.466   4.512 -0.3485 -0.2491  0.0114
 2095W        W17904  14.380  13.522  16.775  0.3432 -0.0116  0.3681
 2096W        W17905   0.248  13.432   5.333 -0.0008 -0.1141 -0.0043
 2097W        W17906   0.283   0.227  13.820 -0.1515  0.1081  0.0888
 2098W        W17907  13.338   8.088   1.728 -0.1444 -0.1908 -0.1036
 2099W        W17908   2.123  13.420   2.259  0.2556 -0.2040 -0.0347
 2100W        W17909   5.550   0.824   1.108  0.0009  0.0133  0.1496
 2101W        W17910  13.992   8.115  13.139 -0.1265  0.1792 -0.0201
 2102W        W17911  11.956   8.319   2.740  0.0227  0.4352 -0.3807
 2103W        W17912   8.109   9.688   0.729  0.0634  0.0110 -0.0471
 2104W        W17913  11.120   8.687  12.769  0.1523 -0.0596 -0.0388
 2105W        W17914   0.347   3.503   2.389  0.6092  0.2196  0.0364
 2106W        W17915   1.172   4.994   0.736  0.4246 -0.1729 -0.6612
 2107W        W17916   9.002   5.356  14.037  0.3577  0.2001  0.1475
 2108W        W17917   3.585   9.321  11.959  0.0463  0.0940  0.2999
 2109W        W17918   0.965  12.114   4.547  0.0320 -0.2045  0.1831
 2110W        W17919  10.707   0.419  13.746 -0.0595  0.1604 -0.1622
 2111W        W17920   9.828  13.075  14.510 -0.0074 -0.0517  0.1807
 2112W        W17921   6.263   2.714   0.472 -0.0339 -0.1477  0.2752
 2113W        W17922   3.804   3.148   1.186 -0.0883  0.2937  0.1550
 2114W        W17923   6.338   2.349  16.459 -0.0197 -0.0018  0.0403
 2115W        W17924   2.970  10.534  16.917 -0.0257  0.1015 -0.3351
 2116W        W17925  12.022   6.095   5.266 -0.0186 -0.1064 -0.0907
 2117W        W17926   8.737  10.102  12.343  0.1928  0.1538  0.1801
 2118W        W17927   5.340  11.519  16.218  0.0244 -0.1567  0.2418
 2119W        W17928   0.134  16.332  16.460 -0.1887  0.1303 -0.0234
 2120W        W17929   9.626  16.753  11.564 -0.0406  0.0343 -0.2485
 2121W        W17930   4.722  17.516  15.042 -0.2247 -0.0214 -0.0674
 2122W        W17931   5.127   3.345   3.831  0.2273 -0.4179 -0.1574
 2123W        W17932  13.410   8.845  16.027 -0.0826 -0.2001  0.1798
 2124W        W17933   9.117   6.655   3.220 -0.2840  0.0295 -0.1581
 2125W        W17934  17.194  15.166  15.213 -0.2354  0.1837  0.0129
 2126W        W17935  14.796  13.896  15.744  0.1412 -0.2234  0.0928
 2127W        W17936  12.224   1.113   0.568 -0.1684  0.0427 -0.1685
 2128W        W17937   8.613   5.311   5.193 -0.1457 -0.0097  0.2566
 2129W        W17938  12.048   9.074   1.126  0.0561 -0.0960 -0.0582
 2130W        W17939  15.703   3.744   3.241  0.1844  0.0183 -0.1789
 2131W        W17940  12.929  11.018  16.037 -0.2108  0.0953 -0.1705
 2132W        W17941  15.611   4.799   5.087 -0.1007  0.0225 -0.1847
 2133W        W17942   1.911  16.578   1.678 -0.1839 -0.1049 -0.0084
 2134W        W17943  10.065   7.027   1.095  0.0618 -0.1715  0.1252
 2135W        W17944   4.981  14.891  13.414 -0.0253 -0.0634 -0.2234
 2136W        W17945  10.349  15.163  12.630 -0.0970  0.1724  0.0105
 2137W        W17946  12.806   4.766  12.307  0.3497  0.0249 -0.0565
 2138W        W17947   2.134  11.626   1.966  0.0963 -0.4271 -0.1353
 2139W        W17948  10.025   3.752   2.083 -0.1522  0.0630 -0.0672
 2140W        W17949  15.826  13.110   2.942  0.1283 -0.1672 -0.2045
 2141W        W17950   3.192  16.544  15.329  0.0984 -0.0142  0.0892
 2142W        W17951  10.259  16.529  12.865 -0.4510  0.0218  0.1059
 2143W        W17952   7.916  12.647   1.635 -0.2611  0.0126  0.1266
 2144W        W17953   1.636   3.419   0.474 -0.1590 -0.1870 -0.0740
 2145W        W17954   8.304   0.580  13.053  0.0913 -0.1441  0.0545
 2146W        W17955   3.524   5.646  14.187 -0.0690 -0.2904 -0.1349
 2147W        W17956  17.537   1.941  15.187  0.1302 -0.2653  0.0019
 2148W        W17957   0.475  16.506   0.097 -0.0444  0.0991  0.1820
 2149W        W17958   2.172  10.124   3.076  0.1525 -0.1037  0.0011
 2150W        W17959  17.647   3.928  12.347 -0.0833  0.2687  0.1577
 2151W        W17960  13.855  15.481   1.448  0.1265  0.0851  0.1992
 2152W        W17961  15.486  13.187  16.230 -0.1717 -0.0116  0.1924
 2153W        W17962   8.248  15.996  10.654  0.0030  0.0427  0.2267
 2154W        W17963   9.233   2.284   2.149 -0.1351 -0.1351 -0.1921
 2155W        W17964   0.716  13.863   4.704 -0.1861 -0.0724  0.2540
 2156W        W17965   6.222   7.210   4.683 -0.0212 -0.1572  0.1193
 2157W        W17966   5.196   3.671   2.259 -0.1043  0.1261 -0.0181
 2158W        W17967  13.338  13.887  14.545 -0.1553  0.1022 -0.1313
 2159W        W17968   3.713   5.372   1.355 -0.2639 -0.1147 -0.0734
 2160W        W17969   9.077   5.325  15.537  0.0874 -0.3368  0.3141
 2161W        W17970   7.591   6.661   4.652  0.1436 -0.0113  0.1015
 2162W        W17971   5.390  15.636  13.694 -0.1248  0.0888 -0.0887
 2163W        W17972   1.746   6.801   6.717 -0.1382 -0.1674  0.0979
 2164W        W17973   5.723   4.620  14.363  0.2105 -0.2442 -0.1769
 2165W        W17974   2.906  13.395   5.786 -0.0536 -0.0033  0.0385
 2166W        W17975  14.435  16.353   0.608 -0.1524 -0.2687  0.1313
 2167W        W17976   5.246  15.071   2.726  0.0093  0.2662  0.3826
 2168W        W17977   4.219   6.526   0.557 -0.0413 -0.0886  0.2632
 2169W        W17978   9.603   6.907   4.054 -0.4340  0.0465  0.1605
 2170W        W17979   6.395  14.232  10.104 -0.2067  0.1968 -0.0134
 2171W        W17980   8.674  10.047   2.740  0.5916  0.1391  0.0814
 2172W        W17981   8.497   1.274   2.600 -0.1940  0.0784  0.1112
 2173W        W17982   1.127  16.749   2.544  0.1130  0.1647  0.2562
 2174W        W17983   0.128  17.102   4.789  0.0890  0.1276  0.2450
 2175W        W17984   0.067  15.762   6.114  0.0098 -0.0160  0.1100
 2176W        W17985   2.883  11.111  13.048 -0.0080  0.2194  0.1777
 2177W        W17986  15.528   1.348   2.102 -0.2397  0.0396 -0.0444
 2178W        W17987   6.504   4.380   4.791 -0.4373  0.0096 -0.1849
 2179W        W17988   6.325  16.297   0.355  0.1014 -0.1420  0.2388
 2180W        W17989  10.569   4.001   4.672  0.0232 -0.0197 -0.0620
 2181W        W17990   4.769  11.799  14.226  0.1321  0.1236 -0.3095
 2182W        W17991  10.258   3.261   2.115  0.2674 -0.1056 -0.1336
 2183W        W17992  13.453  15.537   2.116  0.0087 -0.2085 -0.0736
 2184W        W17993   3.555  14.563  15.566 -0.2026 -0.2002 -0.0798
 2185W        W17994   8.564   9.231  15.989 -0.2533  0.0308  0.0940
 2186W        W17995   6.934   0.703  12.746  0.1276  0.0908  0.1375
 2187W        W17996   4.656   5.996   4.303 -0.0178 -0.0947 -0.1456
 2188W        W17997   1.642   1.187  15.037  0.1312  0.0211 -0.2927
 2189W        W17998   2.415  14.712   1.005  0.2243 -0.3167  0.0471
 2190W        W17999  13.991  12.524   2.115  0.4699  0.1806 -0.1414
 2191W        W18000   8.966   0.031   3.031 -0.0904  0.0893 -0.0598
 2192W        W18001   7.432  15.604   0.094  0.0543  0.0826  0.0813
 2193W        W18002   5.100  10.664  15.656 -0.1112  0.1614  0.1653
 2194W        W18003  14.884   3.971  16.181  0.5477 -0.2002 -0.0706
 2195W        W18004  16.051   5.143  13.352 -0.2653  0.1250  0.1713
 2196W        W18005   2.503  13.556  12.801 -0.0195 -0.1684 -0.1978
 2197W        W18006   1.488  11.952   2.261  0.1240 -0.0282 -0.0244
 2198W        W18007  16.832   7.169  15.888  0.3324 -0.0348  0.0019
 2199W        W18008   1.374   1.077  16.981  0.0182  0.3706  0.0846
 2200W        W18009   9.020   4.953  12.566  0.1195  0.0292  0.0539
 2201W        W18010  15.810   9.668   2.845  0.1141  0.1002  0.1597
 2202W        W18011   0.935  15.060  13.838  0.1595 -0.0398 -0.1108
 2203W        W18012   8.166  12.865   4.518  0.0164  0.1774 -0.3773
 2204W        W18013  13.526   1.434   1.284  0.1614 -0.3107  0.5852
 2205W        W18014   7.800  12.231  16.998 -0.1521 -0.1686 -0.1268
 2206W        W18015   3.020   5.046   2.451  0.1457  0.0257  0.1407
 2207W        W18016   4.676  10.088   2.453  0.0505 -0.0232 -0.0855
 2208W        W18017  17.340  17.194   4.446  0.0776 -0.2823 -0.3230
 2209W        W18018   5.850  14.591   4.089  0.3038 -0.3556 -0.0167
 2210W        W18019   7.947  13.070  14.695 -0.0075  0.3065  0.2744
 2211W        W18020   2.201  17.704  14.904  0.0146  0.0467  0.1350
 2212W        W18021  13.046   8.755   4.279 -0.0790  0.3494  0.0989
 2213W        W18022   2.518  17.175   4.225  0.1531 -0.0664  0.2700
 2214W        W18023   8.024  16.099   4.326  0.3152  0.1801 -0.0791
 2215W        W18024   2.072  10.968   0.172  0.3224  0.1462 -0.0413
 2216W        W18025  10.433   0.140   5.246  0.0746  0.2146  0.0846
 2217W        W18026   3.537   5.779  13.250  0.2684 -0.0186 -0.1602
 2218W        W18027  14.318   9.822   4.623  0.1666  0.2252  0.1238
 2219W        W18028  14.193   5.944   1.069 -0.2868 -0.1335  0.3652
 2220W        W18029   6.233  13.792  16.262  0.0502 -0.0570  0.1877
 2221W        W18030   1.962   7.864   0.024 -0.2662 -0.0384 -0.0732
 2222W        W18031  12.325   2.871  15.918  0.0757 -0.2403 -0.1008
 2223W        W18032   8.661  14.283  16.641 -0.1788  0.1729  0.1026
 2224W        W18033   8.042  16.088  11.134  0.0612  0.0450  0.0647
 2225W        W18034  16.711   4.137  13.931  0.2065  0.2105  0.3584
 2226W        W18035  12.986  15.041  12.581  0.1630  0.1115  0.0141
 2227W        W18036   7.468  11.382   0.557  0.0800  0.2907 -0.0878
 2228W        W18037   1.712   7.542  16.662  0.0965 -0.3151  0.1719
 2229W        W18038   9.178  13.725  15.920 -0.1483 -0.1146  0.0513
 2230W        W18039   0.412   6.278  12.443  0.1296  0.0335 -0.1960
 2231W        W18040  10.409   0.239  11.798 -0.1590  0.1927 -0.3496
 2232W        W18041  17.347   1.130  15.643 -0.1775  0.5475 -0.0196
 2233W        W18042   8.819  15.063   2.799  0.0239 -0.3393  0.1899
 2234W        W18043  11.187   9.798  11.821 -0.1636  0.1671 -0.2065
 2235W        W18044  12.799   6.423  12.417 -0.0731  0.2888 -0.0724
 2236W        W18045   3.362   8.791  15.457 -0.0008 -0.1783  0.1953
 2237W        W18046   6.358   6.840  11.429 -0.1858  0.0899  0.5591
 2238W        W18047  16.074  12.522   5.283  0.0314 -0.2284 -0.1246
 2239W        W18048   0.354   0.242  14.658 -0.1332 -0.0641  0.1995
 2240W        W18049  12.518   9.404  16.820 -0.2790 -0.0056  0.1288
 2241W        W18050   2.878   6.816   0.131 -0.1099  0.0835 -0.1131
 2242W        W18051   6.217  16.063   3.281 -0.1200  0.1174 -0.0412
 2243W        W18052   3.987  17.546   5.131  0.1357  0.1829 -0.1620
 2244W        W18053  10.127   6.203   3.592 -0.1926  0.0402  0.3236
 2245W        W18054  13.193  14.380   2.424 -0.2633 -0.1729  0.1478
 2246W        W18055  17.343   1.070   5.332  0.0806 -0.0919  0.0457
 2247W        W18056  13.696   7.360  15.589 -0.0045  0.0543  0.0009
 2248W        W18057  14.037  13.124   4.824  0.0605  0.2136 -0.0265
 2249W        W18058   5.664  15.749   5.132  0.0155  0.0084  0.0717
 2250W        W18059   4.575   7.435  14.694  0.0761  0.0269 -0.0720
 2251W        W18060  12.553  14.038   3.644 -0.0351 -0.2527  0.0434
 2252W        W18061  14.130  11.728   3.493 -0.1102 -0.0121 -0.0172
 2253W        W18062   6.413  13.550   2.173 -0.0329  0.1664  0.1438
 2254W        W18063   7.442  16.730  11.514 -0.0167 -0.0741  0.0475
 2255W        W18064  12.783   3.669   5.656 -0.2781 -0.0973 -0.0501
 2256W        W18065   4.041  12.749   5.946 -0.0098  0.1891 -0.0337
 2257W        W18066   1.898   6.824   0.190  0.0764  0.1321 -0.1304
 2258W        W18067  12.277   2.966  16.434 -0.0969  0.1626  0.0066
 2259W        W18068   3.315  16.334   4.365  0.1523 -0.1556 -0.0912
 2260W        W18069   0.562  15.329  13.067 -0.0506 -0.0365 -0.2965
 2261W        W18070  12.652   1.556  14.766 -0.2565 -0.2535 -0.0484
 2262W        W18071   9.564   7.259  16.915 -0.0030  0.0686  0.2864
 2263W        W18072   1.172  12.670  14.225 -0.0896 -0.0370  0.1746
 2264W        W18073  12.610   5.427   3.003  0.1097 -0.0060  0.0521
 2265W        W18074   9.041  13.424   3.228 -0.0102  0.3157 -0.0955
 2266W        W18075   9.820  13.994   4.547  0.0034  0.0807  0.0728
 2267W        W18076   4.562   9.132   0.777  0.0025  0.2355 -0.1127
 2268W        W18077   7.128  11.188  15.297 -0.0663  0.1160  0.2565
 2269W        W18078  16.720  15.477  15.369 -0.1481  0.3501 -0.2349
 2270W        W18079   1.114  11.947  15.100 -0.0056  0.0917 -0.1337
 2271W        W18080   0.034   5.044  16.266  0.1049 -0.3567  0.3674
 2272W        W18081   6.290   5.622  14.832 -0.0552 -0.4031  0.0654
 2273W        W18082  15.492   1.929   0.041 -0.0279  0.0165  0.1839
 2274W        W18083   1.756  11.768  13.000 -0.1581 -0.0996 -0.2585
 2275W        W18084   8.614   2.186  16.883 -0.0526 -0.0923 -0.1454
 2276W        W18085   8.377   0.262  12.147 -0.1340  0.1178  0.0716
 2277W        W18086   3.811  11.677  16.559 -0.1615 -0.0761  0.1298
 2278W        W18087  14.828   6.098   4.462 -0.2259  0.1087 -0.2792
 2279W        W18088   6.225   4.541   2.260 -0.2927  0.1796  0.2169
 2280W        W18089   9.144   7.809   3.651  0.0557 -0.1719  0.0585
 2281W        W18090   3.876  10.226  16.988  0.3261  0.1257  0.2711
 2282W        W18091  17.444  14.328  12.492 -0.1221 -0.1009  0.1459
 2283W        W18092   7.835   1.878  14.665 -0.3839  0.3339 -0.2942
 2284W        W18093   9.408   5.541   5.622 -0.1152 -0.0157 -0.2762
 2285W        W18094   0.135   9.964   2.899 -0.0265  0.0890  0.0355
 2286W        W18095   9.939   5.595   5.731 -0.1377  0.2804 -0.1227
 2287W        W18096  10.765   9.452   1.922  0.1438 -0.0913 -0.1955
 2288W        W18097   8.681   7.343  16.815 -0.1232 -0.2024  0.1301
 2289W        W18098  16.965  10.248  11.667  0.1507 -0.0457  0.1856
 2290W        W18099   5.104  17.185   4.922 -0.1476 -0.1876 -0.1520
 2291W        W18100   8.525  13.150   2.855 -0.0928 -0.3347 -0.1154
 2292W        W18101   3.623   9.167   4.628  0.0966 -0.2659  0.2327
 2293W        W18102  12.615  13.665  10.113  0.0509 -0.0450 -0.0114
 2294W        W18103  14.970   3.366  13.451 -0.1221  0.0113  0.2963
 2295W        W18104  13.286  17.537  15.521 -0.0416  0.1568  0.1009
 2296W        W18105  14.713  11.637   2.492 -0.1524  0.2258  0.1871
 2297W        W18106  15.901  14.336  12.485 -0.1180 -0.0530 -0.0948
 2298W        W18107   6.572   7.776   2.295  0.0908 -0.2257  0.0777
 2299W        W18108   2.081  15.500   0.595  0.0082  0.0517 -0.0536
 2300W        W18109  12.833  11.183  15.191 -0.5303  0.1669  0.2174
 2301W        W18110  17.356   2.052   4.098 -0.0819  0.2490  0.2213
 2302W        W18111   0.113  13.484   1.847 -0.0185  0.2272  0.1209
 2303W        W18112  13.332   1.691  16.820 -0.0519  0.2482  0.1084
 2304W        W18113   0.826   8.056   6.153 -0.0858  0.2606 -0.0385
 2305W        W18114  14.245   1.016  11.891 -0.0213 -0.0164  0.4459
 2306W        W18115   9.861   0.133   3.643 -0.2913 -0.0854  0.0096
 2307W        W18116   9.846   5.318   1.884  0.1811 -0.0262  0.1840
 2308W        W18117   0.190  15.241   1.692  0.1013  0.1788  0.0529
 2309W        W18118   0.419  16.967   2.149 -0.1920 -0.1327  0.1362
 2310W        W18119   4.142   2.312  14.882 -0.0739 -0.1324 -0.1011
 2311W        W18120   5.527  10.556   6.137  0.1527  0.0306  0.0730
 2312W        W18121   9.456  10.490  14.218 -0.0632  0.0224  0.0186
 2313W        W18122  11.675  17.612   2.189 -0.0039  0.0498  0.0072
 2314W        W18123  15.827   9.945   5.037  0.0698  0.2466  0.0135
 2315W        W18124   0.725  15.128  14.366 -0.1208 -0.2442  0.0687
 2316W        W18125   5.196   0.067  11.587 -0.2957 -0.1203  0.0689
 2317W        W18126   7.576  11.962  14.692  0.1929  0.3297 -0.3317
 2318W        W18127  14.128   8.299   3.351  0.0585 -0.0207 -0.0663
 2319W        W18128  12.850  13.927   5.397 -0.1286 -0.0696  0.1341
 2320W        W18129  13.886  13.740  14.523  0.1099  0.2864 -0.1542
 2321W        W18130   3.321  13.184  15.133 -0.1278 -0.1358 -0.0379
 2322W        W18131   4.019   9.379   2.541 -0.0942  0.0658  0.2011
 2323W        W18132   4.882   6.004  12.240  0.1089  0.1533  0.1170
 2324W        W18133   0.473  11.937  13.060 -0.0228  0.1130 -0.2179
 2325W        W18134   7.776  14.609  16.265  0.1520  0.1065  0.1219
 2326W        W18135  15.697   6.767   2.149 -0.1421  0.1458  0.2988
 2327W        W18136   8.686   8.144  15.797 -0.2221 -0.0206 -0.2973
 2328W        W18137   0.206   9.623  13.976 -0.2027  0.1006  0.3542
 2329W        W18138   3.497   1.731   3.521  0.0946 -0.0224  0.0681
 2330W        W18139   3.900   3.384   5.360  0.1920  0.1473  0.0566
 2331W        W18140   7.956  12.855  11.034  0.1931 -0.1447  0.1040
 2332W        W18141   9.981  12.355  13.752 -0.3271  0.4417 -0.0092
 2333W        W18142   2.246  15.251  12.693 -0.0073 -0.1757  0.2563
 2334W        W18143  10.087  10.974   3.922 -0.1094  0.1928 -0.1534
 2335W        W18144   6.350  10.091   3.064 -0.1768 -0.0826 -0.0245
 2336W        W18145   3.448  15.534   1.299 -0.1980  0.1392 -0.0863
 2337W        W18146  13.695   5.188  12.025  0.1243  0.0686 -0.1872
 2338W        W18147   5.863   9.986   4.964  0.1963 -0.1656  0.1679
 2339W        W18148   2.933   5.622   5.981  0.1397 -0.0310  0.1001
 2340W        W18149   7.883  12.138  11.697  0.0430 -0.0104  0.0481
 2341W        W18150   0.392  16.415   2.892  0.1901  0.1698 -0.1374
 2342W        W18151   7.737  15.505   5.813  0.1083 -0.0911 -0.1240
 2343W        W18152   6.181  17.593  14.526  0.0542  0.0014 -0.0171
 2344W        W18153  12.727  10.187   1.524 -0.1812  0.0815 -0.0415
 2345W        W18154   6.684   7.949   5.205  0.2597 -0.2075  0.1121
 2346W        W18155  13.765  13.292   2.860  0.1339  0.0490 -0.2718
 2347W        W18156   0.090   4.442  14.528  0.0913 -0.0694  0.0582
 2348W        W18157   4.406   9.500   1.638  0.0577  0.1224 -0.1322
 2349W        W18158  15.448  15.698  14.152  0.1340 -0.2630 -0.3142
 2350W        W18159   9.361  10.064   1.010 -0.1152 -0.1142  0.1088
 2351W        W18160   9.243  16.820   4.561  0.1512 -0.1016 -0.1678
 2352W        W18161   6.408  16.358  16.470  0.1311  0.0761  0.0196
 2353W        W18162   5.797  12.803  13.375 -0.0084 -0.0511  0.0543
 2354W        W18163  13.977   4.897  13.309 -0.0691  0.0870 -0.2275
 2355W        W18164  12.732   1.788  11.030  0.1219 -0.2820 -0.2141
 2356W        W18165   4.989  13.026   0.942 -0.1043 -0.1617 -0.2451
 2357W        W18166  14.754   0.941  15.243  0.1005 -0.1432 -0.2637
 2358W        W18167  14.019   2.858   3.151  0.1063  0.0618  0.1494
 2359W        W18168  11.853  12.458  13.232 -0.0050 -0.3027 -0.3096
 2360W        W18169   3.073  16.100  11.845  0.0236 -0.0222  0.4036
 2361W        W18170  14.074   4.120  15.267 -0.1575 -0.1269 -0.1838
 2362W        W18171  13.428   2.111   2.150  0.0983  0.0595  0.1993
 2363W        W18172  11.624   8.169  16.457  0.0783  0.0564  0.2691
 2364W        W18173   1.114   5.527  13.759 -0.0798  0.2036 -0.2612
 2365W        W18174  14.726   1.501   5.596  0.1041  0.1211 -0.0276
 2366W        W18175  16.191   9.041   1.658  0.1021  0.0348  0.0045
 2367W        W18176   7.692   2.147   0.739  0.0333 -0.0138  0.0459
 2368W        W18177   0.067   5.539  16.425 -0.1849  0.0759  0.2901
 2369W        W18178  16.394   0.695  12.368  0.1171 -0.0218 -0.2840
 2370W        W18179   5.035  10.083   2.137 -0.1520 -0.3752 -0.0890
 2371W        W18180   4.314   3.396   0.443 -0.0185 -0.0603  0.0217
 2372W        W18181   4.142   6.550   3.144  0.1800 -0.0924 -0.2366
 2373W        W18182   9.910   3.076   1.294 -0.0848  0.0159 -0.0815
 2374W        W18183  14.698   3.627  15.830  0.3887 -0.0146 -0.1802
 2375W        W18184   9.210   8.149  16.523  0.2978  0.1300 -0.2770
 2376W        W18185   9.984   6.734   4.328 -0.2462  0.1424  0.2560
 2377W        W18186   8.144   8.628   3.323  0.1772  0.0519 -0.1386
 2378W        W18187  15.293   2.680   1.773 -0.0861 -0.0082 -0.1484
 2379W        W18188   2.347  12.158  12.117 -0.1371  0.1780  0.0466
 2380W        W18189   4.815  14.156   1.248  0.1221  0.5480  0.2583
 2381W        W18190  16.786   5.794   2.947 -0.3541  0.2408  0.1286
 2382W        W18191   8.826   7.893   1.622 -0.0265  0.1868 -0.0957
 2383W        W18192  13.503   4.913   5.276 -0.0666  0.2507  0.0435
 2384W        W18193   7.762  16.535  11.845  0.4160  0.4383 -0.1208
 2385W        W18194   4.095   7.287  14.994 -0.2373  0.2572  0.1292
 2386W        W18195   1.528   0.650   5.076 -0.2062 -0.2817 -0.2237
 2387W        W18196   9.643  14.250   0.508  0.0556  0.0685 -0.0101
 2388W        W18197   1.732   2.218   6.862 -0.3880  0.1627  0.0074
 2389W        W18198   7.250  12.212   3.243 -0.0572 -0.2852  0.2543
 2390W        W18199   3.376  14.281   5.657 -0.1689  0.2055  0.1021
 2391W        W18200  11.254  12.493  15.976  0.0588 -0.2245 -0.1148
 2392W        W18201   7.022  10.476  11.937 -0.1816  0.2378 -0.0861
 2393W        W18202  11.522  12.451   3.508  0.0121 -0.3238  0.2966
 2394W        W18203  11.171   6.435  14.037 -0.2401  0.1716  0.2846
 2395W        W18204   2.827   1.365   1.751 -0.1261  0.1752  0.3398
 2396W        W18205  14.440   7.182   4.170  0.3086  0.1725 -0.3063
 2397W        W18206  11.823  11.505   3.172 -0.0870  0.0817 -0.0412
 2398W        W18207   1.826   8.164  15.672 -0.3023  0.1120 -0.1581
 2399W        W18208  11.528  16.885   3.201  0.1541 -0.0697  0.0589
 2400W        W18209  14.704   1.728  13.085 -0.1807  0.1652 -0.0887
 2401W        W18210   5.823  17.268  16.129 -0.2883 -0.0376  0.0074
 2402W        W18211   3.372   6.583   1.482  0.3745  0.2376  0.3440
 2403W        W18212   4.916   8.865  16.930  0.1229  0.1106 -0.0688
 2404W        W18213  12.386  12.810   2.980 -0.2129  0.0274  0.0201
 2405W        W18214   1.953   5.337   4.168  0.1195  0.2281 -0.0282
 2406W        W18215   4.003  13.439  15.000 -0.3286  0.1942  0.2441
 2407W        W18216   6.126   4.041   3.777  0.0492 -0.0924 -0.1267
 2408W        W18217  15.095  12.763  13.381 -0.0382  0.0683  0.0918
 2409W        W18218   3.970   2.989   5.667  0.1842  0.0780 -0.2444
 2410W        W18219   2.725   1.257   0.456 -0.0873 -0.0361  0.3018
 2411W        W18220  15.176   3.163  14.390  0.0744  0.0807  0.2956
 2412W        W18221   3.182   3.811  13.182 -0.0230  0.3331 -0.2683
 2413W        W18222   6.121   5.408  15.274  0.0009 -0.1076 -0.1062
 2414W        W18223   3.719   5.658   0.173 -0.0021  0.1782 -0.1363
 2415W        W18224  10.534  14.535  11.444  0.0217 -0.0589 -0.0266
 2416W        W18225   9.312  14.719   0.687 -0.2027  0.2314 -0.1021
 2417W        W18226   5.134  11.041  12.390  0.1664  0.0383 -0.1878
 2418W        W18227   2.266  17.690   0.041  0.1325  0.2796 -0.0577
 2419W        W18228  15.565   5.810   5.771  0.0572  0.2351  0.0231
 2420W        W18229  16.500  16.903   5.115  0.1110  0.2582  0.4531
 2421W        W18230  17.215   4.014   1.919  0.0219 -0.1555 -0.1874
 2422W        W18231  15.179  12.338   2.015 -0.2659 -0.1058  0.1001
 2423W        W18232   0.259  10.909   1.283  0.2008  0.4297  0.0532
 2424W        W18233  12.304   2.306  15.146 -0.1670 -0.3193  0.1422
 2425W        W18234  15.738   0.959  11.828 -0.0288 -0.1343  0.0669
 2426W        W18235   7.651   7.724  15.524 -0.0401 -0.0412 -0.0081
 2427W        W18236   7.472   0.565  16.932  0.1494 -0.4396  0.0318
 2428W        W18237  15.698   0.993  14.047 -0.1059 -0.0071 -0.0304
 2429W        W18238  10.671   6.267   4.859  0.0136 -0.1586 -0.1233
 2430W        W18239  10.582   0.904   2.701  0.0589 -0.1385 -0.0938
 2431W        W18240   5.144   5.785   2.025  0.0597 -0.2143 -0.2163
 2432W        W18241   4.040   8.803  14.993  0.0250  0.1833 -0.0723
 2433W        W18242   9.316   1.408  12.794  0.0971 -0.1609  0.1367
 2434W        W18243  10.539  11.172   0.269  0.2093 -0.0403  0.0649
 2435W        W18244   1.158  14.629  11.729  0.0484  0.0885  0.2503
 2436W        W18245  15.910   0.699  12.324  0.1278 -0.3710  0.2512
 2437W        W18246   8.789   8.657   4.683  0.1367  0.2046 -0.3185
 2438W        W18247   1.693   7.579   4.726 -0.1397  0.2285  0.1164
 2439W        W18248  10.442   9.441  13.780  0.0384 -0.3599 -0.3500
 2440W        W18249  15.067   1.083   5.278 -0.2039 -0.2162  0.2636
 2441W        W18250   7.606   8.463   4.514 -0.0516 -0.2540  0.0292
 2442W        W18251  14.486  16.475   5.323  0.2955 -0.0357  0.1048
 2443W        W18252   9.129   7.755  13.026  0.0697  0.1686  0.0400
 2444W        W18253  16.227   6.517   0.319 -0.1876 -0.0750  0.1357
 2445W        W18254  13.705   3.639   4.902  0.0968  0.0351 -0.2371
 2446W        W18255   1.784  16.156  12.129 -0.0435 -0.2249  0.2083
 2447W        W18256   5.987   2.691  16.675  0.0277 -0.1261 -0.3152
 2448W        W18257  16.296   6.915  14.074 -0.2243  0.2097 -0.1194
 2449W        W18258  16.256  16.798   1.282  0.1347 -0.0292 -0.1359
 2450W        W18259   3.974   2.471   4.957  0.2261 -0.0046 -0.2735
 2451W        W18260  16.497  13.001  14.739  0.1733  0.3155  0.2616
 2452W        W18261   5.154   9.431   2.464 -0.1019 -0.2217 -0.1480
 2453W        W18262  12.700   4.203   6.256  0.0542  0.0551  0.2946
 2454W        W18263   3.110   4.669  14.522  0.2752 -0.1249  0.2411
 2455W        W18264  14.119   9.473   2.419 -0.0009 -0.0194  0.2170
 2456W        W18265   9.619   1.039   0.784  0.1655  0.1747 -0.1363
 2457W        W18266   7.241   1.749  15.499  0.1988 -0.4060  0.0531
 2458W        W18267  15.130  16.028  14.329 -0.1767 -0.0283  0.0448
 2459W        W18268   2.920  14.281   5.360 -0.2308  0.0903  0.1199
 2460W        W18269   7.351  10.981  15.740 -0.0149  0.4471 -0.2830
 2461W        W18270  13.265  10.446   1.154  0.2984 -0.1814  0.4692
 2462W        W18271   8.085   4.598  15.083 -0.2062  0.0181 -0.0547
 2463W        W18272   3.826  16.594   3.085  0.2541  0.0316 -0.0368
 2464W        W18273  17.289   0.720   3.272 -0.0504  0.1421 -0.3752
 2465W        W18274   2.195  11.590  14.199 -0.0189 -0.1928  0.1521
 2466W        W18275   9.301  16.956  15.585  0.0116  0.1939  0.0916
 2467W        W18276   7.474   1.481  15.094  0.0803  0.1919 -0.4174
 2468W        W18277  16.514  13.917   2.139  0.0795  0.0551  0.0896
 2469W        W18278   8.734   0.484  15.723  0.0676  0.2738 -0.1306
 2470W        W18279   8.796   6.332  16.165  0.0723  0.2318 -0.0716
 2471W        W18280  11.889   0.724   0.798 -0.0402  0.1101  0.0487
 2472W        W18281  12.533  13.318   4.749  0.1721  0.1175  0.1248
 2473W        W18282  15.016  17.269   2.027  0.4852  0.3084 -0.0109
 2474W        W18283   4.156   5.367  12.810 -0.0534 -0.0908  0.4729
 2475W        W18284  13.074   8.212   2.132 -0.1382 -0.0777 -0.4281
 2476W        W18285   9.564   6.452  14.991  0.1466 -0.0633 -0.1171
 2477W        W18286  10.207   4.878   4.156 -0.1282  0.3331  0.1808
 2478W        W18287   5.751  12.410   4.501  0.1900  0.1495  0.0196
 2479W        W18288  10.065   0.781  14.818  0.3820 -0.4932  0.0932
 2480W        W18289   6.563   3.101   3.343  0.0698  0.1351 -0.1599
 2481W        W18290   8.918   2.322  14.434  0.3623  0.2295  0.1321
 2482W        W18291  16.032   8.650   5.227  0.0988 -0.3124 -0.2758
 2483W        W18292   4.219  15.428  13.120 -0.0283 -0.1835  0.2784
 2484W        W18293   5.948   9.905   2.656 -0.2961  0.1109  0.0710
 2485W        W18294   0.482  16.014  11.718  0.0957  0.0439 -0.1268
 2486W        W18295   1.425  14.713  15.317 -0.0509  0.0335 -0.2236
 2487W        W18296  12.261   8.080  12.694  0.2806 -0.0013  0.1067
 2488W        W18297   4.681   8.197   5.947  0.0848 -0.1090 -0.2106
 2489W        W18298  14.611  10.015   2.964  0.0339 -0.0197 -0.2656
 2490W        W18299   1.410   8.453  14.323 -0.2432 -0.1474 -0.0699
 2491W        W18300   5.659   6.794   1.021  0.0814 -0.0797 -0.0592
 2492W        W18301  14.938   0.145   2.320  0.0571  0.1310  0.0168
 2493W        W18302  16.015  13.876  12.083  0.1627  0.2311 -0.1655
 2494W        W18303  17.183  14.444  13.862  0.3023 -0.1805 -0.1626
 2495W        W18304   3.429  11.148  13.767  0.1216  0.0856  0.0433
 2496W        W18305  10.530   9.333  16.926  0.2129  0.3986  0.1271
 2497W        W18306   0.927  12.890  11.670 -0.1189 -0.0983 -0.3202
 2498W        W18307  12.742   1.172  14.446  0.0375  0.2212 -0.1694
 2499W        W18308   5.707   0.811  16.750  0.0183  0.3463  0.1099
 2500W        W18309  15.157  10.787   0.872 -0.1646 -0.0235 -0.1441
 2501W        W18310   3.514   5.923   0.700 -0.0697  0.1915 -0.1975
 2502W        W18311   1.232   4.569  16.150 -0.1424 -0.0939 -0.1015
 2503W        W18312   7.804   9.002   2.740 -0.4432 -0.0348  0.1784
 2504W        W18313  11.630   7.247  15.478 -0.0409  0.0171  0.3818
 2505W        W18314   4.594   5.995  15.140  0.1805  0.0009 -0.1438
 2506W        W18315  16.844   9.911  11.317  0.0146  0.1712 -0.1364
 2507W        W18316   5.147  16.325   5.399  0.1336  0.3757  0.1278
 2508W        W18317   7.332  11.343   3.992  0.1748 -0.0369 -0.0240
 2509W        W18318  15.350  13.047  11.560 -0.1745  0.0182  0.0393
 2510W        W18319  12.648   7.285   3.772 -0.1377  0.2252 -0.0745
 2511W        W18320   4.830  15.713  13.766  0.1419 -0.0203 -0.2565
 2512W        W18321  15.587   0.254  13.782  0.1626  0.0237 -0.1460
 2513W        W18322  12.744  17.389   2.512 -0.0021  0.3646  0.2099
 2514W        W18323   8.146   0.677   5.447  0.0606 -0.2229 -0.0165
 2515W        W18324  17.008  16.918  11.819  0.3339 -0.1480 -0.1635
 2516W        W18325  12.728   1.322  12.974  0.1904 -0.0405  0.0679
 2517W        W18326   7.017  13.623   0.843 -0.1609  0.2421 -0.1095
 2518W        W18327   9.394   1.702  13.831 -0.0096  0.2462  0.2648
 2519W        W18328  14.041   2.655  14.147  0.1120  0.1708  0.0599
 2520W        W18329  14.900  11.235   3.506 -0.0946  0.3086  0.2492
 2521W        W18330  13.752  14.371  15.907 -0.0242 -0.1635 -0.1363
 2522W        W18331   5.113  15.915   2.376  0.2678  0.0878 -0.0491
 2523W        W18332   4.624  16.275   4.479  0.3493 -0.2344  0.1577
 2524W        W18333  14.938   9.852  16.396 -0.0110  0.0607 -0.1969
 2525W        W18334  13.854  12.236   5.396  0.0482 -0.2018 -0.2285
 2526W        W18335   5.315  13.324  15.783 -0.1613  0.1463 -0.0374
 2527W        W18336  15.296  11.694  13.447 -0.0776  0.0132  0.0474
 2528W        W18337   6.267   6.800  16.782  0.3763 -0.1760 -0.1075
 2529W        W18338   6.796   5.256  12.696  0.1593  0.1262 -0.0985
 2530W        W18339   5.365  16.735  15.606  0.1992  0.0047  0.0637
 2531W        W18340  14.604  16.055   3.300 -0.2152  0.1935 -0.1339
 2532W        W18341   8.635   0.909   3.972 -0.1456 -0.2085  0.2435
 2533W        W18342  14.823  11.072  14.426 -0.0262 -0.2262 -0.0497
 2534W        W18343  11.115   9.210   3.894 -0.0704  0.1290 -0.0863
 2535W        W18344  12.462  15.989  12.658  0.1149 -0.0286  0.0102
 2536W        W18345  17.296  12.722   1.001  0.1002  0.1527  0.0055
 2537W        W18346   4.839  12.321  10.938 -0.1247  0.4450 -0.0365
 2538W        W18347  11.291  14.837   2.965  0.1887 -0.1912  0.0759
 2539W        W18348   7.787   5.933  15.945  0.0618  0.2676  0.5423
 2540W        W18349   3.693   1.101  11.816 -0.0283 -0.0155  0.0432
 2541W        W18350  14.086   9.093  14.490  0.0097  0.1781  0.1225
 2542W        W18351  10.119  10.323  14.908 -0.4249  0.1121 -0.2990
 2543W        W18352   5.178   6.429  13.228 -0.2121 -0.1282 -0.1199
 2544W        W18353   5.591   9.015   3.756 -0.0753  0.1390  0.0841
 2545W        W18354  13.354   5.417  16.637  0.2641 -0.0463 -0.1807
 2546W        W18355   1.418   3.534   1.845 -0.2130 -0.0953 -0.2622
 2547W        W18356  12.085  12.176  10.334 -0.0062 -0.4203  0.0145
 2548W        W18357  15.258  14.498  11.740 -0.0629  0.0477  0.2578
 2549W        W18358  16.883  12.001   1.974  0.0032 -0.1393  0.0087
 2550W        W18359  12.915  11.549  11.358  0.0657 -0.1062 -0.0152
 2551W        W18360   7.569   1.595   1.825  0.0288  0.1514  0.0634
 2552W        W18361  15.821  16.630   1.450 -0.2214 -0.0820 -0.1806
 2553W        W18362   6.034   2.174  14.106  0.1881  0.0356  0.3242
 2554W        W18363  14.841   7.770   5.974 -0.0999 -0.1208 -0.1503
 2555W        W18364   0.193  13.776   2.327 -0.0843 -0.1250 -0.2294
 2556W        W18365  11.555  15.985   3.051 -0.1206  0.0977 -0.0777
 2557W        W18366  14.544   5.832  14.619 -0.1395 -0.0110 -0.0058
 2558W        W18367   5.600   2.767  12.676 -0.0417  0.0511 -0.0459
 2559W        W18368  10.746   4.898   2.029 -0.2156  0.1515 -0.3265
 2560W        W18369  13.689   9.734   2.686  0.2066  0.1005  0.0779
 2561W        W18370  17.149   4.397  12.850 -0.0950 -0.0470 -0.2226
 2562W        W18371   7.251  17.215   1.724  0.0872  0.1299  0.1161
 2563W        W18372   6.598   2.577  16.042  0.2953  0.1575 -0.1275
 2564W        W18373  13.414   8.773  13.412  0.3522 -0.1302  0.0844
 2565W        W18374   1.930  14.734   4.380 -0.1215  0.0814  0.3282
 2566W        W18375   7.308  10.629  11.510 -0.0522 -0.2349  0.0370
 2567W        W18376   0.325  14.139  11.804 -0.1504  0.4589  0.1773
 2568W        W18377   8.460   6.005   2.141  0.2842 -0.1526  0.0808
 2569W        W18378  16.409  17.552  15.755  0.0979  0.1300  0.0763
 2570W        W18379  15.968  15.826  12.281  0.0969  0.2593  0.2270
 2571W        W18380   6.605   1.308   1.902  0.1969  0.1198 -0.0568
 2572W        W18381  13.215   7.817  15.838  0.0683 -0.0244 -0.1006
 2573W        W18382  17.434   7.082   5.853  0.1519  0.1845 -0.1079
 2574W        W18383  15.775   0.076   1.267 -0.0315 -0.0998  0.0789
 2575W        W18384  12.755  13.103   3.885 -0.1052  0.1471  0.2780
 2576W        W18385  12.094  10.600   2.142  0.1130  0.1087  0.0753
 2577W        W18386  13.556  12.151   2.008  0.0067 -0.5427 -0.0327
 2578W        W18387   6.130   0.015   4.450 -0.2161  0.3421  0.0313
 2579W        W18388   0.897   5.420   5.890 -0.0816  0.2072  0.4970
 2580W        W18389   4.485   6.272   5.675  0.0484  0.0565 -0.0078
 2581W        W18390   0.706   4.264  16.096 -0.0332 -0.0540 -0.0500
 2582W        W18391   3.657   2.565  15.333  0.0937  0.0342  0.0004
 2583W        W18392   3.374  16.696  12.611 -0.0828  0.3725  0.0171
 2584W        W18393   0.181  13.410   0.437 -0.1533  0.0654 -0.0902
 2585W        W18394   2.618   6.371  12.424 -0.1030 -0.2666 -0.0715
 2586W        W18395  12.091   3.043  13.850 -0.0314  0.2085 -0.0513
 2587W        W18396   1.678   1.671  14.187 -0.0578  0.4105 -0.0115
 2588W        W18397   6.755   5.425  13.930  0.0335 -0.3501 -0.2392
 2589W        W18398   3.767  17.173   5.423  0.1511  0.1342 -0.1090
 2590W        W18399   9.383  11.571   4.144 -0.0948 -0.0901  0.1509
 2591W        W18400   1.089   2.589   3.279  0.0629  0.4106  0.0604
 2592W        W18401  10.564   7.697  13.365  0.2294  0.1853  0.0115
 2593W        W18402   9.886  13.259  12.159 -0.2146 -0.2823  0.0778
 2594W        W18403  10.394   8.620  13.550  0.1808 -0.4107 -0.1642
 2595W        W18404   3.178   4.842   4.463  0.2377  0.0703 -0.1532
 2596W        W18405   8.126  14.770   3.422 -0.2405  0.2293  0.0980
 2597W        W18406  10.505  10.011   2.254  0.0954  0.0375 -0.2298
 2598W        W18407   5.268  16.797  11.960 -0.1861  0.1704 -0.0383
 2599W        W18408   9.319  11.752   4.598  0.0156 -0.2332 -0.0728
 2600W        W18409  13.639   6.252  14.627  0.4700  0.1330  0.1436
 2601W        W18410   8.493   0.691   3.384 -0.0588 -0.1674  0.0563
 2602W        W18411  12.344   6.403  16.992  0.0288 -0.1596  0.1364
 2603W        W18412  11.843   2.745  13.530 -0.0173  0.1722  0.1599
 2604W        W18413   0.907  11.443   2.397 -0.0527  0.0616  0.0258
 2605W        W18414   9.326   7.322   3.266 -0.2017  0.0178  0.2196
 2606W        W18415   5.108  15.669   4.365 -0.0084  0.1688 -0.4027
 2607W        W18416  10.378  11.635   0.939  0.3131  0.1546  0.1326
 2608W        W18417   7.598  14.044  11.946  0.1703 -0.4105 -0.3443
 2609W        W18418  12.687  12.600   4.270  0.1177 -0.1478 -0.1740
 2610W        W18419  10.849   4.059   5.744  0.3504  0.0276  0.1466
 2611W        W18420  15.657  15.194  11.391  0.0190 -0.0951  0.2765
 2612W        W18421  12.150  11.064   2.353 -0.0698  0.1137 -0.2195
 2613W        W18422   7.138   5.226  14.163 -0.1377 -0.2336  0.0080
 2614W        W18423   1.437  17.326   4.662  0.2161  0.2372  0.1073
 2615W        W18424  12.819  12.155  12.179 -0.0249 -0.1578 -0.0996
 2616W        W18425  14.117  11.909   4.132  0.0365  0.1329  0.0717
 2617W        W18426   2.380   2.662   1.327 -0.0839 -0.1857 -0.0793
 2618W        W18427   7.372  12.397  14.908 -0.0046  0.3667  0.2202
 2619W        W18428   9.303  16.817   3.479 -0.2224  0.0217  0.1486
 2620W        W18429   3.279   4.874  16.760  0.1275 -0.0884 -0.0802
 2621W        W18430   0.477   8.897   1.515 -0.1396  0.0520  0.0569
 2622W        W18431   3.954   5.829  12.897 -0.0804  0.1197 -0.1511
 2623W        W18432   0.652   4.291   3.316  0.3002 -0.2505  0.0826
 2624W        W18433  17.200   7.392   2.128  0.2972 -0.0415  0.2430
 2625W        W18434   8.314   0.779   0.321 -0.0627 -0.1798  0.0377
 2626W        W18435   5.610   9.864   1.355 -0.0734  0.0369  0.2192
 2627W        W18436   5.569   3.686   1.060 -0.1394 -0.1324 -0.1095
 2628W        W18437   7.191   1.492  13.635  0.0986 -0.0408 -0.2891
 2629W        W18438  15.609  16.103  15.647 -0.0693 -0.0809 -0.1145
 2630W        W18439  11.502  14.368  13.301  0.0257 -0.0228 -0.2861
 2631W        W18440  12.058   5.331   5.784  0.4259  0.0603 -0.1437
 2632W        W18441   7.181   1.047  14.873  0.1335  0.0734 -0.1447
 2633W        W18442   6.790   6.884   1.753  0.2656 -0.1314 -0.3689
 2634W        W18443  15.282   9.942  13.083 -0.0351 -0.1141  0.0272
 2635W        W18444  16.261   1.656  15.438 -0.0348 -0.0678  0.3268
 2636W        W18445  10.990  16.908  13.533 -0.0740  0.2571 -0.0786
 2637W        W18446   6.482   6.376   0.727  0.0225  0.2647 -0.0232
 2638W        W18447  10.559  17.708  16.158  0.1237  0.1291 -0.0402
 2639W        W18448  11.415   3.690   0.872 -0.1730 -0.1657  0.0392
 2640W        W18449  11.648  12.724  16.460  0.1415  0.1758  0.1003
 2641W        W18450   3.082   3.050   1.860 -0.1019  0.1422  0.1545
 2642W        W18451   7.031   3.733   3.916  0.2477 -0.2922  0.2079
 2643W        W18452   3.348   9.309  15.405 -0.2450  0.1063 -0.1853
 2644W        W18453   2.772  15.549   2.599  0.2299 -0.3534 -0.2899
 2645W        W18454  13.530   1.678  15.104 -0.0240 -0.0694 -0.1823
 2646W        W18455   8.696   0.193  13.872 -0.1017 -0.1603 -0.0869
 2647W        W18456  17.392   0.299  12.251  0.3580 -0.2149 -0.0611
 2648W        W18457  14.770   9.064   0.929  0.2169  0.0559  0.2777
 2649W        W18458  13.901   3.194   4.704 -0.0720  0.0590 -0.2139
 2650W        W18459   1.136  14.306  16.881  0.3007  0.1464 -0.1359
 2651W        W18460   2.200   2.078  15.864 -0.1353  0.1424  0.1703
 2652W        W18461  16.548  10.271   0.139  0.0903 -0.1946  0.1571
 2653W        W18462  13.062  16.634  14.494 -0.1572  0.1532  0.0084
 2654W        W18463   6.283   6.686  12.940  0.0246  0.0755 -0.2536
 2655W        W18464  12.074  11.319   4.679  0.2098  0.1663  0.1898
 2656W        W18465   0.452  16.795  16.376 -0.0575 -0.2744 -0.2822
 2657W        W18466  13.694   3.597  13.961 -0.0123 -0.2825  0.0353
 2658W        W18467   8.602  10.705   5.407 -0.1365  0.0012 -0.1517
 2659W        W18468   5.483   1.613  14.965  0.2173 -0.1155  0.2112
 2660W        W18469   3.715   7.293   0.378  0.1536 -0.4039  0.1315
 2661W        W18470   0.247  14.545   6.262  0.0618  0.1480  0.0757
 2662W        W18471  15.952  13.748  13.914 -0.2648 -0.0386 -0.1083
 2663W        W18472  13.626   4.972  15.478 -0.0446 -0.1542  0.0043
 2664W        W18473   8.189   8.103  14.282  0.0020 -0.0333  0.0284
 2665W        W18474   0.156  16.740   0.494  0.3296  0.2570 -0.2522
 2666W        W18475  15.517  16.806  16.865 -0.0053 -0.2077 -0.1426
 2667W        W18476  14.726   5.942  15.192  0.1069 -0.1698 -0.0484
 2668W        W18477   4.482   7.567   3.305 -0.1354 -0.0047  0.0916
 2669W        W18478   9.077   5.445   0.456  0.1351 -0.0319 -0.0028
 2670W        W18479   9.012  13.857  13.410 -0.2208 -0.0206 -0.1214
 2671W        W18480  13.792   3.947  14.751  0.1884 -0.1409  0.0158
 2672W        W18481   0.122   6.767  13.540 -0.1087 -0.2697  0.0891
 2673W        W18482   3.706  11.007  11.223 -0.1091  0.0607 -0.0417
 2674W        W18483   8.987  16.405  13.036  0.0098  0.1782 -0.2595
 2675W        W18484   8.023   8.574   5.206  0.1005  0.1826 -0.1618
 2676W        W18485   0.186  17.476  14.643  0.0980  0.0798  0.1082
 2677W        W18486   7.701  15.703   4.322  0.4911 -0.0323  0.0233
 2678W        W18487  11.921  15.750  15.917 -0.0633 -0.1137 -0.1075
 2679W        W18488  15.144   1.871  12.888  0.2170 -0.1063  0.0506
 2680W        W18489   4.866   8.421  16.218 -0.0488 -0.5541 -0.0901
 2681W        W18490   3.250   5.274  12.894  0.1620  0.0064 -0.1558
 2682W        W18491   9.081  15.731   2.285  0.0809  0.1292 -0.1656
 2683W        W18492   2.840   3.965  12.812  0.4879  0.0421 -0.0775
 2684W        W18493   8.204  12.573  11.729 -0.2587 -0.1230  0.0354
 2685W        W18494  11.721   5.401   1.105  0.1449  0.1079 -0.1769
 2686W        W18495  13.091   1.001   5.423 -0.0328 -0.1518  0.0286
 2687W        W18496  10.750  12.800  11.843  0.0312 -0.2010 -0.2011
 2688W        W18497   0.211  10.568   0.872 -0.2470  0.0879  0.0112
 2689W        W18498   6.736  15.556   1.949  0.3704  0.0588  0.3386
 2690W        W18499   9.107  11.022  12.185  0.0316 -0.1901 -0.0341
 2691W        W18500  15.421   9.336  11.493  0.1891  0.2015  0.0013
 2692W        W18501   9.664   6.660   0.031 -0.0569 -0.2193 -0.0424
 2693W        W18502  14.200  12.159  11.963  0.0080 -0.1894  0.0453
 2694W        W18503  14.634  13.295   5.996 -0.0879  0.2429  0.1087
 2695W        W18504   9.371   1.674  12.182 -0.1154 -0.2031  0.2133
 2696W        W18505  12.298  10.842  11.192  0.0444 -0.0482  0.0253
 2697W        W18506  10.571   5.605   0.505  0.1266  0.0675  0.3550
 2698W        W18507   8.251  11.960   2.042 -0.1609  0.0981 -0.1135
 2699W        W18508   1.419  10.506   6.402  0.0849 -0.1297 -0.0534
 2700W        W18509   0.963  13.319  12.774  0.1163 -0.0821  0.2507
 2701W        W18510   6.549  15.353  12.670 -0.0113  0.0630 -0.1774
 2702W        W18511   2.206  11.321   0.912 -0.1338 -0.0304  0.0650
 2703W        W18512   2.848  13.545   3.454 -0.0827 -0.0593 -0.2494
 2704W        W18513   4.753   8.381  12.845  0.0956 -0.5119 -0.3729
 2705W        W18514   5.548   2.134  13.965  0.1929  0.2234 -0.1430
 2706W        W18515   0.905  17.310   0.159 -0.2151 -0.0354 -0.2330
 2707W        W18516  12.737   3.829   1.143  0.1946 -0.4080 -0.2006
 2708W        W18517  10.946  16.897  14.047 -0.0829 -0.1843 -0.0651
 2709W        W18518  13.874   0.727   6.175 -0.1440 -0.0650 -0.1622
 2710W        W18519   0.257  11.835   2.366 -0.0588 -0.3553  0.0425
 2711W        W18520  17.427   8.010  11.932  0.1951  0.0774 -0.2434
 2712W        W18521   7.224   5.931   0.649 -0.1570  0.0531  0.0131
 2713W        W18522   4.053   2.602   1.799  0.0017 -0.1066 -0.0097
 2714W        W18523   2.549   8.623   0.463 -0.0741  0.0321 -0.0638
 2715W        W18524   6.375  11.920  16.130 -0.1158  0.4833  0.2939
 2716W        W18525   8.405  15.057   4.661 -0.1334  0.0236 -0.1176
 2717W        W18526  12.306  13.514  14.080  0.1105  0.2239  0.0208
 2718W        W18527  15.498  10.639   4.635  0.1482  0.0116  0.1656
 2719W        W18528   3.910  10.514  15.914 -0.0351  0.1429 -0.0955
 2720W        W18529  13.767   4.696   1.594 -0.1333 -0.2077  0.2377
 2721W        W18530   1.921   7.206   1.112  0.2135 -0.0411 -0.1762
 2722W        W18531  15.103  17.226  12.456 -0.0728 -0.1386  0.0872
 2723W        W18532   8.498  12.088  13.162  0.1067 -0.3784 -0.1283
 2724W        W18533   1.183   3.928  15.337 -0.1357  0.1280  0.0161
 2725W        W18534  12.002   1.990  16.480 -0.1537  0.1058 -0.1200
 2726W        W18535   4.764  10.611  11.602  0.3098 -0.0175 -0.1986
 2727W        W18536   1.047  17.519  16.218  0.0633  0.1515  0.0075
 2728W        W18537   5.927   4.197   3.315  0.0317  0.0151 -0.1321
 2729W        W18538   1.522  17.033  16.535  0.0900  0.2231 -0.2700
 2730W        W18539   5.106   8.872   3.714  0.0777  0.1061 -0.1739
 2731W        W18540   6.998  10.487  14.250 -0.0348  0.1773 -0.3817
 2732W        W18541   7.649   8.281   5.055 -0.1122  0.2629  0.1493
 2733W        W18542   1.248  15.207  11.308 -0.0507  0.1729 -0.2911
 2734W        W18543  14.788  10.657   5.396  0.0225  0.0972  0.1205
 2735W        W18544  12.189  12.064  15.152  0.1012  0.1065  0.1128
 2736W        W18545  14.627   7.133   3.573 -0.5137  0.0697  0.4734
 2737W        W18546   4.415  17.237  15.872 -0.1114  0.1179 -0.0544
 2738W        W18547   7.831  16.952   3.372  0.0608  0.0080  0.0595
 2739W        W18548  12.973   0.055   2.704  0.1167  0.3649  0.0621
 2740W        W18549   8.745   7.045   0.270 -0.0733  0.2031  0.1630
 2741W        W18550   3.213  11.339  16.896  0.2060  0.0304  0.0146
 2742W        W18551   3.331   3.373  15.152  0.0887  0.1469  0.0864
 2743W        W18552   4.933   5.729  14.836 -0.0461 -0.0931 -0.0585
 2744W        W18553  13.513   4.440  12.776  0.2499  0.2856  0.3009
 2745W        W18554  16.422  11.886  13.674  0.1307  0.1605 -0.1375
 2746W        W18555   8.783   2.810   5.267 -0.1917  0.3305 -0.0018
 2747W        W18556   1.572  10.140  14.632 -0.1139  0.3390 -0.1406
 2748W        W18557  12.403  11.298   3.244  0.0198  0.2079  0.0885
 2749W        W18558  17.147  12.936   3.437  0.0423  0.0692  0.0572
 2750W        W18559   3.180  11.982   3.979 -0.0146  0.0467 -0.0958
 2751W        W18560  16.360   0.134  12.994 -0.0621  0.1345 -0.1601
 2752W        W18561   9.304  11.219   4.463 -0.0684 -0.1043 -0.3920
 2753W        W18562   8.908   2.609   5.854 -0.2955 -0.0645  0.0017
 2754W        W18563  16.565  16.973   2.143 -0.0753 -0.4395 -0.2929
 2755W        W18564  16.346  12.465   3.321 -0.1908 -0.1503 -0.0074
 2756W        W18565  10.810  13.303   2.344  0.2252  0.0863 -0.0968
 2757W        W18566   8.917  17.657   2.060 -0.0901 -0.2141 -0.0022
 2758W        W18567   4.917  11.639   3.577  0.2806 -0.3352  0.0859
 2759W        W18568   1.349   9.374   3.986  0.0002 -0.1274 -0.1407
 2760W        W18569   1.222   8.382   4.417  0.3445 -0.3859  0.0596
 2761W        W18570   3.694   8.223   6.035  0.0047 -0.0379  0.0529
 2762W        W18571   1.179  12.467   0.898  0.0985 -0.1132 -0.0247
 2763W        W18572   8.893  12.882  14.947 -0.3513  0.0246  0.2268
 2764W        W18573  12.035  11.796  16.845 -0.2128 -0.0220  0.3508
 2765W        W18574  15.987  15.587   2.820  0.1514 -0.1172  0.0436
 2766W        W18575  10.531  15.674  16.440  0.0362 -0.2540 -0.0152
 2767W        W18576   8.244   6.847  12.981 -0.3912  0.1468 -0.2415
 2768W        W18577  14.591  13.808  11.406  0.2726 -0.0711 -0.2703
 2769W        W18578   1.033   2.389   2.840 -0.0967  0.0057 -0.0363
 2770W        W18579  16.572  13.438   3.573 -0.1631  0.1354 -0.0765
 2771W        W18580   3.791   3.464  15.686 -0.1488  0.0987  0.1650
 2772W        W18581  15.342   2.480   5.425 -0.2115  0.0164  0.0797
 2773W        W18582   7.861   8.907   1.825  0.0145  0.0514  0.0581
 2774W        W18583   0.841   9.244  14.541 -0.1498 -0.0135 -0.1430
 2775W        W18584   0.794  14.251  14.861 -0.0244  0.0250 -0.1389
 2776W        W18585   5.021  17.025  14.657  0.0366  0.0452  0.0872
 2777W        W18586  13.696  15.815  15.769  0.0105  0.0163 -0.0547
 2778W        W18587   7.605   5.230  14.635 -0.3426  0.1500 -0.1534
 2779W        W18588   1.936   5.247  14.635  0.0071  0.2546 -0.1035
 2780W        W18589   3.635  17.677  13.339  0.0451 -0.3481  0.2231
 2781W        W18590  17.269  15.397  12.944  0.0562 -0.1304  0.1211
 2782W        W18591  15.310   4.791   4.629 -0.0685  0.0839 -0.1480
 2783W        W18592  13.787  13.518  14.082 -0.1987  0.0310  0.0196
 2784W        W18593   3.569   2.397   2.888 -0.0988 -0.1999  0.2952
 2785W        W18594   1.420   9.199   1.076 -0.2347 -0.0081  0.0303
 2786W        W18595   2.707  15.142   0.641 -0.2162  0.0894 -0.0963
 2787W        W18596   2.018   3.853   0.653 -0.1009  0.1719  0.0627
 2788W        W18597   8.291   8.215  16.077  0.2058 -0.1340 -0.1271
 2789W        W18598  15.935   0.789  14.572 -0.2168 -0.0990  0.1571
 2790W        W18599   6.449   4.802  12.797  0.1720  0.0913  0.1913
 2791W        W18600   3.430  13.361   1.121 -0.1352 -0.1939 -0.0435
 2792W        W18601  16.072   7.774  14.583 -0.0771  0.0068 -0.1230
 2793W        W18602  13.968   4.950   4.858 -0.2885 -0.0229 -0.0379
 2794W        W18603  16.009  12.004  14.837  0.0634 -0.1785 -0.0432
 2795W        W18604   8.180  15.388   1.195 -0.0610 -0.0514 -0.0731
 2796W        W18605   8.499   5.501  14.068 -0.0977 -0.0858  0.2140
 2797W        W18606  10.714   0.077   1.913 -0.0992  0.0574  0.3846
 2798W        W18607   5.027   0.889   5.833 -0.0657  0.1363  0.5183
 2799W        W18608   5.501  12.663   2.087 -0.1431 -0.0543  0.0229
 2800W        W18609  13.373   6.709  15.125  0.3137  0.0179 -0.1495
 2801W        W18610  17.607  11.660   0.165  0.0511 -0.1263 -0.0509
 2802W        W18611   6.546  15.561  14.439 -0.0459 -0.1804  0.2112
 2803W        W18612   3.462   6.181  16.928  0.1631 -0.0499 -0.1858
 2804W        W18613  11.379   0.454   3.641  0.0958 -0.2702  0.0857
 2805W        W18614  12.840  16.134  12.011 -0.0076 -0.1399  0.4120
 2806W        W18615  14.441  10.097   1.615  0.4822 -0.0546 -0.0092
 2807W        W18616   5.401   0.634  10.687  0.2893 -0.0020 -0.1304
 2808W        W18617  16.966  15.285   2.835  0.0694  0.0509 -0.1923
 2809W        W18618   1.283   9.665   5.655 -0.0785 -0.2306 -0.0365
 2810W        W18619  15.340  11.994   3.293  0.0577  0.0660 -0.0940
 2811W        W18620  10.243   3.025  14.605  0.3553 -0.1827  0.4912
 2812W        W18621   6.883  16.189  12.796  0.0484  0.1494  0.0572
 2813W        W18622  11.376   7.587  14.376  0.0583  0.2999  0.0609
 2814W        W18623  15.198   6.180   0.683 -0.0333 -0.1284  0.0376
 2815W        W18624  15.870  10.739  14.320 -0.0281  0.1887  0.0480
 2816W        W18625   9.612  14.440   4.340  0.2109 -0.1019 -0.3220
 2817W        W18626   6.235   3.718   5.190  0.1181  0.1383  0.3370
 2818W        W18627  13.314   1.228   5.019 -0.2148  0.2241 -0.2040
 2819W        W18628   1.660  16.854  14.342 -0.2498 -0.1084 -0.2340
 2820W        W18629   1.684   7.992  14.254 -0.1713 -0.3998 -0.0377
 2821W        W18630  14.504   4.027   0.818  0.2143 -0.0607 -0.0871
 2822W        W18631  13.794   5.653  13.436  0.0381  0.4624  0.1043
 2823W        W18632   0.351  11.749   0.291 -0.1113  0.1994 -0.0122
 2824W        W18633  15.668   6.064  13.442  0.3085  0.1027 -0.1496
 2825W        W18634   0.345   8.273   4.901  0.0123  0.1587  0.0131
 2826W        W18635  15.512  13.526   3.962 -0.0760  0.0776  0.2784
 2827W        W18636   8.878  14.988  13.712 -0.0501 -0.0126  0.3108
 2828W        W18637  16.301  17.185   4.767 -0.3371  0.1234 -0.0001
 2829W        W18638   7.705  13.798   2.141 -0.1426 -0.1960 -0.1216
 2830W        W18639   2.088   8.590   2.258 -0.1355 -0.0485  0.0255
 2831W        W18640   1.746   6.452   1.360 -0.1879 -0.1800 -0.0147
 2832W        W18641  12.321   9.204   0.752  0.0413 -0.1796  0.1893
 2833W        W18642   8.380  10.208  15.757 -0.2104 -0.0757  0.0791
 2834W        W18643  15.064   1.764  16.748 -0.1947 -0.2001  0.2313
 2835W        W18644   7.008  17.479   2.558  0.0491 -0.0590  0.0859
 2836W        W18645   0.298   0.586   5.397  0.0588 -0.0145 -0.1149
 2837W        W18646   4.299   8.819   4.530  0.0850  0.3000 -0.0567
 2838W        W18647   9.925  16.521  12.478 -0.0244 -0.1686  0.4367
 2839W        W18648   4.108   7.279  14.504 -0.0327  0.5718  0.2531
 2840W        W18649   3.041  10.276   5.325  0.2200  0.3013  0.1564
 2841W        W18650   9.901   0.910   0.305  0.0976  0.0804  0.0926
 2842W        W18651  16.547  16.044  11.618 -0.1050 -0.0601  0.1930
 2843W        W18652   2.361   4.922  16.075  0.2031 -0.0657  0.1114
 2844W        W18653   6.445   9.906  13.468 -0.2061  0.4749  0.0594
 2845W        W18654   0.766   7.227  13.557  0.1177 -0.0796 -0.1315
 2846W        W18655  17.366  12.108   5.199 -0.0049  0.2373  0.0861
 2847W        W18656  14.455  14.409   0.144  0.0285  0.2330 -0.2720
 2848W        W18657   7.738  10.841  11.256  0.2194 -0.0186 -0.1426
 2849W        W18658  15.526   8.220   4.593  0.1483  0.3845 -0.1735
 2850W        W18659   7.300  14.972  14.074  0.1886 -0.0649 -0.0167
 2851W        W18660   7.512  12.215   2.730 -0.0371 -0.0897  0.0017
 2852W        W18661   2.305  10.009   1.020 -0.0639  0.2785  0.1153
 2853W        W18662   1.902  12.318   5.468 -0.2962 -0.3962 -0.2028
 2854W        W18663   7.326   0.141   4.718 -0.1996  0.2487  0.1349
 2855W        W18664   0.815  11.613  11.914 -0.2281  0.4613  0.2141
 2856W        W18665  14.538   1.194  14.730 -0.0543 -0.3036  0.0732
 2857W        W18666   6.957  17.069   5.395  0.0364  0.1184  0.0519
 2858W        W18667   9.349  14.826   4.157 -0.0264 -0.2077 -0.0022
 2859W        W18668   8.642  11.409   5.165 -0.2889  0.1377 -0.0620
 2860W        W18669   4.322  17.628   0.404  0.0523  0.0065  0.2749
 2861W        W18670   4.377  13.270   4.908  0.0235  0.3122  0.1682
 2862W        W18671   8.980   2.337   5.394 -0.0546  0.2323  0.0978
 2863W        W18672   8.204   6.878  15.934  0.1798 -0.0049 -0.1046
 2864W        W18673   0.159   3.759  16.558  0.0153 -0.1247 -0.1543
 2865W        W18674   6.802   1.347  12.356 -0.1833 -0.0894 -0.1452
 2866W        W18675   1.653   9.583   4.691  0.0822 -0.2944 -0.0791
 2867W        W18676  11.503   7.936   5.669  0.2455  0.4323 -0.0007
 2868W        W18677  10.468   0.627  14.514  0.3839  0.0294 -0.3357
 2869W        W18678   5.205   3.173  14.937 -0.3597 -0.0533 -0.0390
 2870W        W18679  15.746   9.984  16.331  0.0576  0.0202 -0.0376
 2871W        W18680   0.173  13.888  12.395 -0.1078 -0.0736 -0.1154
 2872W        W18681   0.889   1.091   2.438  0.1289 -0.3687  0.4851
 2873W        W18682   6.813   0.377   5.130  0.0758  0.0984  0.0355
 2874W        W18683   5.392  15.660  15.352 -0.0071  0.1103 -0.2522
 2875W        W18684   6.549  13.401   0.523  0.0337 -0.2189  0.0366
 2876W        W18685  12.394   9.585   5.263 -0.0083  0.1208 -0.1274
 2877W        W18686  14.204  11.737   2.585 -0.1182  0.0447 -0.0205
 2878W        W18687   5.457   2.894  14.609 -0.2339 -0.0162  0.0308
 2879W        W18688  12.382  11.531  12.308  0.0299 -0.0434 -0.0975
 2880W        W18689  11.039   9.204   1.134  0.5465 -0.0858  0.4360
 2881W        W18690   9.768  15.318  12.019  0.1755  0.1037 -0.0052
 2882W        W18691  14.872  10.414  15.130  0.1673 -0.0375 -0.1453
 2883W        W18692  16.309  13.040   4.304  0.1207  0.2433  0.0336
 2884W        W18693  17.042   9.781  11.827  0.0595  0.0690  0.1058
 2885W        W18694  13.627  17.053  16.431 -0.0585 -0.1805  0.1160
 2886W        W18695   4.954  12.992  13.903  0.0575  0.2169 -0.2463
 2887W        W18696   3.845   8.965  13.219 -0.1390 -0.1801  0.0500
 2888W        W18697  17.649  14.447   1.135 -0.0912  0.0950 -0.1219
 2889W        W18698  11.064  12.387  12.409  0.1946 -0.0678 -0.2807
 2890W        W18699   6.753   6.137  16.376 -0.3438  0.1897 -0.0038
 2891W        W18700   9.327   2.637   5.584 -0.0348  0.0110  0.2822
 2892W        W18701   3.854   7.589  16.770 -0.0220  0.2040 -0.1615
 2893W        W18702   5.333   1.333  14.536 -0.2492 -0.1919  0.1747
 2894W        W18703  12.272  12.689   3.858 -0.0451 -0.0626 -0.0283
 2895W        W18704   5.532   6.808  16.573  0.1267 -0.0831 -0.0368
 2896W        W18705  14.144   6.178  16.047 -0.1803 -0.1144 -0.1919
 2897W        W18706   3.146   2.405  15.347  0.1052 -0.0845 -0.0363
 2898W        W18707  11.088   8.409  13.770 -0.1674 -0.0162  0.0159
 2899W        W18708  17.370   2.272  12.109  0.1110 -0.1448  0.3272
 2900W        W18709  17.299  11.677   2.090  0.2749  0.2629  0.1629
 2901W        W18710  17.256   5.793   0.636 -0.3237  0.2921  0.0323
 2902W        W18711   5.849  14.491  15.229  0.0371 -0.2022 -0.1772
 2903W        W18712  15.784  14.593   0.705  0.1487  0.0430  0.0958
 2904W        W18713   1.038   8.233   2.175 -0.0764  0.0703  0.1516
 2905W        W18714   2.076   4.971  13.018  0.2580  0.0632  0.1784
 2906W        W18715   9.081  14.711  14.944  0.2663  0.1144  0.0483
 2907W        W18716   1.811  16.332  13.555 -0.0944  0.3430  0.1938
 2908W        W18717   0.271  15.336  14.478  0.2273 -0.2695  0.1537
 2909W        W18718   4.236  12.310   4.964  0.0884  0.0735  0.1811
 2910W        W18719  12.420   0.660   0.581 -0.1464  0.0833 -0.0385
 2911W        W18720   9.298   4.558   4.385  0.1054  0.0336  0.1221
 2912W        W18721  14.682   0.082  13.649 -0.0621 -0.0958 -0.0557
 2913W        W18722  12.303  14.943   0.586  0.0576  0.4490  0.1921
 2914W        W18723  10.332  17.063   0.689  0.0798  0.0286 -0.1176
 2915W        W18724   6.029   3.834   5.652  0.1658  0.2142  0.1094
 2916W        W18725   9.760   8.531  16.540 -0.1982 -0.1012 -0.3940
 2917W        W18726  17.094   8.818   2.657  0.0067 -0.3297 -0.0979
 2918W        W18727  11.926  13.566   0.790  0.0414 -0.1019  0.0179
 2919W        W18728   8.900   1.704  13.732  0.0676 -0.1316 -0.0422
 2920W        W18729  12.063   9.790   4.050  0.0721 -0.3795 -0.0026
 2921W        W18730  15.314  15.286   5.322 -0.2470 -0.2642  0.1375
 2922W        W18731  15.795  14.680  16.769  0.3484  0.0950  0.0489
 2923W        W18732  10.492  11.284  16.664 -0.1663 -0.0138  0.1327
 2924W        W18733  17.251   2.483   4.318  0.1668  0.1205 -0.3099
 2925W        W18734   6.512   3.486   0.099  0.1791  0.0088 -0.1638
 2926W        W18735   7.613   4.743   0.413 -0.0373 -0.0025  0.0772
 2927W        W18736  15.608  10.586  12.540 -0.2409 -0.0485  0.0100
 2928W        W18737  13.999   3.888   0.927 -0.0681  0.0326  0.2805
 2929W        W18738  14.951  15.263  11.725 -0.2021 -0.1737 -0.1432
 2930W        W18739  12.504  14.076   0.521  0.0834  0.3323 -0.1558
 2931W        W18740  13.528   3.835  14.352  0.0041 -0.0816  0.2450
 2932W        W18741   4.304   7.048  14.066 -0.2663 -0.0986  0.1248
 2933W        W18742   0.338   5.647  12.370 -0.2708 -0.1600 -0.1131
 2934W        W18743   4.474   1.486  15.626  0.1338 -0.0502 -0.2049
 2935W        W18744  13.627   0.399   2.111 -0.2436  0.0863 -0.1135
 2936W        W18745   3.682   3.861  12.964 -0.0764  0.2575 -0.1004
 2937W        W18746  14.103   7.609   4.046  0.3682  0.1019 -0.0782
 2938W        W18747  13.007  15.569   3.344 -0.1364 -0.2398  0.1730
 2939W        W18748   6.768  13.070  15.784  0.0109 -0.0635 -0.0105
 2940W        W18749   0.223  15.824  16.414  0.0061  0.2007 -0.0011
 2941W        W18750  15.606   5.354   0.511 -0.0232  0.0500 -0.1231
 2942W        W18751  15.661  12.064  12.165  0.1016 -0.1998 -0.2896
 2943W        W18752  11.090  15.671   0.807 -0.1452  0.3031  0.0705
 2944W        W18753   6.111   7.624  13.087  0.2817 -0.1660  0.0143
 2945W        W18754  13.529  17.074  16.903 -0.0878 -0.4183  0.0482
 2946W        W18755  15.113   6.237   2.059  0.2691 -0.2221 -0.2928
 2947W        W18756  11.259   2.443  11.925  0.0239  0.0938  0.1547
 2948W        W18757  12.352   8.522  16.532  0.2108 -0.1278  0.1338
 2949W        W18758   8.794  10.537  10.525  0.2866  0.0117  0.0790
 2950W        W18759  10.554  17.015   2.987 -0.4383  0.1692 -0.1115
 2951W        W18760   6.708   2.987   4.997 -0.0650  0.1069  0.0016
 2952W        W18761   4.321   6.643  12.764 -0.1307  0.0466  0.2633
 2953W        W18762   8.745   6.675  14.518  0.2284 -0.1489 -0.0211
 2954W        W18763  14.595   9.349  14.213  0.0377  0.0784  0.2900
 2955W        W18764   1.880  12.581  15.624 -0.1968 -0.1101  0.1402
 2956W        W18765  10.163  11.539   1.425  0.0474 -0.0360  0.0897
 2957W        W18766  11.515   8.021   0.955  0.1532 -0.1382 -0.2654
 2958W        W18767   2.054   9.142  12.742 -0.2023  0.0355  0.2161
 2959W        W18768   1.836   6.733  14.282 -0.1111 -0.0294 -0.1575
 2960W        W18769  16.063   6.236   3.009 -0.0377  0.0984 -0.1784
 2961W        W18770   4.337  11.156  15.333 -0.2706 -0.0308 -0.3515
 2962W        W18771  17.570  13.374   2.358 -0.2540 -0.2347  0.0261
 2963W        W18772  17.209  16.267   4.407  0.2590  0.0709  0.2399
 2964W        W18773  16.327  17.587   3.097  0.0761  0.5755  0.1412
 2965W        W18774   9.272  12.263  13.012  0.0560  0.3283 -0.0310
 2966W        W18775  12.617  15.933  16.418 -0.2046  0.3109 -0.0611
 2967W        W18776   5.123   6.979   5.723  0.3726  0.0387 -0.3086
 2968W        W18777   3.076  16.162  16.738 -0.1688 -0.1494 -0.1408
 2969W        W18778   0.073  16.825  13.420 -0.0440  0.2749  0.1974
 2970W        W18779   0.573  16.995  13.521  0.1431 -0.2254  0.0053
 2971W        W18780   7.146  16.230  14.915 -0.1211 -0.2211 -0.0921
 2972W        W18781  10.331  14.992  14.715 -0.1773 -0.0228 -0.1393
 2973W        W18782  14.902   0.030  16.002  0.0552 -0.1304  0.1292
 2974W        W18783   8.387  17.261  12.855  0.3930  0.1318  0.1106
 2975W        W18784  13.072  10.524  15.312  0.0754  0.0429 -0.0350
 2976W        W18785   4.205   0.937  12.613  0.1177  0.0406  0.0227
 2977W        W18786   2.687   4.561   4.173  0.0986 -0.0045 -0.0866
 2978W        W18787   8.724  17.729   0.704  0.1402  0.2679  0.1751
 2979W        W18788  17.535   8.563   5.628  0.0417 -0.0985 -0.0207
 2980W        W18789  16.182   3.542  15.622  0.1202 -0.3747 -0.0632
 2981W        W18790  15.782   4.267   3.159 -0.0009  0.0542 -0.0290
 2982W        W18791  15.859  17.513   0.402 -0.1877  0.1620  0.0611
 2983W        W18792   3.009  15.117   1.437 -0.1231 -0.0868 -0.1870
 2984W        W18793  11.015   7.436  12.251  0.1946 -0.0280 -0.0738
 2985W        W18794   9.452   5.166  16.388  0.2132  0.1885  0.1395
 2986W        W18795   1.948   6.435  16.052 -0.1925  0.0540 -0.1007
 2987W        W18796   4.346   6.604   1.526  0.1320  0.0327  0.0526
 2988W        W18797  12.832   9.034  10.752 -0.2093 -0.1404 -0.2735
 2989W        W18798   2.742   0.533  15.401  0.0938 -0.0111  0.0038
 2990W        W18799  13.101  13.637   1.055 -0.0793 -0.0827  0.2888
 2991W        W18800  12.894   5.416   6.251 -0.1595 -0.0277  0.1721
 2992W        W18801  12.049  12.688  16.836  0.0141  0.3092 -0.3159
 2993W        W18802   6.669  14.491   0.779  0.3449 -0.0419 -0.0454
 2994W        W18803  17.557   5.289   5.788 -0.0033 -0.2000  0.1686
 2995W        W18804   9.443   1.924  16.543 -0.1404  0.1575 -0.0870
 2996W        W18805   4.865  12.744  13.209  0.1434 -0.0647  0.0629
 2997W        W18806  10.082  15.980   2.508 -0.1821 -0.1118 -0.1085
 2998W        W18807  17.716   9.837   1.434  0.0086  0.3448  0.0924
 2999W        W18808  15.269   0.688   0.140  0.0895  0.2954 -0.0292
 3000W        W18809  14.972  10.159   0.186  0.0605  0.1000  0.0412
 3001W        W18810  12.968  13.437  13.218 -0.3685 -0.0585 -0.0441
 3002W        W18811   0.640  13.458   1.753 -0.0720 -0.1086 -0.3510
 3003W        W18812  14.137  13.487   2.562  0.4323  0.1667  0.1083
 3004W        W18813   4.329   5.753   4.608 -0.0588 -0.2146  0.3137
 3005W        W18814  11.125   3.952  15.579  0.0552  0.0884  0.0970
 3006W        W18815   5.580  14.772   1.382  0.0037  0.1604  0.1718
 3007W        W18816   3.033   9.450   2.492 -0.0483  0.3703 -0.1271
 3008W        W18817   3.316  11.649   5.275  0.2701 -0.2216  0.0336
 3009W        W18818   7.120  15.784   5.144  0.1508 -0.0303  0.1979
 3010W        W18819   1.379  16.012  16.011  0.3931  0.2470 -0.0516
 3011W        W18820  15.030  11.971  13.052 -0.1399 -0.0606  0.0025
 3012W        W18821   9.518  11.055  11.381 -0.1116 -0.1065  0.0439
 3013W        W18822  11.252   4.256   5.468 -0.0486 -0.2815 -0.0533
 3014W        W18823  10.026  17.600  14.952 -0.0769  0.0265  0.2193
 3015W        W18824   5.480   3.658   4.082  0.0819  0.0240  0.0230
 3016W        W18825  12.788  12.556   3.181 -0.1965  0.0050 -0.0846
 3017W        W18826  15.902   5.055   5.390 -0.0300 -0.0527  0.2667
 3018W        W18827   6.345  16.686   5.256  0.1728  0.1540 -0.0035
 3019W        W18828  15.728   3.353   6.533 -0.2896  0.0429 -0.2382
 3020W        W18829  13.519  11.415  13.984  0.2697  0.0308 -0.1591
 3021W        W18830  14.193  16.705  15.658 -0.1284 -0.1801 -0.1207
 3022W        W18831  17.410  16.930   1.735  0.0069 -0.3123  0.1605
 3023W        W18832  16.259  16.312   0.257 -0.0472 -0.1452 -0.3085
 3024W        W18833  14.367   2.574  15.724  0.0254 -0.2191 -0.2159
 3025W        W18834   9.875   0.208   4.564  0.1714 -0.2555  0.3811
 3026W        W18835   7.515  10.756  16.281 -0.3360  0.1890  0.0073
 3027W        W18836  16.679   6.687   2.592  0.2575 -0.2597  0.3339
 3028W        W18837   9.992   2.622   3.358 -0.1205  0.4355 -0.1247
 3029W        W18838  14.032   4.528   0.702  0.0073 -0.0393 -0.1633
 3030W        W18839  13.939  17.414  16.268 -0.0233  0.1516  0.0179
 3031W        W18840  14.906   1.249   3.762  0.1822 -0.1334 -0.0460
 3032W        W18841   0.235   1.833  15.010 -0.0837 -0.1165 -0.1004
 3033W        W18842  12.860  11.171   5.311  0.2399  0.2389 -0.1149
 3034W        W18843  11.993   1.019  13.606  0.0335 -0.4365  0.0150
 3035W        W18844  10.982   8.010  11.770 -0.0754  0.0514  0.0746
 3036W        W18845  11.425   9.038  13.085  0.0259  0.0585 -0.2970
 3037W        W18846   8.680   8.088   3.004  0.0743  0.0529  0.1340
 3038W        W18847  16.714   7.243   2.592  0.3759  0.3565 -0.0743
 3039W        W18848  15.099   5.009   1.090  0.1146  0.4040 -0.3383
 3040W        W18849   5.146  10.097   3.109 -0.1852 -0.0534  0.1613
 3041W        W18850  17.119   3.873   3.297 -0.3835  0.2067  0.0238
 3042W        W18851   3.049   9.175   4.470  0.0224 -0.3819 -0.1190
 3043W        W18852   9.817   1.938   2.884  0.0120 -0.0260  0.2067
 3044W        W18853   3.569  14.743   0.303 -0.0805  0.1687  0.2757
 3045W        W18854  13.350   4.609   0.113  0.1592 -0.1270 -0.4813
 3046W        W18855   3.973   4.712  16.010  0.2051  0.3663 -0.0830
 3047W        W18856  14.912  15.190   4.333 -0.2131  0.1033  0.0939
 3048W        W18857  15.858  13.040  13.085  0.0004  0.0592 -0.0299
 3049W        W18858   2.947   5.934   2.492  0.1665 -0.0343 -0.1020
 3050W        W18859  12.784   4.172  13.281 -0.1194  0.1424 -0.2106
 3051W        W18860  16.533   2.977   4.432 -0.1349 -0.0530 -0.2086
 3052W        W18861   9.038   5.969   0.387  0.1763 -0.4974  0.1847
 3053W        W18862   6.622   9.882  11.553 -0.2068  0.2611  0.1563
 3054W        W18863  14.302   7.810  13.935 -0.2317  0.0440  0.1635
 3055W        W18864  12.681   8.076   3.129  0.1230  0.0407  0.4948
 3056W        W18865   2.128   5.374   0.460  0.1506 -0.1133  0.0947
 3057W        W18866   0.529  13.205   2.185 -0.1501 -0.0388 -0.2455
 3058W        W18867   4.922  17.373  12.947 -0.2430  0.0437 -0.1279
 3059W        W18868  13.287   1.921  13.472 -0.1582  0.0390 -0.0083
 3060W        W18869   5.054   4.696   3.758  0.1115 -0.1280 -0.2456
 3061W        W18870  13.354  13.772  13.317  0.0613 -0.2414 -0.0156
 3062W        W18871   5.000   8.291  13.855  0.2439  0.1731  0.1509
 3063W        W18872  12.870   6.538  13.375  0.0108  0.1869 -0.3000
 3064W        W18873   9.566  10.154   2.039 -0.3030 -0.0722  0.0448
 3065W        W18874  16.860   7.786   4.707  0.3014  0.2523 -0.1407
 3066W        W18875  11.752  12.061   3.245 -0.0028  0.0512  0.1174
 3067W        W18876  17.361   2.371   4.982  0.4077  0.0213 -0.0419
 3068W        W18877   9.433  11.731   5.116 -0.1685  0.0766 -0.0339
 3069W        W18878   3.685   5.491  12.720  0.3750 -0.2018  0.1713
 3070W        W18879   7.326   5.134  12.715 -0.0014 -0.1365 -0.0817
 3071W        W18880  10.713  10.724   0.704  0.0843 -0.0934  0.3157
 3072W        W18881  13.022  10.674  12.230 -0.0823 -0.5111 -0.2030
 3073W        W18882   7.861  11.179  14.811  0.1441  0.2327 -0.2357
 3074W        W18883   0.238   8.055   0.687 -0.2707 -0.0244  0.1881
 3075W        W18884   8.907  12.724   5.680 -0.1944  0.0069  0.2167
 3076W        W18885  12.548   2.406   3.639 -0.0502 -0.0797  0.1285
 3077W        W18886   4.731   0.840   4.141 -0.0262 -0.1739  0.1983
 3078W        W18887  11.413   4.561   5.791 -0.1631  0.0728 -0.0216
 3079W        W18888  13.275   8.527  12.380  0.1916 -0.0952 -0.3019
 3080W        W18889   8.979   4.924   4.506 -0.1812  0.1501  0.0553
 3081W        W18890  14.696   8.752  16.134 -0.0411 -0.0362 -0.2674
 3082W        W18891   0.247   2.761  15.230  0.3685 -0.0472  0.0829
 3083W        W18892   8.612   9.418  14.187 -0.1382 -0.4049  0.0668
 3084W        W18893   3.401   0.312  16.008 -0.0922 -0.0354  0.1690
 3085W        W18894   4.051   1.866  11.930 -0.2610  0.2651  0.0952
 3086W        W18895   7.380   8.686  15.691  0.0917 -0.0633 -0.0615
 3087W        W18896  17.517   4.060  14.294 -0.1464  0.0313 -0.0224
 3088W        W18897   4.034   0.566   2.307  0.0974 -0.0317  0.0801
 3089W        W18898   0.160   2.325  15.484 -0.3836  0.0824  0.1984
 3090W        W18899  15.561   0.217   4.945  0.0474 -0.1307  0.1152
 3091W        W18900   2.383  15.190  11.325  0.1541 -0.1018  0.1269
 3092W        W18901   9.604  10.477  13.454 -0.0078 -0.1319  0.3224
 3093W        W18902  14.010   6.581   5.221 -0.0813 -0.1480  0.0458
 3094W        W18903  17.485   4.430   5.741  0.3798 -0.0085 -0.0096
 3095W        W18904   9.461   7.568  13.367  0.5263  0.2432 -0.2380
 3096W        W18905   8.759   1.940   5.248  0.1309  0.2314  0.1789
 3097W        W18906   5.985   3.438  14.321 -0.0860 -0.0148  0.0688
 3098W        W18907   6.030   9.195  15.579  0.0503 -0.3090 -0.2067
 3099W        W18908  12.398   0.642   4.411  0.0747  0.1355  0.1243
 3100W        W18909   3.541   9.873   0.019 -0.0046 -0.1521  0.0353
 3101W        W18910   8.567   6.041   5.387 -0.0839  0.2256  0.0496
 3102W        W18911   9.845   9.373   2.109  0.0258 -0.2117  0.1662
 3103W        W18912  16.291   4.511   1.365  0.0474  0.2229  0.1079
 3104W        W18913   1.580   2.796  14.934 -0.0556 -0.0355  0.0084
 3105W        W18914   8.849   6.998  15.415  0.2214 -0.2154 -0.2216
 3106W        W18915   0.867   1.789   3.087 -0.1961  0.1492  0.0898
 3107W        W18916   7.446   9.909  15.181 -0.1460  0.3334  0.1451
 3108W        W18917  11.713   7.234  14.706 -0.2237  0.0421  0.2001
 3109W        W18918  14.905   6.993  12.949 -0.0374 -0.0864 -0.0582
 3110W        W18919  17.308  12.931   4.351  0.2931  0.2941  0.1189
 3111W        W18920   3.979  13.382   5.138  0.0572  0.2580  0.1453
 3112W        W18921   3.723  16.057   3.429 -0.0723 -0.1466 -0.2276
 3113W        W18922   9.287  12.988  11.647 -0.1729  0.3065  0.1876
 3114W        W18923  17.649   6.819  14.076  0.3207  0.0098 -0.1584
 3115W        W18924   3.061   4.900   3.890  0.1246  0.0910  0.1099
 3116W        W18925  17.510   4.106   0.861 -0.1849 -0.1843 -0.1962
 3117W        W18926  12.850  12.344   0.141 -0.1048  0.2610 -0.0774
 3118W        W18927  13.844   4.462   5.027 -0.1631 -0.1816  0.4175
 3119W        W18928  13.295   1.838   0.808 -0.1061  0.3616 -0.1501
 3120W        W18929   9.034  12.009   2.092  0.2297 -0.1830  0.3900
 3121W        W18930  17.436   7.724   4.558 -0.1934 -0.0386 -0.1041
 3122W        W18931   2.319   8.634   1.701  0.2415 -0.0183 -0.0826
 3123W        W18932   7.018  10.997   4.199 -0.2047 -0.0780  0.0313
 3124W        W18933   6.656  14.018  16.586  0.1657 -0.0035 -0.0683
 3125W        W18934  12.850  10.749   0.874  0.0263  0.4875 -0.2651
 3126W        W18935   9.815   7.183   2.340  0.0596 -0.0321  0.2927
 3127W        W18936   6.643  15.732   1.437  0.1361  0.0627 -0.2384
 3128W        W18937   9.271  10.958   5.832 -0.2180  0.1058  0.0148
 3129W        W18938   9.719   2.421  15.660  0.1695  0.1837 -0.2567
 3130W        W18939  11.415   8.057   1.902  0.0648  0.2661 -0.0797
 3131W        W18940   4.397  16.028   4.914 -0.1277 -0.1469  0.1005
 3132W        W18941   8.094   0.244  15.110  0.0217  0.1599 -0.3415
 3133W        W18942  13.515  13.724  10.987 -0.1796 -0.0771 -0.3202
 3134W        W18943   5.081   5.470  16.358  0.3309 -0.1259 -0.0306
 3135W        W18944  12.932   3.517  13.702 -0.1033  0.3478 -0.1021
 3136W        W18945   1.159   1.788   5.538 -0.1146 -0.2492 -0.0189
 3137W        W18946   0.558  12.701   2.401  0.2102  0.1107  0.0765
 3138W        W18947  13.233  16.568  12.577  0.0162 -0.2290  0.0582
 3139W        W18948   3.440   5.248  13.421 -0.0792  0.0628  0.1205
 3140W        W18949  12.465   7.677  15.247  0.1590 -0.0733 -0.1008
 3141W        W18950  16.943  10.730  15.024 -0.1600  0.0101  0.0019
 3142W        W18951  12.276   4.172  14.907 -0.2679  0.0087  0.0312
 3143W        W18952   8.486   6.602   2.404  0.1582 -0.0316 -0.0549
 3144W        W18953   1.961   3.005   1.410  0.2951 -0.0300  0.1583
 3145W        W18954  13.737   9.920  12.346  0.0010  0.0014  0.2752
 3146W        W18955  10.124  14.072   0.116  0.1213 -0.0988  0.0051
 3147W        W18956  17.142  10.269  12.678  0.1874 -0.0405  0.0822
 3148W        W18957  16.877   6.231   3.825  0.1890 -0.2073  0.0300
 3149W        W18958   5.588   1.247  14.061  0.1198 -0.0205 -0.1729
 3150W        W18959   7.683   3.294   2.272  0.0025  0.1520 -0.0931
 3151W        W18960  13.802   0.422   3.780  0.2113  0.0613 -0.0353
 3152W        W18961  12.554   3.345   4.065 -0.0101  0.1891 -0.2348
 3153W        W18962  11.913   9.709  11.435  0.1023  0.1596 -0.2862
 3154W        W18963   5.405   7.974  13.971 -0.0340  0.0197 -0.0988
 3155W        W18964  15.426  12.389   4.810 -0.1357  0.0526  0.1669
 3156W        W18965   3.367   2.919  12.297 -0.1485 -0.0004  0.4340
 3157W        W18966  13.446   3.436  13.490  0.0519  0.2462  0.1710
 3158W        W18967   1.089   5.033  16.444 -0.0015 -0.2676  0.0043
 3159W        W18968  15.435   7.196  16.384 -0.0742  0.0132  0.1613
 3160W        W18969   4.752   6.507  16.376  0.0988 -0.0546 -0.1135
 3161W        W18970   7.715   0.475  12.372  0.1915  0.0662  0.0818
 3162W        W18971  15.569  14.127   2.113  0.0700  0.2119 -0.0271
 3163W        W18972   2.369  13.911  11.756  0.1455 -0.1122 -0.1338
 3164W        W18973   3.268   8.475  16.899  0.1452 -0.1922 -0.0572
 3165W        W18974  14.440   0.467   4.854  0.1134  0.4110 -0.0764
 3166W        W18975   2.979  15.924  13.048  0.0360 -0.0725 -0.1051
 3167W        W18976   1.806  15.602  11.838 -0.2542 -0.0322  0.3882
 3168W        W18977   6.668   0.166  13.154 -0.2655 -0.0154  0.1534
 3169W        W18978  14.757   0.983  12.642  0.0706  0.0267 -0.2537
 3170W        W18979   0.235   6.017   2.298  0.0638  0.0845  0.2945
 3171W        W18980  11.893   5.803  15.559  0.0136  0.0484  0.1736
 3172W        W18981   0.026   4.214   0.462 -0.0430  0.1263  0.0791
 3173W        W18982  17.418  16.630   0.191  0.0506 -0.0188  0.2061
 3174W        W18983  13.653  12.488   1.105 -0.0209  0.1058  0.0593
 3175W        W18984  16.044  15.018  16.009 -0.0466  0.3312  0.0124
 3176W        W18985   8.624  13.743  13.079  0.2571 -0.2645  0.3881
 3177W        W18986  14.422  16.384   2.376  0.0724 -0.1326  0.0664
 3178W        W18987  15.167   8.440   1.976 -0.2182 -0.0166 -0.0447
 3179W        W18988   6.617  12.791  13.365 -0.1235  0.0778 -0.1124
 3180W        W18989   0.119   0.874   2.056  0.0360  0.1364 -0.0563
 3181W        W18990   5.187   3.394   5.946  0.0246  0.0780 -0.3757
 3182W        W18991   7.508   1.631  16.631  0.3109  0.2187 -0.2481
 3183W        W18992  17.509  16.076  12.485 -0.2055  0.0121 -0.2490
 3184W        W18993  11.112   7.723  13.199 -0.0497  0.2360  0.1219
 3185W        W18994  17.084  15.296   0.420  0.0927 -0.2375  0.1179
 3186W        W18995   8.987   1.813   1.788 -0.1560  0.1148  0.3410
 3187W        W18996   0.934  12.149  13.872 -0.1678 -0.1083 -0.0380
 3188W        W18997  13.946   9.983  13.512 -0.1919 -0.1442 -0.1127
 3189W        W18998   2.422   8.092   0.721 -0.3086  0.3812 -0.5326
 3190W        W18999  13.430  11.288   1.291  0.0868 -0.2001  0.0977
 3191W        W19000   0.523   8.380  11.735 -0.1031  0.0344 -0.1585
 3192W        W19001  12.455   6.419   5.274 -0.0550  0.0945  0.0027
 3193W        W19002  10.263   0.913   0.701 -0.0105  0.1957 -0.1297
 3194W        W19003   4.430  14.972  12.544 -0.3091 -0.2237 -0.2200
 3195W        W19004  12.791   4.899   5.109 -0.1436 -0.1440 -0.0878
 3196W        W19005  11.039  10.145   3.682 -0.1392  0.1595  0.0596
 3197W        W19006   7.714  17.034   0.400  0.1385 -0.0544  0.1337
 3198W        W19007   8.518   3.888  12.226  0.1912 -0.0391 -0.1408
 3199W        W19008   3.339  16.964  16.802  0.0469  0.4404 -0.1623
 3200W        W19009  11.558   0.840  16.577  0.0823  0.1588 -0.1404
 3201W        W19010  11.508   6.069  13.841 -0.0203 -0.0454  0.0105
 3202W        W19011   1.982   4.865   4.384  0.2488  0.1812 -0.0559
 3203W        W19012   9.766   5.832   4.716 -0.1085  0.1159  0.0029
 3204W        W19013  10.266  16.841  15.723 -0.0127  0.0268 -0.3165
 3205W        W19014  13.751   2.073  12.617  0.2828  0.2175  0.0652
 3206W        W19015  14.232   7.452   6.661  0.0586 -0.2556  0.0667
 3207W        W19016   9.313   1.580  16.985 -0.0442 -0.0178  0.1152
 3208W        W19017  17.431   5.783  15.804 -0.0402 -0.2433 -0.1068
 3209W        W19018   3.278   2.565  13.716 -0.0264 -0.2037  0.1554
 3210W        W19019  14.526  13.440   4.204 -0.0685  0.2441 -0.1277
 3211W        W19020  13.219   5.797  15.466  0.2044  0.0457 -0.0367
 3212W        W19021  13.820  10.375   1.049 -0.2780  0.2159 -0.0538
 3213W        W19022  13.853   9.482  10.761 -0.1297 -0.0567 -0.0566
 3214W        W19023   4.546  11.210   2.258  0.3745  0.2503  0.1930
 3215W        W19024  16.697  15.950  14.208 -0.1773 -0.0210 -0.2644
 3216W        W19025   5.992   3.547  14.917  0.2593  0.2304 -0.0342
 3217W        W19026   6.562  12.682  12.334 -0.1569  0.0511 -0.0400
 3218W        W19027  10.213   8.139  13.484 -0.0516 -0.0047 -0.1588
 3219W        W19028   1.792   7.553  16.158  0.2079  0.2291 -0.2984
 3220W        W19029   4.094   5.288  14.727  0.0022 -0.3458 -0.1251
 3221W        W19030   2.659  12.506  13.027  0.0607  0.1962  0.3734
 3222W        W19031   9.175   2.161  12.179 -0.1216  0.1632  0.2766
 3223W        W19032   3.582   1.193   1.681  0.1279  0.2280  0.3894
 3224W        W19033  11.599  16.283   0.603  0.2077 -0.0325 -0.2758
 3225W        W19034  10.620   0.840  13.540 -0.1079  0.1579 -0.1555
 3226W        W19035   5.984  10.101  16.578  0.1141 -0.1223  0.3313
 3227W        W19036  17.368  10.828   0.299 -0.1559 -0.0612  0.0085
 3228W        W19037   0.737   8.158   5.671 -0.1593 -0.0895  0.1631
 3229W        W19038   2.571   6.868  14.965 -0.3833  0.1043 -0.0198
 3230W        W19039  11.166   1.412   2.813 -0.1130 -0.0474 -0.1593
 3231W        W19040   2.174   6.814   4.231 -0.1085  0.0805  0.2031
 3232W        W19041  11.219  15.994   3.417 -0.0236 -0.1316 -0.1079
 3233W        W19042  16.057   0.627  14.072 -0.0336 -0.3527 -0.4380
 3234W        W19043   1.879  12.388  14.697  0.1339  0.1197  0.0042
 3235W        W19044   3.455   5.123   4.189 -0.1368  0.0148  0.2235
 3236W        W19045  13.325  11.031  16.996  0.4286 -0.1977  0.2501
 3237W        W19046  17.130   9.951   3.554  0.0692 -0.1998 -0.0719
 3238W        W19047   7.661  10.026  12.225  0.0922  0.0343 -0.3885
 3239W        W19048  11.081  12.292  10.975 -0.0372  0.1894  0.4589
 3240W        W19049  10.188   7.628  12.622 -0.0964  0.0230 -0.0727
 3241W        W19050   5.747  12.613  12.445 -0.1154 -0.1333 -0.0670
 3242W        W19051  14.229  11.706   1.428  0.0036  0.0330 -0.0144
 3243W        W19052   0.126  11.039  11.759  0.3437 -0.1339  0.3517
 3244W        W19053  12.032   3.907  16.329  0.0351  0.1395  0.0687
 3245W        W19054   7.237   3.867  16.908  0.1142  0.2489  0.1763
 3246W        W19055  16.556   4.863  12.058  0.0863 -0.3182  0.1648
 3247W        W19056   5.092   3.595   1.021 -0.3637  0.0887  0.1858
 3248W        W19057   8.808  15.187   0.635 -0.0085  0.1940  0.0140
 3249W        W19058   1.782   2.472   2.123 -0.0438  0.0001  0.2662
 3250W        W19059   5.037   6.448   5.796  0.0922  0.0896  0.1250
 3251W        W19060  14.233   9.650  15.274  0.1631  0.1221  0.1023
 3252W        W19061  11.940  12.132  16.007 -0.1014  0.1916  0.0185
 3253W        W19062   4.280   9.231   2.039 -0.2051  0.0528 -0.0322
 3254W        W19063  15.869   4.665   6.115 -0.0197  0.0930 -0.0716
 3255W        W19064  12.974   9.251   4.319  0.0179 -0.0043  0.0923
 3256W        W19065   0.988  11.253  13.826  0.3077  0.3454  0.0680
 3257W        W19066   1.910   9.468  15.028 -0.1820 -0.0376  0.2378
 3258W        W19067   2.705   7.087   2.826 -0.5608  0.2685 -0.4379
 3259W        W19068   1.799   8.106   2.927 -0.0581  0.2501 -0.0305
 3260W        W19069  15.010   9.591  15.921  0.1353  0.3052 -0.1537
 3261W        W19070   2.183  10.417  12.697  0.1536  0.3195 -0.0454
 3262W        W19071   2.336   0.347  12.690  0.0546  0.0325  0.0851
 3263W        W19072  10.826  15.589   1.236  0.0668  0.0736 -0.0558
 3264W        W19073  12.575   7.838  14.706 -0.3249 -0.1438  0.1539
 3265W        W19074   2.758  15.383  15.054 -0.1446 -0.3588 -0.1047
 3266W        W19075  14.711   8.066  14.880  0.3202 -0.0763  0.1800
 3267W        W19076  14.249   1.416  13.897  0.3829 -0.0276 -0.0554
 3268W        W19077   5.251   5.098   6.507 -0.0595  0.1893 -0.2295
 3269W        W19078   2.420   5.929  13.211  0.1624  0.0697 -0.2462
 3270W        W19079   6.964  10.112   0.806 -0.0693 -0.1495 -0.1060
 3271W        W19080  14.280  13.097   0.614  0.4782  0.2444  0.1638
 3272W        W19081   7.624   5.136  14.132 -0.1196  0.0415 -0.2105
 3273W        W19082  11.029  12.057   4.175  0.2059 -0.0876  0.1784
 3274W        W19083   1.332  15.916  14.509 -0.1376  0.1275  0.1396
 3275W        W19084  17.365  16.077   1.594  0.0327 -0.0361  0.0587
 3276W        W19085  12.473  12.737  14.711  0.3361  0.0834 -0.1790
 3277W        W19086   9.212   9.491  11.825 -0.3103 -0.0014  0.0328
 3278W        W19087   7.182   1.764  12.317 -0.0069  0.1375 -0.1141
 3279W        W19088   2.172  12.921  15.337  0.1133  0.0348  0.2212
 3280W        W19089   9.623   9.470   3.703  0.2064 -0.0037  0.2142
 3281W        W19090   0.209   9.848  12.375 -0.2382 -0.1352 -0.0577
 3282W        W19091   0.260  15.966  10.143  0.1000 -0.1185 -0.1964
 3283W        W19092  14.868  15.642  16.897 -0.0801 -0.0231  0.0138
 3284W        W19093   9.913   5.466  13.096  0.1780 -0.0385 -0.1087
 3285W        W19094  11.525   1.216  13.626 -0.1119  0.2819  0.0372
 3286W        W19095  11.175   2.217  14.149 -0.0159 -0.1527 -0.2483
 3287W        W19096   8.877  16.442   1.127  0.0897  0.0498  0.0947
 3288W        W19097   9.494  16.220   1.532 -0.0920  0.1646 -0.2185
 3289W        W19098   3.503   1.071   1.158 -0.1107  0.0967  0.1795
 3290W        W19099   2.273   5.523  14.891  0.0687 -0.2367 -0.0732
 3291W        W19100   7.059  11.987   1.785  0.1287  0.0159 -0.0337
 3292W        W19101  16.489   6.960  11.485  0.1164 -0.2173  0.0349
 3293W        W19102   0.227   2.408   3.480 -0.0654 -0.0104  0.0872
 3294W        W19103   6.145  15.632  11.960  0.1518  0.0777 -0.2822
 3295W        W19104   4.390   9.949  12.341 -0.3492 -0.0370  0.1825
 3296W        W19105   3.053  17.254   0.658  0.0807 -0.0054 -0.1673
 3297W        W19106  15.763   1.163  14.893 -0.2639 -0.1179  0.0410
 3298W        W19107   7.438   6.085  11.776  0.2979  0.1179 -0.2444
 3299W        W19108   7.550   2.909  16.219 -0.0171  0.1240  0.0806
 3300W        W19109   5.823   2.046   3.867  0.1021  0.1417  0.3610
 3301W        W19110   3.201   6.483   4.768 -0.0672 -0.1808 -0.3002
 3302W        W19111   0.500  12.873  14.044 -0.0492  0.0326  0.0130
 3303W        W19112   4.074  16.703   2.334  0.2046 -0.4019 -0.0191
 3304W        W19113  10.468  15.549  15.543  0.1975  0.0450  0.0650
 3305W        W19114   7.154  13.785  16.260  0.0516 -0.0500 -0.1774
 3306W        W19115  12.997   8.127   0.121 -0.0898 -0.0477  0.1445
 3307W        W19116  17.476   8.643   3.463 -0.1769  0.0508  0.2661
 3308W        W19117  14.337   3.166  13.348 -0.1251 -0.1500  0.0601
 3309W        W19118   9.148  11.017  15.740 -0.2064 -0.0274  0.0565
 3310W        W19119   0.270  13.313   1.374 -0.4296  0.2052 -0.1335
 3311W        W19120   3.639   5.646  16.618 -0.1410 -0.0067  0.0657
 3312W        W19121   4.735  15.958  12.812  0.1601 -0.0411  0.1480
 3313W        W19122  17.595  13.498   3.588  0.2330  0.0527 -0.1414
 3314W        W19123  15.286   3.338   4.007 -0.1584  0.0042  0.1611
 3315W        W19124  10.437  14.428  16.846  0.0335 -0.0737 -0.3606
 3316W        W19125  15.406   1.554  14.970  0.0833 -0.0205  0.0357
 3317W        W19126  11.477   3.417   5.617  0.3166 -0.0771  0.0258
 3318W        W19127   3.616   1.560  14.488 -0.2441  0.1667  0.1282
 3319W        W19128   4.558   5.515   0.745  0.1099  0.0496 -0.2821
 3320W        W19129  16.846   3.541   2.422 -0.1765  0.0051  0.0084
 3321W        W19130  10.053  13.443   0.732  0.1068 -0.0108  0.0278
 3322W        W19131  12.883   2.517   0.378 -0.0446 -0.0746  0.1103
 3323W        W19132  13.412   8.413  14.799  0.0780 -0.0413  0.0499
 3324W        W19133  10.207   5.583   2.224  0.0676  0.1807 -0.0078
 3325W        W19134  15.850   9.515   6.297 -0.3791 -0.2776 -0.0148
 3326W        W19135   0.731   0.116   0.598 -0.1717 -0.0168  0.1185
 3327W        W19136   0.476  13.531   3.795 -0.1534 -0.3274  0.1220
 3328W        W19137   3.347   7.789   5.489  0.2955 -0.2257  0.1222
 3329W        W19138   9.416   4.168   2.307  0.3508  0.1055 -0.0905
 3330W        W19139   0.658   6.765  13.606  0.0775 -0.1681  0.0591
 3331W        W19140   6.497  10.781  15.439  0.1918  0.0984  0.1300
 3332W        W19141  12.709   1.793  14.267 -0.2175 -0.0281  0.0526
 3333W        W19142   8.599   2.836   2.008 -0.1222 -0.1389 -0.1844
 3334W        W19143  11.316  12.035   5.158 -0.1806 -0.2692 -0.2013
 3335W        W19144   6.367   1.929   2.420  0.1827 -0.1993  0.1255
 3336W        W19145  17.241   3.914   4.712  0.1486 -0.1201  0.2445
 3337W        W19146   5.561  10.916   0.764 -0.1421 -0.1280  0.1348
 3338W        W19147  11.147  13.531  11.264  0.1173 -0.2425 -0.0174
 3339W        W19148  11.127  11.946   2.586  0.1945  0.1642 -0.2637
 3340W        W19149   4.066  17.390  11.502  0.0742 -0.1281 -0.1046
 3341W        W19150  10.334  16.971  13.179 -0.1175 -0.1114 -0.0229
 3342W        W19151  10.706   7.850   4.008 -0.4299  0.2301 -0.1662
 3343W        W19152  13.043  15.201   1.859  0.2288 -0.0423 -0.0986
 3344W        W19153   5.104   9.244   0.732  0.0061 -0.0856 -0.3460
 3345W        W19154  12.609  15.271   0.765 -0.2963 -0.0355 -0.3262
 3346W        W19155  15.923   1.650   2.430 -0.0288 -0.1222 -0.0207
 3347W        W19156  14.511   9.205   2.319 -0.0951 -0.0932 -0.0726
 3348W        W19157  13.596   0.896   5.280 -0.0789 -0.1104 -0.1125
 3349W        W19158  17.072  11.030   0.644  0.0229  0.0211  0.0182
 3350W        W19159  12.767   8.421  11.746 -0.0630  0.2939 -0.1618
 3351W        W19160   2.419  16.534   1.619 -0.0647 -0.1382  0.4201
 3352W        W19161  16.758   5.376  15.642  0.2916  0.4194  0.0416
 3353W        W19162   5.071  16.503   4.166  0.0381 -0.0197 -0.0269
 3354W        W19163   2.924   1.278   5.058  0.0528  0.0224 -0.3050
 3355W        W19164  10.297   8.687   2.096 -0.1592 -0.1649 -0.0655
 3356W        W19165   1.161  10.145  14.940 -0.2085 -0.0154  0.2776
 3357W        W19166   5.155   6.233   1.195  0.2613  0.1201  0.0857
 3358W        W19167   3.197   5.490   2.621  0.0617  0.0144 -0.0129
 3359W        W19168  13.929  13.663   1.608 -0.1901  0.3258  0.0806
 3360W        W19169   7.351  13.914  15.038 -0.0961  0.2822  0.0194
 3361W        W19170   3.608  16.040  15.938  0.0603 -0.0892 -0.3881
 3362W        W19171   2.021  11.856   4.640  0.0039  0.1124  0.0367
 3363W        W19172   9.656  11.606   0.457 -0.1703  0.0036 -0.0328
 3364W        W19173   8.618   6.193   3.741  0.1591 -0.0678 -0.1992
 3365W        W19174   3.258  10.242   4.112 -0.0418 -0.1261 -0.0150
 3366W        W19175   8.987   4.418  15.618 -0.0031  0.2340  0.0320
 3367W        W19176  17.210  13.952  11.641  0.1278  0.1382  0.3944
 3368W        W19177   8.626   1.278   4.471  0.2134 -0.0960  0.1784
 3369W        W19178   9.474   0.444   1.978  0.2039  0.2186 -0.2045
 3370W        W19179  11.086   8.426  12.135 -0.2691 -0.0924  0.0808
 3371W        W19180  13.786   1.831  15.608 -0.1471 -0.1634 -0.1247
 3372W        W19181   9.349   6.216  14.547  0.2256 -0.0367 -0.2134
 3373W        W19182  16.451  10.990  12.374 -0.5310  0.0694  0.1447
 3374W        W19183   5.119   9.586  12.622 -0.1279 -0.0875  0.3592
 3375W        W19184  11.006   2.229  14.625 -0.1480 -0.0194 -0.2334
 3376W        W19185   4.922  16.456  12.043  0.1158 -0.1287  0.0532
 3377W        W19186  15.502  17.513  14.011 -0.0906  0.0075 -0.0370
 3378W        W19187   3.087   4.043  15.356 -0.0069  0.2602  0.0377
 3379W        W19188   5.232   3.043   4.283 -0.1190 -0.2783  0.0401
 3380W        W19189   1.725  17.268   5.528  0.0678 -0.2876  0.4781
 3381W        W19190   6.148   6.504   6.436  0.2739 -0.3352  0.0121
 3382W        W19191   8.126   4.675  16.264 -0.3264 -0.1740  0.2406
 3383W        W19192   3.065  14.496  13.630  0.0018 -0.0331  0.1169
 3384W        W19193   5.834  16.196  14.920 -0.2429 -0.0553 -0.2459
 3385W        W19194   0.350   1.236   2.279 -0.2157 -0.0863 -0.1179
 3386W        W19195   2.395  15.584  16.846  0.0665  0.0928  0.1996
 3387W        W19196   0.713   4.590   6.152 -0.1328  0.0684  0.1966
 3388W        W19197   8.929   8.655  15.871  0.1549  0.1779 -0.0971
 3389W        W19198   2.521   3.056  14.363  0.2293 -0.0760  0.0727
 3390W        W19199   8.981   3.824  15.423  0.2888 -0.0865  0.2511
 3391W        W19200  17.045   1.628   0.494  0.3377  0.0303 -0.0112
 3392W        W19201  16.012  14.367   3.580  0.1101 -0.2477 -0.0912
 3393W        W19202   3.122  13.359   2.619  0.2095 -0.1419  0.0256
 3394W        W19203  15.093  15.600  12.146 -0.2294  0.0164  0.2161
 3395W        W19204  11.216   6.754  14.456 -0.0449 -0.0788  0.0499
 3396W        W19205  13.823   0.292  13.370  0.3134 -0.1125  0.1078
 3397W        W19206  10.580  16.740  15.316 -0.1125  0.0290  0.0575
 3398W        W19207   0.914  16.632  13.327  0.0742 -0.1125 -0.1304
 3399W        W19208  13.235   6.822  16.705 -0.3203 -0.0066  0.2303
 3400W        W19209   8.316   9.404   4.701  0.0431  0.1741  0.1225
 3401W        W19210   4.864  15.046  15.886  0.1374 -0.0410  0.0777
 3402W        W19211  12.356   8.544  14.822 -0.0669 -0.1087  0.2425
 3403W        W19212   9.759   1.543   0.724  0.0881  0.2867  0.1585
 3404W        W19213   6.558  15.913  16.562 -0.0355 -0.3456 -0.0823
 3405W        W19214   8.591  16.665  14.967 -0.1575 -0.0057  0.0639
 3406W        W19215  14.155   8.767   1.497  0.5391  0.0385  0.2300
 3407W        W19216  10.549   7.998  16.159  0.0698 -0.2272 -0.2114
 3408W        W19217   3.960   7.311  15.802 -0.2027 -0.1745  0.3229
 3409W        W19218   5.115  13.100  12.737  0.0574  0.1489 -0.4939
 3410W        W19219   8.925   6.923  16.751  0.2050 -0.0033  0.1467
 3411W        W19220   5.285  15.615  10.290 -0.2696  0.1141  0.1137
 3412W        W19221   1.924   6.392  14.625  0.1470  0.1859  0.0834
 3413W        W19222  10.037   1.193  13.072  0.0987 -0.0389  0.1912
 3414W        W19223  12.672  13.113  11.933  0.2455  0.2024  0.1415
 3415W        W19224   3.128  11.882  11.983 -0.2931  0.1187 -0.0905
 3416W        W19225   8.480  13.084   2.380  0.0455 -0.0342  0.1221
 3417W        W19226   2.644   7.720   3.334  0.1856  0.3137  0.0268
 3418W        W19227   8.089  11.971   5.088 -0.0885 -0.3119  0.2278
 3419W        W19228  17.279   9.565   3.920 -0.0527  0.1891  0.1804
 3420W        W19229   6.421   3.307  12.428  0.1110 -0.4314 -0.2411
 3421W        W19230  13.852   3.912   2.910  0.2037  0.0198  0.2113
 3422W        W19231  15.819   2.301   5.447 -0.2039  0.1354  0.0641
 3423W        W19232   8.343   6.374   1.004  0.0348  0.0719  0.0646
 3424W        W19233  10.793   0.238   5.715  0.0978  0.0411  0.3659
 3425W        W19234  11.125   6.882  15.661  0.2913 -0.0024 -0.0773
 3426W        W19235  14.176   1.707   3.224 -0.1039 -0.1060  0.0006
 3427W        W19236   7.330  10.175  13.077 -0.0369 -0.1263 -0.3005
 3428W        W19237   2.629   6.636   0.967 -0.0338  0.2047 -0.1087
 3429W        W19238   5.454   8.357   4.536 -0.0476  0.0024 -0.0397
 3430W        W19239   5.336   1.866  15.897  0.2311  0.2639  0.0329
 3431W        W19240   4.442  13.781   2.142 -0.0481 -0.3615  0.0905
 3432W        W19241   4.581  11.761   0.907  0.0398  0.0565 -0.1181
 3433W        W19242  15.170   5.120   3.639  0.0359 -0.1274  0.1180
 3434W        W19243  16.593  17.464  14.937  0.0545 -0.2928 -0.1795
 3435W        W19244  16.980  17.697   2.373 -0.1262  0.1781 -0.0524
 3436W        W19245  17.701  14.433  16.528  0.3022 -0.0371  0.4981
 3437W        W19246  10.287  13.756  16.071  0.3186  0.0621 -0.1541
 3438W        W19247  11.143   6.783   2.161  0.0840 -0.2384  0.0485
 3439W        W19248  15.971   5.591  12.344  0.0023  0.0740 -0.3868
 3440W        W19249  16.927  14.659  13.455 -0.1988 -0.0716 -0.2130
 3441W        W19250   2.814   3.602  16.960 -0.0759  0.0415 -0.1470
 3442W        W19251  14.709   2.864  16.104 -0.1275 -0.0977  0.1970
 3443W        W19252  17.651   6.687   4.050  0.4222  0.1605  0.1608
 3444W        W19253  16.808  16.842   1.177  0.0022  0.0026  0.1848
 3445W        W19254  11.826   9.897   4.476 -0.0134  0.1401  0.1020
 3446W        W19255  15.262   0.638   5.097  0.1507 -0.0338  0.1418
 3447W        W19256  15.068   9.461   0.985 -0.0087 -0.0422  0.0643
 3448W        W19257  14.915   7.708  15.595 -0.3332 -0.1343 -0.2589
 3449W        W19258   5.237   4.793  14.158  0.0570 -0.2107 -0.0414
 3450W        W19259  11.449  15.101   5.334  0.0656  0.1249  0.3033
 3451W        W19260   5.765   5.381   4.170 -0.0369  0.2058  0.1713
 3452W        W19261   3.079   1.985  16.365  0.0994  0.1324  0.1134
 3453W        W19262   8.446   4.364  12.885  0.0172 -0.1941  0.2220
 3454W        W19263   2.950  17.288   2.471 -0.1061 -0.0259  0.0706
 3455W        W19264   3.160   9.020  16.826 -0.0836 -0.2456 -0.2020
 3456W        W19265   0.816  16.683  14.349 -0.1198  0.3501 -0.1288
 3457W        W19266  16.828  15.378  11.978  0.1463 -0.3498  0.1144
 3458W        W19267   4.247  17.403   4.655 -0.1558  0.1488  0.1144
 3459W        W19268   6.209   1.839  16.471 -0.0450  0.1890 -0.0292
 3460W        W19269  14.824  11.586   1.099  0.1929  0.2505  0.1083
 3461W        W19270  13.869   7.181  13.356 -0.1589  0.1198  0.0440
 3462W        W19271  11.060  11.840   0.280  0.1133 -0.0847  0.0528
 3463W        W19272   1.240  14.172  12.977  0.0392  0.1020  0.1198
 3464W        W19273  16.274  16.396   5.224  0.1922  0.2494  0.3558
 3465W        W19274   0.602  15.499   0.214  0.1091  0.0893 -0.0294
 3466W        W19275  12.428  14.041  10.972  0.0587  0.0897  0.1699
 3467W        W19276   8.344  13.465  15.343  0.0618 -0.3412 -0.0713
 3468W        W19277   3.784  12.586  11.525  0.3509  0.1893  0.1624
 3469W        W19278   3.605   2.593   5.473 -0.1269  0.0048  0.1630
 3470W        W19279   8.080  17.665  11.735 -0.1062  0.1431  0.1628
 3471W        W19280  14.675  11.474   1.515  0.1681 -0.2281  0.0474
 3472W        W19281   5.807  13.936  13.381 -0.2593  0.2277 -0.0406
 3473W        W19282  11.784  14.675   0.010 -0.1104 -0.2560  0.2925
 3474W        W19283   7.841  13.725  16.496 -0.0311 -0.2828  0.0927
 3475W        W19284  16.232   6.544  13.782  0.3001  0.1990  0.1290
 3476W        W19285  13.254  11.919   4.752 -0.0830 -0.1406  0.1217
 3477W        W19286   1.339   7.221   4.656 -0.1330 -0.0599  0.1253
 3478W        W19287   6.939  15.388   3.640  0.1371  0.1459 -0.5903
 3479W        W19288   6.527   5.619  13.556 -0.1745  0.0214 -0.1371
 3480W        W19289   2.394   3.078  15.514 -0.3022 -0.3711  0.2255
 3481W        W19290   7.031  16.539  12.340  0.0883  0.2306 -0.0080
 3482W        W19291  12.938   5.281   3.392 -0.0148  0.1784  0.3095
 3483W        W19292   6.862  14.471   5.439 -0.1540 -0.1444  0.0113
 3484W        W19293   9.385   4.884   3.422 -0.0410 -0.2361  0.2146
 3485W        W19294   6.518  11.891   2.818  0.0775  0.1946 -0.2663
 3486W        W19295  12.744   6.088   1.211 -0.1636 -0.1289  0.0277
 3487W        W19296   8.193   9.407  15.670 -0.1253 -0.4300 -0.0461
 3488W        W19297  10.322   6.470   0.930 -0.0491 -0.1875 -0.2061
 3489W        W19298   4.800   7.512   1.484 -0.0340  0.2367 -0.2308
 3490W        W19299  16.316  14.643  16.775 -0.0032 -0.2852  0.0022
 3491W        W19300  11.840  12.126   1.224 -0.2113  0.0148 -0.0866
 3492W        W19301  17.571  14.105  14.672 -0.0299  0.0130  0.1691
 3493W        W19302  17.039   5.173   4.796 -0.2072  0.0471 -0.0449
 3494W        W19303   4.248   4.131  11.412  0.0081  0.1339 -0.1481
 3495W        W19304   6.598   8.868   4.751 -0.0343 -0.2453 -0.2149
 3496W        W19305   3.081   7.481  14.100 -0.0472 -0.3271 -0.2846
 3497W        W19306   5.712  12.176   1.889 -0.0903  0.0557  0.0274
 3498W        W19307   8.837  15.476  11.043  0.2722  0.1045 -0.0603
 3499W        W19308   1.997   3.367   3.551  0.1014 -0.1316  0.3761
 3500W        W19309   8.210   1.124  14.555 -0.0444  0.0871 -0.0291
 3501W        W19310   4.549  14.223  12.458  0.1154 -0.0058 -0.2450
 3502W        W19311  15.674   5.238  13.637 -0.0590 -0.0162 -0.1634
 3503W        W19312   6.777  15.790  15.510  0.0045 -0.1409 -0.0292
 3504W        W19313   0.786  17.504  11.932  0.1259  0.4890 -0.4438
 3505W        W19314   1.048   5.381   3.358 -0.1282 -0.0595  0.0647
 3506W        W19315  10.584  11.772   4.037 -0.0966  0.0321  0.2118
 3507W        W19316  13.592   4.513   6.126 -0.1470  0.2921 -0.0082
 3508W        W19317  11.066   4.195  15.152  0.0554 -0.0143  0.0139
 3509W        W19318   5.000   6.326   4.498  0.0878 -0.0294  0.1083
 3510W        W19319  10.176  10.436   4.820 -0.2088  0.0085  0.3383
 3511W        W19320   0.741  17.607  14.722  0.1844  0.2184  0.0223
 3512W        W19321  17.193   3.745  13.032  0.0281  0.1485 -0.0645
 3513W        W19322  16.539   8.646   2.960  0.3093  0.2722  0.1252
 3514W        W19323   2.605  16.768   0.030 -0.0097 -0.2043  0.1078
 3515W        W19324   7.658  14.906  15.817 -0.2043  0.4500  0.1113
 3516W        W19325  12.349  14.289  15.178  0.0389  0.1752  0.2243
 3517W        W19326   5.807   1.079  12.398  0.0886  0.0455  0.0018
 3518W        W19327  11.292  17.723   3.839  0.4007  0.1297 -0.2125
 3519W        W19328   6.854  13.161   4.134 -0.2451 -0.0954  0.2092
 3520W        W19329  16.555  13.512  12.787  0.0227  0.0174 -0.0211
 3521W        W19330   3.817  15.407  13.476 -0.2313 -0.0188  0.0355
 3522W        W19331   4.996  13.758  11.664 -0.1116 -0.2299 -0.1244
 3523W        W19332  10.041  16.774   2.136  0.2581 -0.2155  0.1133
 3524W        W19333   8.631   8.675   3.644 -0.2030  0.0995  0.1478
 3525W        W19334   9.967  15.198  15.065  0.1414  0.0184 -0.0798
 3526W        W19335   4.651  10.983   2.724 -0.3455  0.1006  0.0823
 3527W        W19336   2.413   7.803  12.911  0.2608  0.1660  0.1211
 3528W        W19337  14.384  14.519  12.622 -0.0247  0.3494  0.2605
 3529W        W19338   6.996   7.897   1.414 -0.0043  0.0286  0.0526
 3530W        W19339   5.049  16.025  15.478  0.0796 -0.2227 -0.1154
 3531W        W19340   8.998   6.858  13.484 -0.1190 -0.1928 -0.3589
 3532W        W19341   2.093  12.168   1.016 -0.0567 -0.1018 -0.0966
 3533W        W19342   0.603   4.819  12.451  0.0897 -0.0464  0.0478
 3534W        W19343  10.510   9.733  15.965  0.1766 -0.0367 -0.2837
 3535W        W19344   9.308  16.110   4.357 -0.1940  0.0185 -0.1999
 3536W        W19345   4.601   0.706  14.823 -0.2201 -0.1870  0.1074
 3537W        W19346   1.494   2.203   1.757 -0.3557  0.0641 -0.0425
 3538W        W19347   7.377  12.376  15.918 -0.3774  0.1218 -0.1148
 3539W        W19348  13.364  17.481  14.995  0.0030 -0.0475 -0.1407
 3540W        W19349   4.445  15.946  10.658 -0.1018 -0.3361  0.3734
 3541W        W19350   9.630   9.845  14.726  0.0971 -0.0585  0.1858
 3542W        W19351   2.769  14.376   4.344 -0.3049 -0.0536 -0.0708
 3543W        W19352   8.850  14.533  12.101  0.4082  0.1763  0.1816
 3544W        W19353   9.911   1.489   6.007  0.0639  0.0884 -0.4338
 3545W        W19354  13.744  14.939   1.320 -0.2693  0.0886 -0.2933
 3546W        W19355   7.277   9.549  14.772 -0.1846 -0.1717 -0.1840
 3547W        W19356   8.150   0.947   3.999 -0.0249 -0.1550 -0.1938
 3548W        W19357   7.328   3.127   3.289  0.1866 -0.1501 -0.2452
 3549W        W19358  10.849   9.215   6.350  0.0762 -0.1718  0.0532
 3550W        W19359  11.638  14.748  14.446  0.1722  0.0127  0.1517
 3551W        W19360   0.449  14.457   0.681 -0.2925  0.0036 -0.0099
 3552W        W19361   7.180   5.406   0.807  0.1264  0.1096 -0.2021
 3553W        W19362  16.207   8.555   0.454  0.1065 -0.1430 -0.2659
 3554W        W19363  10.929   7.932   2.157 -0.1930 -0.0826 -0.0704
 3555W        W19364  12.216  17.410   0.356 -0.0542 -0.1891  0.2474
 3556W        W19365  11.344   2.539   5.689  0.2759  0.1574 -0.1301
 3557W        W19366  14.373   8.435   4.449  0.0717  0.2354  0.0937
 3558W        W19367  15.645   4.247   0.535  0.2350 -0.2012  0.3492
 3559W        W19368  14.838   3.068   4.697  0.0203  0.1152  0.2867
 3560W        W19369   4.520  13.795  11.565  0.1122 -0.0472  0.1025
 3561W        W19370  11.781  11.909  14.038 -0.0345  0.1887  0.0283
 3562W        W19371  16.673  10.988   0.949  0.1415 -0.0089 -0.0822
 3563W        W19372   4.875  14.774  11.415  0.0108  0.0673 -0.0533
 3564W        W19373  16.727  10.041   3.832  0.1526 -0.1143 -0.0240
 3565W        W19374   4.144   3.426   3.565 -0.2615  0.2445  0.1693
 3566W        W19375   2.351  15.075   1.979 -0.0360  0.4085 -0.1696
 3567W        W19376   8.830  12.460  13.062 -0.0224 -0.1009 -0.0184
 3568W        W19377   3.879   5.800   4.982  0.0902  0.1864  0.2378
 3569W        W19378   7.534  17.632  11.681  0.2945 -0.1456 -0.1309
 3570W        W19379   4.409   7.011   4.503 -0.0699  0.1572 -0.0668
 3571W        W19380  16.136   0.055  14.894  0.1053  0.3117 -0.0485
 3572W        W19381   5.589   9.402  16.929 -0.6351  0.1991  0.3725
 3573W        W19382  13.938  10.601  14.186  0.0085  0.0486  0.1453
 3574W        W19383  13.641   9.403   0.977 -0.1275  0.1159 -0.0540
 3575W        W19384   1.829  16.553  16.528 -0.1622 -0.0234  0.0160
 3576W        W19385  13.720   1.968  13.804  0.0669 -0.1170 -0.1935
 3577W        W19386   7.493  11.767   0.878 -0.1267  0.2146  0.0899
 3578W        W19387   5.328  12.616  13.369 -0.1702  0.1608  0.0186
 3579W        W19388  10.680   4.636  16.184 -0.1281  0.3523  0.0170
 3580W        W19389   2.047  15.008   3.399 -0.2899  0.0488 -0.1466
 3581W        W19390   1.049  16.185  16.408 -0.0657 -0.0181  0.0428
 3582W        W19391   9.687   6.036   5.643  0.1339 -0.1149 -0.1232
 3583W        W19392  12.363   9.978   1.307 -0.0186 -0.0700 -0.1869
 3584W        W19393   4.653   4.787  12.698  0.0406  0.2193 -0.0247
 3585W        W19394  10.098   3.717   4.627 -0.1159 -0.1485 -0.1040
 3586W        W19395   2.141   6.195   2.098 -0.1021  0.0937  0.1070
 3587W        W19396   9.738   4.335  12.762 -0.2381 -0.1439 -0.0551
 3588W        W19397   1.421  13.642   5.220 -0.2250 -0.0271  0.1455
 3589W        W19398   8.558  10.673  14.848  0.0299  0.0756 -0.0009
 3590W        W19399   2.826   4.404   4.623  0.0257  0.0360  0.0703
 3591W        W19400   8.245  15.114   0.746 -0.4279 -0.0447 -0.1518
 3592W        W19401  12.812   5.090  15.855 -0.1964  0.2033  0.0357
 3593W        W19402   3.761  13.954  14.297 -0.2215 -0.0196 -0.1595
 3594W        W19403   6.473  17.443  14.132  0.2818  0.1098  0.1655
 3595W        W19404   8.171   5.097  16.464 -0.1129  0.0007 -0.0000
 3596W        W19405   8.537   8.953  15.036 -0.2068 -0.1611 -0.0156
 3597W        W19406   7.339   1.389   3.708  0.1533 -0.0808  0.0127
 3598W        W19407  15.303   9.405   0.541  0.0955  0.2669 -0.2785
 3599W        W19408  12.925   7.275   3.014 -0.0952  0.1377 -0.0801
 3600W        W19409   8.229   1.441  16.763  0.2809 -0.0805  0.3550
 3601W        W19410   6.809   5.302   4.327 -0.1738 -0.1085  0.0937
 3602W        W19411  15.271   1.173  12.720  0.0072  0.1579  0.0868
 3603W        W19412  13.520   3.470  15.545 -0.0601 -0.1412  0.1034
 3604W        W19413   7.585   4.803  13.023 -0.1686  0.1774 -0.4222
 3605W        W19414   5.052   7.410   3.579 -0.1859 -0.0432 -0.2198
 3606W        W19415   8.195   3.900   5.616 -0.1809 -0.4917 -0.0106
 3607W        W19416  11.154   1.703  12.151  0.1978  0.0471 -0.2610
 3608W        W19417   6.822  14.977  12.816  0.0621 -0.1363 -0.0216
 3609W        W19418   7.902   7.511   4.685 -0.0593 -0.0722  0.1744
 3610W        W19419   2.736  14.192   1.030 -0.3295  0.1689  0.1402
 3611W        W19420   0.591   9.697   4.192 -0.0809 -0.0022  0.1765
 3612W        W19421   5.366  15.493   2.905  0.2248  0.0278 -0.1437
 3613W        W19422  14.965  12.866   3.415 -0.0427  0.0457  0.1058
 3614W        W19423  17.221   3.389   4.014  0.0337  0.0236 -0.0845
 3615W        W19424  16.383  15.858   1.160  0.1036 -0.1969  0.3577
 3616W        W19425  11.980  14.249  11.932  0.2671 -0.2310 -0.0366
 3617W        W19426   9.200  10.251  13.182 -0.3973  0.1782  0.2222
 3618W        W19427   3.576   8.661  14.594  0.1893 -0.0974 -0.0960
 3619W        W19428   9.371   9.765  12.753  0.0066  0.0158 -0.1258
 3620W        W19429   8.774   6.560   4.986  0.0271 -0.0927 -0.1990
 3621W        W19430  14.306  16.630  12.244  0.1120  0.0330 -0.2328
 3622W        W19431  14.903   5.805   2.209 -0.6586  0.0404  0.2361
 3623W        W19432   8.457  16.410   2.879  0.0187 -0.1184  0.1388
 3624W        W19433   7.939  16.528   0.093 -0.2043 -0.0407 -0.1390
 3625W        W19434   2.071  16.186   2.954  0.2342  0.3387  0.0160
 3626W        W19435  10.715   4.864   4.319 -0.1197  0.1220 -0.5010
 3627W        W19436  13.112   5.528  13.009 -0.1338 -0.1314 -0.3097
 3628W        W19437   3.900  14.377   0.512 -0.3726  0.0130 -0.3208
 3629W        W19438  16.392   7.869   0.502  0.0397  0.3860 -0.2276
 3630W        W19439  16.949  13.886   4.043  0.2057 -0.0150 -0.0954
 3631W        W19440   0.474  10.358   5.492 -0.1307  0.0277  0.0952
 3632W        W19441   6.179  12.146   2.036 -0.0626  0.2954 -0.1621
 3633W        W19442  10.903  16.352   3.157  0.2063  0.2079 -0.3709
 3634W        W19443   3.894   9.802   5.266 -0.2407 -0.1500  0.1162
 3635W        W19444   1.062  16.440   0.023  0.2693  0.2194 -0.2011
 3636W        W19445   4.229  10.064   1.756 -0.1374  0.1502  0.1155
 3637W        W19446  13.858   9.623  13.197 -0.1604  0.2408 -0.1769
 3638W        W19447  13.619  13.616  16.020 -0.0100  0.3142 -0.0202
 3639W        W19448  12.985   3.215   5.537  0.0630 -0.0154 -0.0926
 3640W        W19449  17.242  15.377   2.446 -0.0304  0.1817  0.0684
 3641W        W19450   2.634   9.521  13.751 -0.2317  0.3601  0.0688
 3642W        W19451   4.616   8.758  13.722 -0.2112 -0.0919 -0.1153
 3643W        W19452   3.115   3.791  14.865  0.0487  0.1039 -0.1470
 3644W        W19453  11.466   2.427  13.814 -0.0424 -0.3851 -0.1150
 3645W        W19454   7.511  16.078   4.591  0.1475 -0.1271 -0.0110
 3646W        W19455   1.875  14.734   0.966 -0.0846 -0.0793  0.3299
 3647W        W19456   4.261   0.363  12.630 -0.1327  0.0536 -0.1567
 3648W        W19457  17.613  10.351  13.643  0.0814  0.0168  0.0198
 3649W        W19458  14.707  13.814   4.502 -0.2241  0.0740 -0.0603
 3650W        W19459   3.918   9.272   1.636 -0.1777  0.3112 -0.1027
 3651W        W19460   7.316   3.393   3.723  0.1526  0.3454  0.0762
 3652W        W19461   1.454   8.913  15.589 -0.0126  0.2302 -0.0641
 3653W        W19462   9.042   1.689  16.303  0.1339 -0.3321  0.1516
 3654W        W19463   9.050   2.822   2.288  0.1611  0.0364 -0.2978
 3655W        W19464  12.646  13.652  14.487  0.2444  0.1053 -0.0229
 3656W        W19465  12.316   2.744   3.233  0.1143  0.0607  0.2036
 3657W        W19466  16.372  13.708  11.780 -0.0572  0.1711 -0.0439
 3658W        W19467   9.205   4.118   4.105  0.1390  0.1439 -0.0510
 3659W        W19468   9.662   7.480   1.649 -0.0118  0.1596 -0.0565
 3660W        W19469  17.702   3.813   2.505 -0.2934 -0.0687 -0.0539
 3661W        W19470   1.333  10.020  16.368 -0.1254  0.2898  0.0541
 3662W        W19471  15.381   3.135  13.408 -0.0060  0.1082 -0.1673
 3663W        W19472  11.058  11.410  11.855  0.1473 -0.1997  0.0838
 3664W        W19473   2.914  15.215   3.015  0.1972 -0.3448  0.3548
 3665W        W19474  11.541  14.487  14.870 -0.0033  0.3128  0.1236
 3666W        W19475  13.923  16.977  11.886  0.0354 -0.1720  0.0370
 3667W        W19476   3.604  16.561   2.481  0.1885  0.1679  0.2202
 3668W        W19477   5.280   0.558   2.454 -0.1919  0.0547 -0.0066
 3669W        W19478  13.453   3.637   0.221 -0.0510 -0.1274 -0.1077
 3670W        W19479  10.602  16.037   4.271  0.0845 -0.1172 -0.0576
 3671W        W19480   0.334   9.474  12.019 -0.1656 -0.0173  0.0143
 3672W        W19481   7.680  11.435   5.116 -0.3650  0.0338  0.0259
 3673W        W19482   8.076  13.444   3.798  0.0899  0.0856  0.0161
 3674W        W19483  11.616  13.014   2.703  0.2341  0.0526  0.1961
 3675W        W19484   0.370   4.214   1.572  0.0031  0.1253 -0.2614
 3676W        W19485  15.097  16.533  13.717  0.3766 -0.0493 -0.0859
 3677W        W19486  14.148   9.212   5.582  0.1185  0.1159 -0.2124
 3678W        W19487   8.638  13.897  15.301  0.0756 -0.1471  0.1744
 3679W        W19488  11.904  17.718   3.455  0.0085 -0.0534  0.0802
 3680W        W19489  10.206   3.437  14.911  0.2484  0.1258 -0.4720
 3681W        W19490  11.035  10.985   0.367  0.1184 -0.2413  0.1835
 3682W        W19491   1.415  11.451   2.408  0.1484 -0.0912 -0.0250
 3683W        W19492   5.192   0.513   1.303 -0.1188 -0.0499  0.0133
 3684W        W19493   6.996  15.743  13.593 -0.2964  0.1811  0.1715
 3685W        W19494   5.153   5.566   0.212 -0.1221  0.1583 -0.2391
 3686W        W19495  13.844  15.651   4.979  0.0484  0.0538  0.3587
 3687W        W19496   9.817   8.799   2.760  0.0915 -0.1048  0.1033
 3688W        W19497   7.755   6.390   1.588 -0.0433  0.1738 -0.1093
 3689W        W19498   1.919   3.744  12.787  0.3761  0.4660  0.4581
 3690W        W19499   1.052   5.962   6.245  0.2019  0.2216 -0.2164
 3691W        W19500   8.424  10.046   2.262  0.2058  0.1607 -0.0818
 3692W        W19501   8.135   7.606   5.379  0.2790 -0.0383 -0.4520
 3693W        W19502   1.142  14.935   3.887  0.0460 -0.1739  0.2066
 3694W        W19503  17.079  12.881  12.230 -0.1577 -0.2142 -0.1834
 3695W        W19504   8.135   8.981  12.970 -0.2990  0.3591  0.0763
 3696W        W19505  10.325   5.976   4.083 -0.3360 -0.2843  0.0006
 3697W        W19506   0.058   2.193   4.283  0.0267 -0.0319 -0.1959
 3698W        W19507   9.867  10.973  12.945 -0.2837  0.0855  0.0011
 3699W        W19508  14.930  14.342   4.245  0.0913  0.0657 -0.0298
 3700W        W19509  11.344   5.759  14.252 -0.0074  0.1958  0.1380
 3701W        W19510   1.146   8.116  16.177 -0.1302 -0.1468  0.0291
 3702W        W19511   9.851  11.137  15.033 -0.0325  0.1036  0.0977
 3703W        W19512   5.733  14.962  14.357  0.1941 -0.1070 -0.0564
 3704W        W19513  10.974  16.177  13.253  0.0556  0.1503  0.3239
 3705W        W19514   1.095   6.420  13.606 -0.0350 -0.3171  0.1862
 3706W        W19515  14.376   9.319  12.303 -0.0966 -0.0015  0.2644
 3707W        W19516  16.358  15.157  12.011 -0.0356 -0.0888 -0.2182
 3708W        W19517  13.330  13.120  14.938 -0.1255 -0.0833  0.1202
 3709W        W19518   5.167   3.620  16.003  0.0727  0.2798 -0.4458
 3710W        W19519   8.873  12.833  13.385 -0.0101  0.0569  0.0744
 3711W        W19520   4.757   5.896   0.373  0.1253 -0.2291 -0.3339
 3712W        W19521   2.699   0.166   2.666  0.0573 -0.4622 -0.0127
 3713W        W19522  10.856   3.226   0.184 -0.4812 -0.1030  0.0890
 3714W        W19523  13.496   1.222  12.079 -0.1653 -0.1143 -0.0255
 3715W        W19524  10.298  10.834  14.975 -0.0245  0.0417 -0.0933
 3716W        W19525   4.627   8.414   2.423 -0.0436 -0.1058 -0.5240
 3717W        W19526  13.115   4.768  12.699  0.0304 -0.0168  0.1766
 3718W        W19527   9.209   9.819  16.715 -0.2357 -0.2399 -0.1210
 3719W        W19528   1.384   0.249  12.326 -0.0182  0.3352  0.2788
 3720W        W19529  17.535   9.784   0.818 -0.0245 -0.2322  0.1359
 3721W        W19530   6.278   3.390  13.870 -0.0631 -0.0249  0.2482
 3722W        W19531   7.733   4.399   3.451 -0.0761 -0.0006  0.0538
 3723W        W19532  10.829   6.557   3.587  0.0880  0.2591 -0.1914
 3724W        W19533   9.158  14.951  15.969 -0.0067  0.2973  0.0322
 3725W        W19534  12.763   0.658   5.335  0.0720  0.3010 -0.0572
 3726W        W19535   7.492  14.174   1.576  0.0486  0.1016  0.2242
 3727W        W19536   5.251   2.927   0.466 -0.0329 -0.1927 -0.0235
 3728W        W19537   7.079  11.966  15.701  0.5212  0.0017  0.1189
 3729W        W19538  11.298  11.781   4.500 -0.1816  0.1982 -0.0543
 3730W        W19539  13.636  12.818  12.381 -0.1074 -0.0358  0.0261
 3731W        W19540   2.526  15.447  15.852 -0.1643 -0.1535  0.1092
 3732W        W19541  11.768   1.016  11.779  0.0433  0.0352  0.1257
 3733W        W19542   8.926   6.372  13.551 -0.1439 -0.0465  0.0006
 3734W        W19543  17.335  11.134  14.067 -0.0345  0.2363  0.0241
 3735W        W19544  12.186   1.270  12.852  0.0420 -0.1275 -0.0411
 3736W        W19545  12.613   5.676   4.626  0.1732 -0.0365  0.3309
 3737W        W19546   4.772  11.907   2.425  0.1271 -0.0135 -0.0975
 3738W        W19547  10.799   3.271   2.984  0.1427  0.1493  0.0171
 3739W        W19548  14.059   0.676   4.113  0.1753  0.0496  0.1271
 3740W        W19549  17.050  15.173  12.544  0.1824 -0.1765 -0.3281
 3741W        W19550   4.734   9.522   3.267 -0.0239 -0.0356 -0.2147
 3742W        W19551  15.309  15.088   2.254  0.0112 -0.2548 -0.0232
 3743W        W19552   7.037   9.405  14.360  0.1133 -0.0983  0.0627
 3744W        W19553  12.688  11.292   2.561  0.0213  0.0137  0.1069
 3745W        W19554   9.697   6.291   5.162  0.0652  0.1185  0.0292
 3746W        W19555  14.459   8.235   0.027  0.1385 -0.4120 -0.1794
 3747W        W19556   7.949  12.404   4.854  0.0148 -0.0352  0.2456
 3748W        W19557   1.934   1.934  15.411  0.0754  0.0251  0.0032
 3749W        W19558  15.872   6.273   3.891  0.0357 -0.4906 -0.1780
 3750W        W19559  11.371  12.428   1.306  0.1484  0.0588  0.2398
 3751W        W19560  16.650  16.257  15.525  0.3001  0.1191 -0.1561
 3752W        W19561   6.609  10.261  15.310 -0.0109  0.2562  0.2507
 3753W        W19562   5.649   8.076   3.311 -0.3585  0.2883 -0.1138
 3754W        W19563   5.679   6.397  16.289 -0.0342 -0.0208  0.3437
 3755W        W19564   2.485  13.615  14.078  0.0362 -0.1649 -0.0885
 3756W        W19565  14.499  16.819  14.712  0.0132 -0.1963 -0.0262
 3757W        W19566   6.072  17.681   3.930  0.0423 -0.2327  0.0856
 3758W        W19567  17.403   2.746  11.977 -0.1311 -0.1315  0.2119
 3759W        W19568   0.201  17.251  15.974 -0.1574  0.2313  0.0516
 3760W        W19569   9.939   7.987   4.721 -0.0638  0.0456 -0.1616
 3761W        W19570   0.927  15.832  14.870 -0.0410  0.1294 -0.0396
 3762W        W19571   2.428  17.669   1.939 -0.0126 -0.0692 -0.0837
 3763W        W19572  12.621  14.402  14.370  0.1136 -0.1002 -0.2113
 3764W        W19573   4.567   0.502   2.627  0.0164  0.0491 -0.0850
 3765W        W19574   0.060  11.470   2.086  0.1592  0.3557  0.0212
 3766W        W19575   7.877   5.556  13.934  0.1446 -0.1270 -0.0525
 3767W        W19576   0.101   0.721   4.562 -0.0473  0.0447 -0.1155
 3768W        W19577   9.949   0.745   4.566  0.1987 -0.1338 -0.1436
 3769W        W19578   0.471   4.958   0.211 -0.1771 -0.1098  0.0928
 3770W        W19579  15.067  12.595   3.881  0.2010  0.1945 -0.1004
 3771W        W19580   5.326  15.195  15.959 -0.1943 -0.1354 -0.3007
 3772W        W19581  13.394   8.429   2.474  0.0475 -0.2224  0.0515
 3773W        W19582  15.647  13.516   4.450 -0.3045  0.2886  0.0719
 3774W        W19583   0.935   9.031  14.102  0.2593 -0.0083 -0.0083
 3775W        W19584   5.684  15.877  13.314 -0.1746  0.2792  0.0864
 3776W        W19585  13.202  13.767   2.829  0.0585  0.1319  0.1941
 3777W        W19586   9.507  14.586  16.725 -0.1973  0.1987 -0.0302
 3778W        W19587   0.262  17.325  13.295 -0.0318 -0.1028  0.1246
 3779W        W19588   3.339  10.817  12.009 -0.1322 -0.1886  0.2823
 3780W        W19589  16.226  16.931   1.758 -0.1220 -0.0800  0.0162
 3781W        W19590   2.590   5.464  12.859  0.2831  0.0424 -0.0704
 3782W        W19591   9.422   5.008   2.893  0.1776 -0.0220  0.0018
 3783W        W19592  17.048   4.170   0.627 -0.2401 -0.0163  0.1082
 3784W        W19593   2.418  13.373   0.655  0.3137  0.0241 -0.2729
 3785W        W19594  17.050   0.037  11.957  0.3970 -0.2204 -0.2838
 3786W        W19595   5.049  17.612   5.227  0.0164  0.2049 -0.1458
 3787W        W19596   6.600   0.299  11.528 -0.1247 -0.1001 -0.2297
 3788W        W19597  10.414  13.518  10.661  0.0033  0.2154 -0.1378
 3789W        W19598   4.349   4.507   5.915 -0.0358 -0.0128  0.1797
 3790W        W19599   8.451   5.417  13.068 -0.2840  0.2238 -0.0876
 3791W        W19600  17.627  14.311   3.440  0.3348 -0.0286 -0.0379
 3792W        W19601  13.737   1.882   4.063  0.0672  0.2085  0.0826
 3793W        W19602  17.354   5.506   2.863  0.2160  0.1534 -0.0704
 3794W        W19603   7.597   1.336   5.313 -0.3818  0.0022  0.1178
 3795W        W19604   5.267   2.598   3.175  0.2768 -0.0538  0.0330
 3796W        W19605   3.652  15.687   0.290 -0.1584 -0.1779  0.0621
 3797W        W19606   6.315   5.612  13.060 -0.0128  0.0860 -0.2990
 3798W        W19607  12.553   3.651   6.071 -0.1801  0.0232 -0.2077
 3799W        W19608  17.694   6.156   4.035  0.1133  0.2989  0.1371
 3800W        W19609   7.729  16.505  12.938  0.0005  0.3991  0.5366
 3801W        W19610   9.594  10.398   2.504 -0.1671  0.0221  0.0471
 3802W        W19611  10.591   9.765  14.145 -0.0862 -0.2925  0.2408
 3803W        W19612   0.662  12.179   2.235  0.1883  0.1632 -0.3998
 3804W        W19613  14.390  10.988   4.063  0.3012  0.3352 -0.1732
 3805W        W19614   5.326  13.958  12.009  0.2151  0.0931 -0.0172
 3806W        W19615   6.311   1.137   2.260 -0.0375  0.1190 -0.0671
 3807W        W19616  11.419   9.993   2.810  0.0996  0.3721 -0.4814
 3808W        W19617  10.079  15.796  14.196 -0.0092 -0.0045 -0.0310
 3809W        W19618   2.480  13.053  12.833  0.1409 -0.3079 -0.0841
 3810W        W19619  10.173  12.071   1.171  0.2029  0.1668 -0.1451
 3811W        W19620   1.396  16.054   5.139  0.0595 -0.0866 -0.1765
 3812W        W19621   4.434   0.920   1.473 -0.2114 -0.3464  0.0093
 3813W        W19622  15.095   8.900  14.568  0.2754 -0.0491  0.0130
 3814W        W19623  17.151   4.664   3.972 -0.0190 -0.0903 -0.0698
 3815W        W19624   5.785  11.239   3.519  0.1475 -0.0952 -0.1970
 3816W        W19625   0.524  13.040   4.074 -0.1343 -0.0931  0.0918
 3817W        W19626  17.456   9.434  13.131 -0.0179 -0.2318 -0.1135
 3818W        W19627   0.142   1.688   4.610 -0.1894 -0.1197  0.4448
 3819W        W19628   8.694   8.487  13.185  0.1263  0.1191  0.1247
 3820W        W19629   9.503   0.840   5.431  0.3782  0.1427  0.0441
 3821W        W19630  12.002   9.372  16.916 -0.0153  0.0602  0.1624
 3822W        W19631   1.658   6.675  12.074  0.0688 -0.0028 -0.0276
 3823W        W19632  12.882   7.929  15.450 -0.0054  0.1692 -0.0559
 3824W        W19633   2.897   7.998   5.304 -0.1391  0.2174 -0.1187
 3825W        W19634  12.155  13.485   2.139  0.2834 -0.0875  0.1715
 3826W        W19635   1.730  12.388   4.051  0.2124  0.1238  0.1947
 3827W        W19636   1.258   8.802   0.752 -0.2904  0.1784  0.0723
 3828W        W19637  11.980  11.348  15.642  0.1606  0.0711 -0.2209
 3829W        W19638   0.557   7.777   4.519  0.0637  0.3207 -0.0913
 3830W        W19639   5.009   6.976   2.655 -0.1153  0.0449 -0.0233
 3831W        W19640  10.331  13.544  13.630 -0.1464  0.0083 -0.1099
 3832W        W19641  14.242   2.015   0.022  0.2461 -0.1440  0.0865
 3833W        W19642  16.036   3.739   4.244  0.3422 -0.3021 -0.3011
 3834W        W19643   9.602   9.782   3.301  0.2484  0.2493 -0.1436
 3835W        W19644   8.850  10.673  16.954  0.2468  0.1217 -0.1184
 3836W        W19645  10.610   2.654   2.341 -0.0535 -0.1103  0.1438
 3837W        W19646   1.943   1.761   5.919 -0.0655  0.2297  0.1537
 3838W        W19647  11.524  16.436  11.059 -0.2607 -0.0544  0.4755
 3839W        W19648  14.273  12.449  15.140  0.3301 -0.0340  0.2139
 3840W        W19649  16.492  10.448  14.938  0.0197 -0.0888  0.0816
 3841W        W19650  10.302  17.676   2.185  0.0465 -0.1564 -0.3001
 3842W        W19651   0.736   5.647   1.743 -0.0442 -0.3794  0.1385
 3843W        W19652   4.123  16.471   1.334  0.0320  0.3649 -0.0672
 3844W        W19653   0.900   3.319  16.229  0.0578  0.0667 -0.0280
 3845W        W19654   7.487  11.947  11.997  0.0452 -0.2681 -0.0367
 3846W        W19655  13.232   0.011   0.388  0.0036  0.0962 -0.1730
 3847W        W19656   6.588  13.907   0.739 -0.2340  0.4200  0.1020
 3848W        W19657  11.071   7.158   2.929  0.1031  0.2062 -0.1087
 3849W        W19658  15.074   5.039   2.840  0.2187 -0.1644  0.1671
 3850W        W19659   3.115   0.669   3.332  0.3464  0.0452  0.1130
 3851W        W19660   8.466   8.739  16.221 -0.0711 -0.0336 -0.2137
 3852W        W19661   9.806   2.024   6.141 -0.2563  0.0187  0.2130
 3853W        W19662  15.793  16.386   5.024 -0.1497  0.2137  0.1889
 3854W        W19663  17.351   6.368  12.368 -0.1058  0.0387  0.0265
 3855W        W19664  11.910   8.917   5.580 -0.0047 -0.1379 -0.2654
 3856W        W19665   3.855  11.920   1.461  0.3013 -0.0735  0.4750
 3857W        W19666  12.308  10.718  14.664  0.1003  0.1014  0.0434
 3858W        W19667  16.129  11.727  12.916 -0.0527  0.1467 -0.1461
 3859W        W19668  12.593  10.213   5.539 -0.0033  0.1306 -0.0155
 3860W        W19669   2.950   3.632  11.894  0.0545  0.2353  0.1617
 3861W        W19670  13.551  11.112   4.246  0.0607 -0.2842  0.0781
 3862W        W19671   7.086   8.893   4.788 -0.0678  0.2721  0.0075
 3863W        W19672  12.709   0.015  12.927  0.0494 -0.1838 -0.0204
 3864W        W19673  12.998   1.615   1.143  0.0309 -0.4293  0.0014
 3865W        W19674  11.134  10.953  13.146 -0.0708 -0.1776  0.2772
 3866W        W19675  14.101  15.476  10.158 -0.1643 -0.0357 -0.0109
 3867W        W19676   6.308  15.052  16.150 -0.0411 -0.0890  0.3949
 3868W        W19677   2.445  11.761  14.624  0.1333 -0.0807  0.2803
 3869W        W19678   6.805  12.604   3.322 -0.2027  0.0675  0.0576
 3870W        W19679  14.708   6.764   3.923 -0.0555 -0.1408 -0.1132
 3871W        W19680   4.602   7.077   1.685 -0.0927 -0.3610 -0.0076
 3872W        W19681  10.439   9.748   0.082  0.0493 -0.1366  0.3254
 3873W        W19682   5.126  14.391   4.170  0.1354 -0.2048 -0.4121
 3874W        W19683   9.475   3.338   6.334 -0.0031 -0.1264  0.0179
 3875W        W19684   6.015   6.507   5.459  0.4325  0.0446  0.1548
 3876W        W19685   8.074  17.710   1.881  0.1331  0.1392 -0.1016
 3877W        W19686  12.806   8.440   4.727  0.0014 -0.0110 -0.1825
 3878W        W19687   6.611   8.630  13.173 -0.0822  0.0956  0.1660
 3879W        W19688   0.021   5.503   3.196 -0.2109 -0.1890 -0.1939
 3880W        W19689  12.231   4.921  12.891  0.0232 -0.0354  0.3375
 3881W        W19690  13.400   5.475   2.851  0.0286  0.0105  0.1756
 3882W        W19691   4.345  17.252  13.094 -0.0065 -0.1640 -0.1225
 3883W        W19692   8.113   9.996  14.137  0.0398  0.1039  0.0142
 3884W        W19693  16.705  15.253  13.661  0.0160 -0.0114 -0.0699
 3885W        W19694  13.126   2.704   1.135 -0.1457 -0.0405  0.1750
 3886W        W19695   3.527  16.438   1.658 -0.2105 -0.1228  0.0923
 3887W        W19696   9.655   0.614  12.345 -0.0347  0.0432 -0.0949
 3888W        W19697  15.536  15.529   4.931 -0.2138  0.1351 -0.2979
 3889W        W19698   6.427   1.945   1.092 -0.3280  0.0251 -0.1057
 3890W        W19699  13.055   7.650  12.939 -0.2404  0.1127 -0.0456
 3891W        W19700   9.238   9.737  15.864 -0.0873 -0.2119  0.0397
 3892W        W19701  15.591  14.887   4.960  0.1768  0.3461  0.0191
 3893W        W19702   0.861  11.334   4.153 -0.2192  0.1060  0.0713
 3894W        W19703  16.224  12.931   5.048 -0.0730 -0.3553 -0.1854
 3895W        W19704   1.113   4.910   4.984  0.5108  0.0280 -0.0314
 3896W        W19705  11.650   6.780   4.050 -0.3555 -0.0173  0.2507
 3897W        W19706   0.600   8.351   0.943 -0.0179 -0.1138  0.1095
 3898W        W19707  12.071  12.350   4.793  0.2986  0.3364 -0.1629
 3899W        W19708   3.880   3.710   2.319 -0.0296  0.4186  0.3094
 3900W        W19709   1.517   6.233  14.349  0.0890  0.1288 -0.2895
 3901W        W19710   7.056   2.753  12.011  0.3266  0.4229 -0.3509
 3902W        W19711  13.209  10.085   0.123 -0.2414 -0.3098  0.0059
 3903W        W19712  12.655  15.543  13.837 -0.1057 -0.0003 -0.3067
 3904W        W19713   8.589   9.301   1.299 -0.2480 -0.0215  0.0507
 3905W        W19714   4.788  12.004  16.935 -0.0171 -0.3645 -0.4008
 3906W        W19715   4.800   8.163   0.512  0.1548  0.0734 -0.2334
 3907W        W19716  15.237   4.390  16.267 -0.3243 -0.1089 -0.2767
 3908W        W19717   0.301  17.701  14.236 -0.1505  0.0330  0.2463
 3909W        W19718  12.218  17.600   4.892 -0.1904  0.2991  0.2856
 3910W        W19719   5.942   6.505   0.657  0.2105  0.2180 -0.2618
 3911W        W19720   3.026  13.494  13.162 -0.0747 -0.1061  0.0494
 3912W        W19721   0.416  16.779  14.689  0.2069 -0.1613 -0.0012
 3913W        W19722  13.165   9.244   5.683  0.0211  0.2503  0.1477
 3914W        W19723   9.583   9.500  15.071  0.3183  0.0944 -0.0331
 3915W        W19724   3.331  10.396   3.604 -0.2049 -0.1373  0.0800
 3916W        W19725   9.035   0.244  16.428  0.4400 -0.0678  0.0529
 3917W        W19726   1.095   7.948   1.722  0.1230  0.3837 -0.1397
 3918W        W19727  12.781  15.166  14.924 -0.1852 -0.0087  0.0363
 3919W        W19728  14.806  14.287  11.524  0.2093  0.1046 -0.1361
 3920W        W19729  16.472  12.086   2.200  0.3278 -0.2322  0.0446
 3921W        W19730   3.311   2.465  12.680 -0.1642 -0.1851 -0.0051
 3922W        W19731  14.972  12.565  11.688 -0.1619  0.2146  0.1973
 3923W        W19732   9.872  17.175   1.081 -0.1093 -0.1725  0.4095
 3924W        W19733  17.123   5.985   1.913  0.0161 -0.0189  0.0184
 3925W        W19734   1.510   1.746   6.797 -0.3666  0.1102  0.4400
 3926W        W19735   4.144  13.145  12.668 -0.0441  0.2329 -0.1906
 3927W        W19736  17.672  11.438   1.217 -0.0012  0.1383  0.1272
 3928W        W19737   8.381   9.782  14.569  0.2350 -0.2397 -0.2402
 3929W        W19738  12.523   4.005   0.708  0.0332  0.1143 -0.1435
 3930W        W19739   0.401  15.594   2.993  0.2696  0.1416 -0.2427
 3931W        W19740  10.998  10.491   4.069  0.4099 -0.1148  0.1031
 3932W        W19741  13.136  17.397   0.789 -0.1322  0.0288 -0.1339
 3933W        W19742   4.548   8.402  15.096 -0.5518 -0.2847 -0.0266
 3934W        W19743   1.448  17.111  13.367  0.3275  0.1203 -0.1154
 3935W        W19744   4.355   7.853  14.384  0.2344  0.2584 -0.0466
 3936W        W19745   5.286  14.307  16.388 -0.1024  0.4561 -0.2120
 3937W        W19746   3.379  17.452  15.560  0.0912 -0.0871 -0.3257
 3938W        W19747   0.532   3.933   2.069  0.1480  0.1819  0.5130
 3939W        W19748   7.628  13.705  15.978 -0.0372  0.2645 -0.1409
 3940W        W19749   9.228   5.900  16.780  0.0314  0.0482  0.4818
 3941W        W19750   0.501   4.744   2.419 -0.0650  0.1371 -0.0854
 3942W        W19751   1.235   3.084   4.532 -0.1838  0.2191 -0.0336
 3943W        W19752   2.225  13.133   4.055 -0.4233 -0.1523 -0.2152
 3944W        W19753  17.052  10.624   2.250  0.0112  0.0233 -0.1474
 3945W        W19754   2.758  11.491  16.615 -0.0225 -0.1292  0.0100
 3946W        W19755   6.858  15.772  12.530 -0.2818 -0.0371  0.2598
 3947W        W19756   8.016   4.794  12.215  0.1579 -0.0499  0.1978
 3948W        W19757   7.987   1.794   4.151 -0.0036 -0.0973  0.3814
 3949W        W19758  12.879  14.399   3.396  0.2821 -0.0443  0.3818
 3950W        W19759   4.603   9.749   2.051  0.3344  0.1462 -0.2731
 3951W        W19760  17.486   9.586   1.877  0.0199  0.0437  0.2447
 3952W        W19761   5.738  12.406  13.008  0.1863 -0.1810 -0.0407
 3953W        W19762   3.215   3.434  13.931 -0.1704 -0.0636 -0.0980
 3954W        W19763  16.268   4.857  10.777  0.0426  0.1308 -0.0367
 3955W        W19764   2.687   4.067  10.909  0.1772 -0.2438 -0.0605
 3956W        W19765   0.167   5.477  12.987 -0.2837 -0.2269 -0.4558
 3957W        W19766   1.335   6.307  16.208 -0.2477  0.0097 -0.0964
 3958W        W19767   5.761   4.045  14.077  0.3222 -0.2071 -0.1062
 3959W        W19768   0.538  10.861   0.187  0.0014  0.1827 -0.0589
 3960W        W19769   9.128  10.297   4.721  0.2047 -0.1684 -0.1931
 3961W        W19770   2.373  10.274   1.548  0.2105  0.1298  0.1980
 3962W        W19771   2.218  10.852  12.382  0.1735 -0.1392  0.3759
 3963W        W19772  13.699   0.118  14.633  0.2514  0.0732  0.2463
 3964W        W19773   2.694   7.280  11.772  0.0627 -0.1092 -0.0385
 3965W        W19774  15.378   9.066  15.526  0.1620 -0.1793 -0.0034
 3966W        W19775   7.260   7.319   1.326 -0.2385 -0.0729  0.0175
 3967W        W19776   7.439  12.060   0.423 -0.1542 -0.0953 -0.0713
 3968W        W19777   2.141   3.396  14.941 -0.1417 -0.0628  0.1738
 3969W        W19778  17.334  17.055  15.296  0.1755 -0.0020 -0.0443
 3970W        W19779   2.765   1.949  13.718  0.2032 -0.2153  0.1050
 3971W        W19780  13.550  15.299   0.163  0.2082  0.4030  0.0391
 3972W        W19781   9.323   8.415  12.530  0.3022  0.1907  0.0561
 3973W        W19782   4.828   1.478  14.414  0.2356  0.0610 -0.1491
 3974W        W19783  17.213   3.100  16.554 -0.0217  0.1782 -0.1363
 3975W        W19784  11.985   6.403  14.723 -0.0970 -0.0841  0.1596
 3976W        W19785   4.938   0.858  16.050 -0.0080 -0.0473  0.1434
 3977W        W19786   5.375   7.387  15.825 -0.1843 -0.0217 -0.0787
 3978W        W19787   9.811   6.510   1.836  0.0050 -0.0695  0.2940
 3979W        W19788   8.929   4.729   5.630 -0.1250  0.1056 -0.3165
 3980W        W19789   1.208   4.433   1.937  0.0453  0.2005  0.0408
 3981W        W19790  14.380   6.995   2.680  0.0543  0.1951  0.2165
 3982W        W19791  13.689   1.195   0.457 -0.0445  0.1564 -0.2191
 3983W        W19792  11.879  15.401   0.401 -0.1235  0.1290 -0.0324
 3984W        W19793   3.739  17.455   3.638 -0.1438  0.0003 -0.1203
 3985W        W19794  12.030   0.784  12.777 -0.0312  0.3017  0.0061
 3986W        W19795  17.667   7.760  15.527  0.0943  0.2459 -0.0441
 3987W        W19796   9.945  14.590   0.050  0.3044  0.2735 -0.0018
 3988W        W19797  12.841  15.670  10.906 -0.2645 -0.0260  0.0384
 3989W        W19798  10.053  12.349   5.118  0.0958  0.1526 -0.0970
 3990W        W19799   6.604   2.248  15.073 -0.0143  0.0614 -0.0613
 3991W        W19800  13.700  11.864  14.273 -0.1651 -0.0006 -0.5267
 3992W        W19801   0.767   1.724   4.606  0.1265  0.0627 -0.1106
 3993W        W19802  13.383   4.102   5.887 -0.1510  0.0640  0.2055
 3994W        W19803   1.483   2.701  13.797  0.0383  0.1129 -0.1279
 3995W        W19804   6.673   7.471   0.399 -0.0900  0.1077 -0.3840
 3996W        W19805   0.173  11.596   0.764 -0.2674 -0.1197  0.0223
 3997W        W19806   7.232   0.187  14.338  0.0618 -0.1086 -0.4085
 3998W        W19807   5.463   6.304   4.210  0.0339 -0.0436 -0.1687
 3999W        W19808   7.859   7.709  16.543  0.1634  0.0391 -0.0801
 4000W        W19809  11.755  12.674  15.958  0.0407 -0.0244  0.0565
 4001W        W19810   6.742   5.337   2.865  0.3061  0.1759 -0.0295
 4002W        W19811  11.315   2.941   3.618  0.2148  0.1589  0.0737
 4003W        W19812  15.477   1.324   4.618 -0.1253 -0.0178 -0.2817
 4004W        W19813   2.014  13.031  12.825  0.1002  0.0547 -0.1249
 4005W        W19814   9.108   7.717  12.507 -0.1567  0.2319  0.0491
 4006W        W19815  14.451   1.668  14.832  0.0791 -0.0785 -0.1840
 4007W        W19816   1.619   1.395  16.626 -0.3767  0.0002  0.1044
 4008W        W19817   8.131  14.759  12.496  0.3839 -0.0581 -0.1265
 4009W        W19818   7.960  10.988  16.205  0.0581 -0.1412 -0.2662
 4010W        W19819   8.107  13.426   0.175 -0.1757  0.0386  0.3221
 4011W        W19820   5.543  12.944  10.972 -0.1446  0.0092 -0.0356
 4012W        W19821   2.310   8.343  12.915 -0.0482  0.0682 -0.0531
 4013W        W19822   9.011   7.881  15.368  0.0493 -0.0499  0.0700
 4014W        W19823   3.231   1.961   3.040 -0.4547  0.1949  0.2495
 4015W        W19824   5.402  13.896   0.674 -0.0664  0.0534  0.0708
 4016W        W19825   2.961   2.596  16.764  0.0882 -0.1536 -0.2827
 4017W        W19826   6.090   6.177   1.020 -0.1873 -0.0351  0.1597
 4018W        W19827  10.282   1.668  16.658  0.0757  0.0847  0.0427
 4019W        W19828   3.510  14.603   2.697 -0.1956  0.0687  0.4093
 4020W        W19829   4.846  11.990  15.488 -0.0040  0.0365 -0.2897
 4021W        W19830   8.414   8.976  13.411 -0.0107 -0.1330  0.0031
 4022W        W19831   8.096  13.467   3.062 -0.0752 -0.1854  0.0929
 4023W        W19832  17.515  16.981  11.745  0.1975  0.0621 -0.0110
 4024W        W19833   9.094  15.178   5.062 -0.1389 -0.0415 -0.0197
 4025W        W19834  13.536  10.656   2.305 -0.0358 -0.2585 -0.0232
 4026W        W19835  17.389   1.515  11.973  0.4544  0.0750  0.0302
 4027W        W19836  15.056  16.567  16.407  0.1840 -0.0587  0.2353
 4028W        W19837   4.471   4.055   2.846 -0.0094 -0.0461 -0.2737
 4029W        W19838   2.734  13.727  14.499  0.0431 -0.3081 -0.0113
 4030W        W19839   4.942  15.141   3.093  0.2336  0.3290  0.2167
 4031W        W19840   6.798   8.403   5.530 -0.1638 -0.1792 -0.1318
 4032W        W19841  13.111   8.110   5.118  0.0300 -0.0877  0.2425
 4033W        W19842  17.514  10.771  16.015  0.0678 -0.1394  0.0441
 4034W        W19843  11.707  17.339   2.619  0.0746  0.0696 -0.1375
 4035W        W19844   8.109   3.937   4.718  0.2002 -0.1038 -0.0695
 4036W        W19845   6.005  11.509  16.294  0.2599  0.2253  0.1873
 4037W        W19846   5.345  12.213   1.149 -0.1583  0.0133  0.1547
 4038W        W19847  15.485   2.441   3.623  0.0795  0.2522  0.2282
 4039W        W19848  14.945  14.761   1.065 -0.3676 -0.0009  0.1156
 4040W        W19849  15.232   6.491  15.839 -0.0548 -0.1582 -0.1827
 4041W        W19850  12.289   9.967   4.954  0.0718 -0.0955  0.0938
 4042W        W19851  16.812  10.445  14.435  0.0174  0.1140  0.0432
 4043W        W19852   5.095   0.504   5.470 -0.1334  0.3180 -0.0768
 4044W        W19853   4.047  14.693  11.563 -0.3159  0.1939  0.0370
 4045W        W19854   2.822  13.591   0.900  0.2876  0.1127 -0.0313
 4046W        W19855   5.560   4.033  15.229 -0.2920  0.4077  0.1339
 4047W        W19856  12.262  13.786  13.649  0.1883 -0.2596  0.0318
 4048W        W19857  12.309  14.070  14.694  0.1796  0.0377  0.0002
 4049W        W19858  12.581  16.942  15.398 -0.1535  0.0227  0.0965
 4050W        W19859  11.626  11.054  12.979 -0.0665  0.1086  0.0466
 4051W        W19860  11.120   8.040   5.993  0.2691 -0.1917 -0.3366
 4052W        W19861  12.121   0.558  11.567  0.1572  0.1980 -0.3385
 4053W        W19862  12.041  12.270  16.518  0.1887 -0.1253  0.3410
 4054W        W19863   2.899   0.399  12.716 -0.0332 -0.0562  0.2981
 4055W        W19864  11.746   4.490   4.871  0.1547 -0.0706  0.2911
 4056W        W19865  14.525  16.446   1.240 -0.4932 -0.2794  0.0784
 4057W        W19866   1.796   0.572  16.857 -0.2112  0.0571  0.0239
 4058W        W19867   4.631   4.374   4.948 -0.1557 -0.0557  0.0708
 4059W        W19868   3.170   4.252   6.573 -0.0579 -0.1037 -0.2001
 4060W        W19869   3.173  13.337   0.684 -0.1983 -0.2846  0.0606
 4061W        W19870  14.059   3.261   3.504  0.0143  0.0031 -0.0823
 4062W        W19871  10.101  14.096  13.734  0.2909  0.3751 -0.1366
 4063W        W19872  11.546  11.701   0.133  0.1835 -0.2607  0.1673
 4064W        W19873  12.874  15.739   2.910 -0.1286  0.0304 -0.1279
 4065W        W19874   3.517   8.734  10.814 -0.1530 -0.0390 -0.0968
 4066W        W19875   5.984   3.922   2.379  0.3441  0.0472 -0.0040
 4067W        W19876  12.118   5.229   2.057 -0.0409  0.0671  0.1396
 4068W        W19877   6.630  14.481  15.308  0.0395 -0.0554 -0.3090
 4069W        W19878  11.402  13.736   3.318 -0.0262 -0.1987  0.1823
 4070W        W19879  10.026   1.532   1.457  0.1470 -0.1295  0.0428
 4071W        W19880  10.915  14.896   1.618  0.0061  0.0817  0.1670
 4072W        W19881  14.825  11.543  12.188  0.0618  0.1456  0.3032
 4073W        W19882   7.907  14.294  12.559 -0.3054 -0.1120  0.0772
 4074W        W19883  14.077  15.636   1.040 -0.2333 -0.1009  0.2633
 4075W        W19884   0.607   8.741  14.427 -0.1154  0.0461  0.3152
 4076W        W19885   6.872   0.184   5.590  0.1398  0.1675  0.0785
 4077W        W19886   4.728   9.887  15.609 -0.0099 -0.1280  0.0593
 4078W        W19887   8.816  14.040  12.072 -0.0402 -0.0089  0.2715
 4079W        W19888  11.623   2.089  12.831  0.1829 -0.1205 -0.1838
 4080W        W19889  16.015  10.828  12.443  0.0027  0.0127  0.0046
 4081W        W19890  13.923   5.945  15.294 -0.0850 -0.0738 -0.1354
 4082W        W19891   1.677  11.372   1.131  0.0511  0.2824 -0.0014
 4083W        W19892  15.012  13.281   3.057  0.1305  0.2689  0.3108
 4084W        W19893   4.576  17.060   4.711  0.1065  0.3220  0.2866
 4085W        W19894  13.184   8.824  14.919 -0.0889  0.1362 -0.2167
 4086W        W19895  13.555  12.857   4.656  0.1976 -0.1570  0.1053
 4087W        W19896   2.769  13.905   4.883 -0.1868  0.0340 -0.1978
 4088W        W19897  17.726   8.623  14.007 -0.2807  0.1459  0.0377
 4089W        W19898  16.984   0.224   4.532  0.0298  0.0986  0.0520
 4090W        W19899  15.574   5.682  16.269  0.1091 -0.0252  0.0132
 4091W        W19900  14.315   4.484   3.624 -0.1698  0.1011 -0.1160
 4092W        W19901  10.916  17.199   1.645  0.0561 -0.0705 -0.2325
 4093W        W19902  15.259   3.564   3.531  0.0538  0.0416  0.1485
 4094W        W19903   5.395  14.206   3.743  0.0553 -0.3065 -0.0647
 4095W        W19904  15.956  11.999   5.383  0.0413  0.1707  0.1138
 4096W        W19905   3.083  10.512  13.185  0.0161 -0.0081 -0.0099
 4097W        W19906   1.473  11.300  13.771  0.0175  0.0706  0.1587
 4098W        W19907  14.540   0.309  12.336 -0.0514 -0.3352  0.1266
 4099W        W19908   2.303   3.979   1.084 -0.2510  0.2842 -0.1260
 4100W        W19909  14.763   2.255   4.614 -0.1366 -0.2350  0.2440
 4101W        W19910   2.477   5.888  14.035  0.1086 -0.2303 -0.2475
 4102W        W19911   8.245   9.519  14.983 -0.1112  0.1676 -0.0325
 4103W        W19912   4.582   2.301   4.458  0.2409 -0.1166  0.0512
 4104W        W19913  10.630  14.669  15.040 -0.0302 -0.3278 -0.1783
 4105W        W19914   8.354  13.833  16.882  0.0703 -0.1225  0.1074
 4106W        W19915   3.521   5.625   3.495  0.1170 -0.1501  0.0310
 4107W        W19916  15.980  15.058  16.529 -0.0317 -0.0510 -0.0219
 4108W        W19917  13.514   7.601   1.756  0.0609 -0.0759  0.4342
 4109W        W19918  12.845   2.553  13.348 -0.3715  0.0068  0.1488
 4110W        W19919  13.381   5.876   1.771  0.1131  0.1597  0.3333
 4111W        W19920  11.569   3.512  16.557 -0.0515  0.1113  0.1699
 4112W        W19921  16.154   9.189  15.137  0.2569 -0.0148  0.1477
 4113W        W19922  11.559  15.195   4.834 -0.0732 -0.1164  0.0328
 4114W        W19923   1.781  13.500  12.885 -0.1796 -0.0303 -0.0937
 4115W        W19924   0.410  11.895  16.287  0.0837 -0.0847 -0.0675
 4116W        W19925  10.092  16.602  15.180 -0.0695  0.0241 -0.0750
 4117W        W19926   6.760  14.636  14.223  0.2338 -0.2376 -0.0718
 4118W        W19927  11.240  16.756   4.041  0.0215 -0.0650  0.0122
 4119W        W19928  11.002   9.960   0.901  0.1363 -0.1191 -0.0876
 4120W        W19929   7.697   9.401   3.585  0.1179 -0.2143 -0.1077
 4121W        W19930  12.054   7.798   4.268 -0.1015 -0.2801 -0.0524
 4122W        W19931  11.194  17.528   2.446 -0.2282 -0.0568  0.1164
 4123W        W19932  10.087   7.435   4.975 -0.4466 -0.1582 -0.3033
 4124W        W19933   9.655   9.755  15.486  0.4955  0.0960  0.1868
 4125W        W19934  10.683  16.377   0.657  0.1813  0.0221  0.1581
 4126W        W19935   9.382   7.191  12.431  0.1348  0.1403 -0.2122
 4127W        W19936   4.594  12.966   0.127  0.1532  0.1081  0.1224
 4128W        W19937  12.740  15.499  13.316  0.0634 -0.0132  0.0965
 4129W        W19938   8.618   7.764   0.702 -0.0606 -0.1803 -0.0664
 4130W        W19939  10.398   4.747   1.577  0.0129 -0.2605 -0.0958
 4131W        W19940  10.736  11.937   5.942  0.3111 -0.0279 -0.1345
 4132W        W19941   4.705  12.609  14.077  0.0528  0.1023 -0.1928
 4133W        W19942  14.726  14.504  14.360  0.0357 -0.1689  0.0761
 4134W        W19943  12.402   1.473  11.289 -0.4515 -0.0765  0.2083
 4135W        W19944  10.096   9.815   3.110 -0.3298 -0.0109 -0.5577
 4136W        W19945  11.554  15.130  16.099 -0.2313  0.0712  0.3485
 4137W        W19946   7.002  11.839  11.200  0.1974 -0.0238 -0.0638
 4138W        W19947  10.423  10.405  12.129  0.2432 -0.0082  0.1648
 4139W        W19948   7.545  16.462  14.048 -0.1464  0.0468  0.0674
 4140W        W19949   9.947   1.888   2.220 -0.0780  0.0420 -0.0104
 4141W        W19950  10.807   0.183  12.353  0.0173 -0.1349  0.1773
 4142W        W19951  13.167  13.376  11.617  0.1560  0.0319 -0.3263
 4143W        W19952  13.004   7.238  16.883 -0.0245 -0.2537 -0.0125
 4144W        W19953  16.732   6.704   1.745 -0.1246  0.2143  0.1737
 4145W        W19954   8.067   6.737  13.490  0.1053  0.0423  0.3660
 4146W        W19955  15.535   8.708  14.148  0.0044  0.1652 -0.0005
 4147W        W19956  14.193  10.392   2.876  0.0753  0.0824  0.0104
 4148W        W19957   7.116   6.861  14.055  0.1133  0.1803 -0.1110
 4149W        W19958  11.426   9.664   4.648  0.2149  0.1394 -0.3181
 4150W        W19959   7.918  10.087   1.177 -0.0765  0.0677 -0.1576
 4151W        W19960  11.861   6.055  16.348  0.0814  0.1662 -0.0484
 4152W        W19961  13.847   0.750  13.289  0.0621  0.0445 -0.0490
 4153W        W19962   2.274  17.729   4.981  0.1133 -0.2078  0.1778
 4154W        W19963   3.418   0.558   4.895  0.3026  0.0600 -0.1276
 4155W        W19964   5.640   6.220  12.861  0.2366  0.2784 -0.0107
 4156W        W19965   1.469   4.561   3.498 -0.1135  0.2681  0.0193
 4157W        W19966   2.492  16.548  13.801  0.1342 -0.1508  0.1332
 4158W        W19967  16.065   1.784   3.340 -0.2194  0.3811  0.3582
 4159W        W19968   1.266   8.426   1.708  0.3826  0.0517  0.0470
 4160W        W19969   0.909  16.886  14.875 -0.0067  0.3185 -0.0902
 4161W        W19970  16.984   0.059   6.283 -0.3494 -0.1264 -0.2162
 4162W        W19971  12.579  16.538   1.660 -0.0355  0.1841  0.1912
 4163W        W19972   6.305   1.286   3.949  0.0609 -0.0329 -0.0221
 4164W        W19973  15.802   1.190  12.327 -0.0779  0.0223  0.2825
 4165W        W19974  11.254   1.763  12.694 -0.0283  0.3301  0.5403
 4166W        W19975  14.746   7.802   6.488 -0.0988  0.3208  0.2679
 4167W        W19976   0.346  11.267  14.780  0.0407  0.0035  0.2390
 4168W        W19977  13.253  12.110   0.537  0.1478  0.0164  0.3129
 4169W        W19978  12.394  10.731  16.558  0.0728 -0.1276 -0.0321
 4170W        W19979   5.291  11.804   0.294  0.0211  0.0056  0.4072
 4171W        W19980   8.140  13.693  13.247 -0.0034  0.0183  0.0047
 4172W        W19981  10.538   0.465  16.189  0.1211 -0.0811  0.1140
 4173W        W19982   9.011   3.602  12.928  0.1116 -0.0794  0.1842
 4174W        W19983  13.118   6.186   5.840 -0.1808 -0.0980 -0.2012
 4175W        W19984  10.196   2.750   2.061  0.0730 -0.0239 -0.0634
 4176W        W19985   6.272   6.827   0.832 -0.0999  0.1660  0.1240
 4177W        W19986   5.211  17.536   3.690 -0.0244 -0.1686 -0.1302
 4178W        W19987  17.039   1.499  16.231  0.4257  0.1534 -0.2238
 4179W        W19988   7.849   1.355   3.975  0.1850  0.1296  0.1863
 4180W        W19989   8.297  13.825  16.354  0.0970 -0.0408 -0.4703
 4181W        W19990   5.888  14.442   2.332  0.2352  0.0945  0.0868
 4182W        W19991  15.175   3.444  14.872 -0.2776 -0.1599  0.1139
 4183W        W19992   1.599   9.703   6.137 -0.0770 -0.0073  0.1410
 4184W        W19993  15.790   4.991   2.686 -0.0358 -0.0524 -0.1783
 4185W        W19994  11.114  10.731  15.188  0.0495  0.5385  0.0477
 4186W        W19995   1.223  10.257   2.915 -0.0254  0.3380 -0.3118
 4187W        W19996   5.207   8.329   2.545 -0.0800  0.2445 -0.1961
 4188W        W19997  13.533  16.257   0.140  0.0055  0.1180 -0.0058
 4189W        W19998   0.295   8.823   2.998 -0.1319  0.0313  0.2225
 4190W        W19999   4.633   0.209  14.762  0.0228  0.0761 -0.2279
 4191W        W20000  10.037   9.895  16.819 -0.0777 -0.0641 -0.1249
 4192W        W20001   3.880  11.092  11.796 -0.3688  0.0577 -0.1544
 4193W        W20002   3.811  15.830   5.044  0.2099 -0.1989 -0.1107
 4194W        W20003  13.369   7.804  14.120  0.1053  0.1036  0.0502
 4195W        W20004   1.940   5.495   5.228  0.1862  0.4051  0.3131
 4196W        W20005   4.123  11.005  12.265  0.0836  0.0670  0.0898
 4197W        W20006   5.360   9.082   2.869  0.2908  0.0722  0.2735
 4198W        W20007   7.262  14.972  13.103  0.0905 -0.1028  0.3416
 4199W        W20008  15.519   9.182  16.004 -0.0093 -0.1223 -0.0853
 4200W        W20009  13.467   6.476   3.807 -0.0607  0.0578 -0.1442
 4201W        W20010  15.536   2.788  13.132  0.0008 -0.0355  0.0819
 4202W        W20011  10.246   6.046   4.699 -0.3689 -0.0047 -0.0960
 4203W        W20012   9.029  16.910   1.367  0.0041 -0.0956 -0.0012
 4204W        W20013   5.544   0.648   4.662  0.0091 -0.1358 -0.1319
 4205W        W20014  10.805   6.937  14.219  0.1200  0.3251  0.2738
 4206W        W20015  14.987   7.748   0.522  0.3249  0.0683  0.2288
 4207W        W20016  10.223   6.362   2.647  0.0409 -0.1015 -0.0005
 4208W        W20017   9.468   2.236  13.200  0.1109 -0.1076 -0.0831
 4209W        W20018   4.080   1.897  12.953 -0.1901  0.0901 -0.2127
 4210W        W20019  11.107  16.091  14.663  0.1332  0.0566 -0.0472
 4211W        W20020  15.417   2.340   2.140 -0.3566 -0.0480  0.0005
 4212W        W20021  12.750  15.081   4.985 -0.1256 -0.2605  0.1088
 4213W        W20022  14.442   5.227  12.357  0.2598  0.0903 -0.2933
 4214W        W20023  16.148  14.805   3.763 -0.0442  0.1254 -0.2663
 4215W        W20024   4.990   4.207   3.881  0.0150 -0.3266 -0.2167
 4216W        W20025  14.428   3.342   4.509 -0.3087  0.0340 -0.0411
 4217W        W20026  16.215  16.029  16.833 -0.0134  0.0024 -0.2340
 4218W        W20027   8.328  12.167  15.854  0.2373  0.2951  0.0297
 4219W        W20028   7.770   8.840   3.568  0.1833 -0.3284  0.0089
 4220W        W20029   6.506  12.623   4.809 -0.0593 -0.0170  0.1085
 4221W        W20030   3.748  16.839   0.014  0.2998  0.1868 -0.0508
 4222W        W20031  14.218  16.920   1.614 -0.0978 -0.0989  0.0926
 4223W        W20032   6.432   6.392  12.365  0.0898 -0.0682 -0.1577
 4224W        W20033  14.535   6.062  11.822  0.0444 -0.1068  0.1101
 4225W        W20034   8.772  16.908  12.708  0.2391 -0.1223 -0.1289
 4226W        W20035   4.032   4.253   3.050 -0.0763 -0.3464  0.1615
 4227W        W20036   5.804   2.086  11.993  0.2452  0.0294 -0.2337
 4228W        W20037   6.899   6.341   5.603 -0.3677 -0.1017  0.1212
 4229W        W20038   2.003  15.248   2.346 -0.1625  0.0017 -0.0619
 4230W        W20039  11.620   8.464   1.285 -0.2953  0.0185 -0.0970
 4231W        W20040   1.725   6.405   5.177 -0.2105  0.0742 -0.0624
 4232W        W20041   3.889   1.794  14.080 -0.5052 -0.3789 -0.0224
 4233W        W20042   5.521   4.609  16.157 -0.1616 -0.0001 -0.1360
 4234W        W20043   6.909   8.763  15.651  0.0617 -0.0372  0.0036
 4235W        W20044  12.587   5.391   5.658 -0.3128  0.0123  0.0526
 4236W        W20045  15.487  16.269  13.434  0.0649 -0.0644 -0.1580
 4237W        W20046   6.296  12.006   5.056  0.2748 -0.1764 -0.0248
 4238W        W20047   2.102   4.299   6.466  0.0212  0.1970  0.0197
 4239W        W20048  10.140  14.454   4.444  0.2353  0.0848  0.1774
 4240W        W20049   0.951   5.269   2.880  0.1410 -0.0847 -0.1844
 4241W        W20050   6.571   5.676   3.532 -0.1757 -0.1123  0.2464
 4242W        W20051   7.487  10.147  16.417 -0.0330  0.0373  0.2075
 4243W        W20052  16.673   7.980  13.497 -0.0596 -0.0871 -0.0631
 4244W        W20053  10.536   7.549  13.831 -0.1453  0.1342 -0.2337
 4245W        W20054   3.326  10.989   0.202 -0.2613  0.1593  0.0978
 4246W        W20055   7.449  15.066   2.947 -0.0722 -0.2582  0.0821
 4247W        W20056  17.217  13.652  16.651 -0.0969 -0.0722  0.2702
 4248W        W20057   5.487  15.313   3.923  0.0584  0.2708 -0.0334
 4249W        W20058  10.915  15.095  14.831  0.0283  0.1109 -0.0079
 4250W        W20059   8.598  14.031  13.506  0.0072  0.1125 -0.0538
 4251W        W20060  11.287  12.097   3.127  0.1513 -0.0018 -0.0339
 4252W        W20061   4.553   6.746   2.055 -0.0539  0.1042 -0.1053
 4253W        W20062   1.169  10.835   1.053 -0.2783  0.1195  0.0002
 4254W        W20063   8.691   0.319   2.365 -0.2215 -0.1051 -0.0024
 4255W        W20064   0.297  13.695  16.119  0.0003 -0.2320  0.3252
 4256W        W20065   2.172  10.884   2.307 -0.0167  0.0848 -0.0430
 4257W        W20066  14.416  16.962  13.062 -0.3380 -0.2089  0.0866
 4258W        W20067  11.148  15.016   5.719 -0.0927  0.0545  0.2944
 4259W        W20068   4.879   2.657   2.116 -0.2485  0.1240  0.1862
 4260W        W20069   0.685  10.223   1.884 -0.1383 -0.2009  0.1705
 4261W        W20070   6.070  17.068  12.302  0.1928  0.1780  0.0694
 4262W        W20071   5.340   2.399  12.010  0.2274 -0.0205 -0.2616
 4263W        W20072  13.215  14.299  13.265  0.3311  0.0850  0.2189
 4264W        W20073   9.203   9.551   2.966  0.3692 -0.0619  0.0763
 4265W        W20074   0.712   4.826  14.888  0.2133  0.3029  0.2536
 4266W        W20075   7.390   1.715   4.114  0.1010  0.0625  0.0538
 4267W        W20076  16.206   2.721   3.261 -0.0605  0.1399  0.1413
 4268W        W20077  13.816  15.755   4.383 -0.0250 -0.1696 -0.0810
 4269W        W20078  14.292   5.818  13.578  0.3035  0.0245 -0.0373
 4270W        W20079  12.975   3.494  16.477 -0.1402 -0.0820  0.0082
 4271W        W20080   8.231  15.625   3.290 -0.0194  0.2386 -0.2900
 4272W        W20081   3.238   0.753   4.441  0.3621  0.4266  0.0886
 4273W        W20082   3.179   5.480  16.441 -0.2337 -0.0238 -0.2593
 4274W        W20083  10.305   7.825  15.658 -0.2775 -0.3644  0.2582
 4275W        W20084   6.718  12.906   0.525  0.0844 -0.4612  0.0726
 4276W        W20085  16.048   9.683  15.433 -0.0354 -0.0745 -0.1389
 4277W        W20086  12.979  17.008   4.119  0.1171  0.1662  0.0628
 4278W        W20087  16.520  11.438  15.329  0.0506 -0.0551 -0.0333
 4279W        W20088   9.662  12.438   0.534  0.0049  0.0052 -0.0401
 4280W        W20089   0.087   5.895  12.729 -0.0308  0.1266  0.0446
 4281W        W20090  10.408  15.977  12.078 -0.0881  0.1391  0.1404
 4282W        W20091   0.980  10.254  12.193 -0.1071 -0.0909 -0.0114
 4283W        W20092  12.758  10.275   4.194 -0.0505 -0.2358 -0.1297
 4284W        W20093   2.372  15.578  16.331  0.1375 -0.0208  0.2684
 4285W        W20094   2.919   5.240  12.528 -0.0791  0.3420 -0.0418
 4286W        W20095  17.199  14.926  15.991  0.0739 -0.3291  0.2495
 4287W        W20096  16.509   9.216  15.503  0.0888  0.0305  0.2152
 4288W        W20097  10.879   4.991  15.312  0.3371  0.1283  0.1449
 4289W        W20098   9.318   3.126  14.727  0.0966 -0.1074  0.3119
 4290W        W20099   0.333   2.865   1.741  0.1591  0.1484 -0.0004
 4291W        W20100  15.788  17.601   1.733 -0.0389  0.0126  0.1299
 4292W        W20101   7.189   9.538  13.920 -0.2767 -0.0965  0.0228
 4293W        W20102  17.139  16.784   4.270  0.3641 -0.2133  0.3250
 4294W        W20103   4.924   4.573  13.187 -0.0771 -0.1282  0.0301
 4295W        W20104   2.674   7.352  15.012 -0.1913  0.4250 -0.1034
 4296W        W20105   6.770   0.700  16.986  0.4080 -0.3913  0.1730
 4297W        W20106  11.518  16.046  11.436  0.0378  0.0200  0.2567
 4298W        W20107   7.802  10.837  11.720  0.0819 -0.0972  0.0471
 4299W        W20108   8.472   0.110  16.587 -0.3625  0.0805  0.0553
 4300W        W20109   1.183  10.845  16.217 -0.0538 -0.2416 -0.1248
 4301W        W20110   0.038  12.287  15.041 -0.1835 -0.0866  0.2642
 4302W        W20111   0.643   0.889   4.630 -0.0599  0.1606 -0.0400
 4303W        W20112   7.013   6.122   1.383  0.0007  0.1030 -0.1662
 4304W        W20113   9.323   6.250   0.130 -0.3475 -0.0264 -0.0532
 4305W        W20114  11.849  17.641   0.055 -0.0494 -0.0135  0.2114
 4306W        W20115   2.854   4.267   2.079  0.2452  0.0038 -0.1415
 4307W        W20116  13.552  15.305  13.269 -0.0563 -0.0214  0.0240
 4308W        W20117  12.110  15.277   2.453  0.0234  0.3552 -0.2730
 4309W        W20118  12.637  17.586   1.137 -0.2436 -0.2506 -0.0342
 4310W        W20119  12.829   7.316  16.064 -0.0250  0.1363 -0.2961
 4311W        W20120  11.036   4.682   3.951 -0.0915 -0.2257 -0.0370
 4312W        W20121   9.088   6.210   3.495  0.0363 -0.1277 -0.0617
 4313W        W20122   9.794   9.117  11.296 -0.1535  0.0980  0.1203
 4314W        W20123   9.822   6.222   0.150  0.1239 -0.3497  0.1316
 4315W        W20124  15.364   2.058  15.858 -0.2785 -0.0006 -0.3304
 4316W        W20125  13.078  11.658   3.877  0.0355 -0.0633  0.0834
 4317W        W20126   4.364  14.318  15.061  0.0135  0.0407  0.0748
 4318W        W20127   9.024  14.078   5.036  0.0306  0.1248  0.0580
 4319W        W20128   1.642  14.874   2.733  0.1476  0.2713 -0.1256
 4320W        W20129  11.142  13.974  15.556  0.2689 -0.0253  0.0616
 4321W        W20130  12.592  14.030  11.426 -0.0620 -0.2521 -0.0432
 4322W        W20131  14.859  16.113  12.828  0.1281 -0.0120 -0.0892
 4323W        W20132   2.465  14.489   3.942 -0.1763 -0.0315 -0.1051
 4324W        W20133  14.584   3.228   1.859 -0.0577 -0.1793  0.0935
 4325W        W20134   1.660   0.083  14.085 -0.0920 -0.0987  0.1081
 4326W        W20135   7.511  16.284  16.967 -0.2174  0.3195  0.0536
 4327W        W20136  15.415  15.501  11.730 -0.0385 -0.0336  0.2211
 4328W        W20137   9.388   9.068  16.109  0.1412 -0.1188  0.1943
 4329W        W20138   8.354  17.132   4.717  0.4704 -0.0306 -0.0617
 4330W        W20139  13.922   2.752  15.154 -0.1869 -0.4953  0.0837
 4331W        W20140   5.407   4.810   5.410 -0.0030  0.0861  0.1765
 4332W        W20141  13.001  11.559  14.751  0.0292 -0.1978  0.0578
 4333W        W20142   6.010   7.146   3.681 -0.1230  0.4532  0.0800
 4334W        W20143   9.939  16.084  12.157 -0.1769 -0.1039  0.0341
 4335W        W20144  13.205  14.186   3.806 -0.0871 -0.0954  0.2762
 4336W        W20145  13.570   1.367   4.019  0.2287  0.1997  0.2585
 4337W        W20146   0.162   4.617  12.288 -0.1448 -0.2416  0.0449
 4338W        W20147  11.132  16.698  14.563  0.1401  0.0318  0.0830
 4339W        W20148   0.744  11.899  11.458  0.1618  0.0854  0.0543
 4340W        W20149  13.621  16.590  13.491  0.0182  0.1090 -0.0878
 4341W        W20150  12.683   0.189   0.382 -0.2722  0.0845 -0.2325
 4342W        W20151  15.690   8.188  13.878  0.1445 -0.1179 -0.1806
 4343W        W20152   4.726   2.198   1.935 -0.0678  0.4444  0.2809
 4344W        W20153  16.637   2.098   2.343 -0.1814 -0.2601  0.1126
 4345W        W20154  11.509  14.489  11.933  0.0756  0.0782  0.0172
 4346W        W20155   7.726   7.309   1.563 -0.1931  0.1349 -0.2184
 4347W        W20156  13.826  16.371  12.473 -0.2708 -0.1009  0.1479
 4348W        W20157   8.863   9.878  13.114  0.2293 -0.0124 -0.2252
 4349W        W20158  17.156  11.632   1.153 -0.0621 -0.0390 -0.3513
 4350W        W20159  13.958   2.416   3.306 -0.0789  0.0163  0.0942
 4351W        W20160   2.070  17.410  15.288  0.3377 -0.0188 -0.0964
 4352W        W20161  15.392   0.808  16.663 -0.0253 -0.0075  0.1011
 4353W        W20162   6.020   8.154  16.503  0.1679  0.0573 -0.0399
 4354W        W20163   3.203  16.040   1.179  0.0007  0.0975 -0.0288
 4355W        W20164   3.380   9.326   0.744 -0.3054 -0.3991 -0.1317
 4356W        W20165  10.737   5.350   2.280  0.0831 -0.1904 -0.1114
 4357W        W20166   2.355   4.463   0.247  0.0479 -0.1959  0.0196
 4358W        W20167   8.283   7.074   1.684  0.2039  0.2826 -0.1147
 4359W        W20168  10.095  11.142   3.448  0.3972  0.1929  0.0306
 4360W        W20169   2.206  14.217  16.414 -0.2155  0.0993 -0.1540
 4361W        W20170   0.494   5.714  16.206  0.2507 -0.2441 -0.0270
 4362W        W20171   8.254  16.182  15.325  0.2647  0.0624 -0.0548
 4363W        W20172   3.416   5.071  15.225 -0.1979  0.0859  0.1789
 4364W        W20173  13.772  12.296   0.408 -0.0206  0.0052 -0.2476
 4365W        W20174   7.686   7.333   5.343 -0.1744 -0.0452  0.4805
 4366W        W20175   6.451   3.874   2.586 -0.0500 -0.0699  0.0885
 4367W        W20176   4.418  17.124   0.534 -0.1272 -0.2186 -0.2025
 4368W        W20177  17.562   4.376  12.456 -0.1626  0.0995  0.0278
 4369W        W20178  10.699  17.434   1.234  0.1659  0.0723  0.0209
 4370W        W20179   5.572  13.238   3.262  0.1874 -0.1495  0.1622
 4371W        W20180   0.267   3.834   0.792  0.0855 -0.0479  0.0893
 4372W        W20181  10.101   8.638   5.236  0.0991  0.3839 -0.0270
 4373W        W20182   9.097   5.243  14.797  0.0356  0.2010 -0.2782
 4374W        W20183   2.767  10.294  14.040 -0.1674 -0.0100 -0.1675
 4375W        W20184   3.138  16.581   4.821 -0.1115 -0.2135  0.0240
 4376W        W20185   2.243   5.710   2.885 -0.0344 -0.1645  0.1751
 4377W        W20186   5.162  17.328  16.878 -0.0880 -0.0992  0.1723
 4378W        W20187   1.208  11.059   0.220  0.2791 -0.0937 -0.3257
 4379W        W20188   0.681   2.733   0.820  0.1583 -0.1135  0.0422
 4380W        W20189  11.228  13.483   2.074  0.0553  0.1181 -0.1256
 4381W        W20190   9.379  13.011  14.410  0.0533 -0.0509 -0.2034
 4382W        W20191   6.343  16.056   2.788 -0.1915  0.0453 -0.0600
 4383W        W20192   4.616  10.729  12.252 -0.1890 -0.1394  0.2821
 4384W        W20193   4.579  13.487   5.772  0.2658  0.2935  0.3451
 4385W        W20194  14.475  16.153  13.492 -0.1695 -0.1234 -0.0031
 4386W        W20195   3.448   2.369   0.560  0.1044 -0.0326  0.1582
 4387W        W20196   5.143  17.283   5.959 -0.1077 -0.0352 -0.0012
 4388W        W20197   8.088  13.426   2.170 -0.0770  0.2092  0.0711
 4389W        W20198  17.671   3.704  14.730 -0.0986 -0.1681  0.1005
 4390W        W20199   4.347  15.739  14.600  0.2195 -0.0655  0.1231
 4391W        W20200   8.975  12.338   0.067  0.0415  0.1040 -0.0627
 4392W        W20201  11.169  17.558   0.538 -0.0930  0.3494 -0.0794
 4393W        W20202  17.605   1.778  12.354  0.1007 -0.1704  0.1550
 4394W        W20203   6.307  11.554   4.094 -0.1786 -0.3357  0.0065
 4395W        W20204  12.071   3.478  16.626 -0.2996  0.2129  0.0194
 4396W        W20205   9.889  12.810  12.950 -0.1022  0.2134  0.1467
 4397W        W20206   2.236   5.470   3.765  0.2199 -0.1770  0.0414
 4398W        W20207  14.798  16.855   1.766 -0.1082  0.0638  0.0943
 4399W        W20208  17.422   7.274   4.300 -0.2702  0.2055 -0.0751
 4400W        W20209   6.170  13.067   4.152 -0.2001  0.2079  0.0958
 4401W        W20210   4.300  17.050  13.596  0.1322  0.1445 -0.2166
 4402W        W20211   5.091   0.750   4.492  0.0157  0.0477  0.3483
 4403W        W20212  14.378   8.748  16.876  0.0765 -0.0812 -0.0328
 4404W        W20213   1.131  14.796   2.475 -0.0086  0.1979 -0.0306
 4405W        W20214  12.605  15.486   1.834  0.1650 -0.2644  0.2050
 4406W        W20215   4.810   7.968   5.263  0.0929 -0.0390 -0.2400
 4407W        W20216   9.746   9.078   6.059 -0.1022 -0.0707 -0.0549
 4408W        W20217   4.153   5.002   6.059  0.0397 -0.3166 -0.2376
 4409W        W20218   0.966   4.150  16.966 -0.1514  0.0475 -0.0904
 4410W        W20219  17.648   3.083  15.381 -0.1934  0.1605 -0.4119
 4411W        W20220   6.307   5.969  16.369 -0.1755  0.0519  0.0120
 4412W        W20221  15.256  12.537   4.332 -0.0423 -0.1478  0.2377
 4413W        W20222   2.040  13.906  16.815 -0.1384 -0.1391  0.0158
 4414W        W20223   5.488   7.714  16.202  0.3438  0.2167  0.3553
 4415W        W20224   9.707   3.307  13.859  0.1513  0.2539 -0.2251
 4416W        W20225  12.249   3.727   0.068  0.2444 -0.2901  0.1812
 4417W        W20226   2.374   3.651  12.549 -0.0290  0.1462 -0.1077
 4418W        W20227  12.199   2.387   1.095 -0.0845 -0.1355  0.0816
 4419W        W20228   4.719  10.209   4.010  0.0967  0.3136  0.1398
 4420W        W20229   4.681   5.001  15.386  0.0429 -0.2563 -0.0419
 4421W        W20230   6.084   0.711  15.822 -0.1831 -0.0278  0.0978
 4422W        W20231  15.451  10.425  12.998  0.1234  0.0374  0.1613
 4423W        W20232   2.377   8.675  15.303 -0.4516 -0.3252 -0.0980
 4424W        W20233  14.251   7.142  14.824  0.0639 -0.0988 -0.0703
 4425W        W20234  14.925  15.518   2.686  0.1143  0.0497 -0.0090
 4426W        W20235  13.282   2.145   4.078  0.3307 -0.0085 -0.0368
 4427W        W20236  13.610   2.484  12.337  0.1428 -0.0013 -0.1845
 4428W        W20237  13.887  10.662   0.635  0.1653  0.2805 -0.2017
 4429W        W20238   4.033   8.341   1.425 -0.0464 -0.0398 -0.1742
 4430W        W20239   7.733   5.281   2.888  0.0124  0.0608  0.1428
 4431W        W20240  14.699  14.768  13.949 -0.3047 -0.1580 -0.1564
 4432W        W20241   8.173  16.022   0.978  0.1884  0.3788  0.0765
 4433W        W20242   9.826   1.127   2.596 -0.3117 -0.1309 -0.1798
 4434W        W20243   2.230   0.606  13.512 -0.1122  0.2270  0.2849
 4435W        W20244  12.448  13.085  16.683 -0.2277 -0.0192  0.0316
 4436W        W20245  11.900  15.313  11.304  0.1544 -0.1098  0.4193
 4437W        W20246   0.016  16.147   5.088  0.2013  0.0907 -0.0253
 4438W        W20247   4.184   8.111   6.012  0.3213  0.2137  0.0161
 4439W        W20248   9.623  15.345   1.265  0.1394 -0.0035  0.1976
 4440W        W20249  13.272  11.525   2.640 -0.3217  0.1857 -0.0673
 4441W        W20250   8.100  13.773  10.063 -0.0674 -0.1179  0.0434
 4442W        W20251  17.585   5.555   5.328  0.0653  0.1062 -0.0743
 4443W        W20252   2.875   2.997   1.166 -0.0581 -0.3103  0.2389
 4444W        W20253   4.474   8.519   0.625 -0.0880  0.1753  0.1281
 4445W        W20254   8.388   8.684  16.719 -0.1066  0.1013 -0.1312
 4446W        W20255  17.341   7.360  13.198  0.0722  0.0346 -0.1269
 4447W        W20256  16.262  12.735  11.454  0.1759 -0.5497  0.2102
 4448W        W20257   6.965  16.862  13.283 -0.0323 -0.1142  0.1094
 4449W        W20258  10.814   6.013   0.081  0.1493  0.0571 -0.2388
 4450W        W20259   8.957   3.551   5.264 -0.1885 -0.0848  0.0617
 4451W        W20260  16.163   4.017   0.444  0.4311 -0.0929 -0.1261
 4452W        W20261  12.123  12.740   5.867  0.2132 -0.0946  0.3276
 4453W        W20262   9.484   7.915   3.304  0.0817 -0.1078 -0.0699
 4454W        W20263   6.733  11.371  14.198 -0.0777 -0.0191 -0.0307
 4455W        W20264   4.987  10.000  16.072  0.0262  0.1521 -0.2090
 4456W        W20265   0.070   1.218  15.846  0.0551 -0.1617  0.0566
 4457W        W20266   9.986  13.711  11.903  0.0206  0.3420 -0.2824
 4458W        W20267  12.967  14.227   0.221  0.1750 -0.0216 -0.0153
 4459W        W20268   9.223   2.220  14.837 -0.0076  0.0489 -0.1734
 4460W        W20269   4.592  15.592  15.631  0.0278  0.0221  0.0917
 4461W        W20270  12.409   2.169  10.840  0.1954 -0.1427 -0.1407
 4462W        W20271   3.966  16.476   3.619  0.0906 -0.0573 -0.1028
 4463W        W20272  14.366   0.106   0.994  0.2314 -0.0287  0.2005
 4464W        W20273  13.391  10.482   0.679  0.2249  0.0651  0.4226
 4465W        W20274  17.227   1.446  15.179  0.1228 -0.0634  0.2373
 4466W        W20275  16.332   1.738  15.984  0.2030 -0.2403  0.1474
 4467W        W20276   3.771   6.557   1.829 -0.2408  0.2217 -0.0033
 4468W        W20277   6.218  16.388   4.260 -0.1199 -0.4373  0.0311
 4469W        W20278   7.006   0.950  12.152 -0.2318 -0.2653  0.2592
 4470W        W20279  17.101   8.178   0.158  0.1756  0.0102 -0.1543
 4471W        W20280   4.740   5.633  12.540  0.3093  0.3194 -0.0972
 4472W        W20281  12.622   2.953   4.338 -0.1065  0.1052  0.2398
 4473W        W20282   5.171   4.973   0.987 -0.0266 -0.2751 -0.0170
 4474W        W20283  10.636   9.040  11.441  0.0990 -0.1352 -0.1919
 4475W        W20284  12.432   2.357  12.613  0.0480  0.3434  0.2944
 4476W        W20285  15.716   8.342  12.919 -0.0444  0.1057  0.2118
 4477W        W20286   5.807  16.755  14.754 -0.0327  0.1975  0.2451
 4478W        W20287  13.546  15.783   0.337 -0.2022 -0.0929 -0.0913
 4479W        W20288   4.192  12.301  15.776  0.1365 -0.2605  0.0779
 4480W        W20289   8.651  12.585  14.058 -0.1973  0.0698  0.2430
 4481W        W20290   8.048   6.955  13.992  0.1821 -0.2630  0.3091
 4482W        W20291  13.917  16.951  13.237 -0.0116 -0.1705 -0.1866
 4483W        W20292  12.170   5.400  12.802 -0.0446 -0.1871  0.0833
 4484W        W20293   2.240   7.764   3.610 -0.0952 -0.2689  0.1030
 4485W        W20294   6.562  15.186  11.468  0.3023 -0.1226 -0.1413
 4486W        W20295   2.118   2.918  14.166  0.1052 -0.1064 -0.2344
 4487W        W20296   9.374   7.658   0.859  0.1173  0.2042 -0.1791
 4488W        W20297  13.279  17.247   0.282 -0.0317  0.0107 -0.1127
 4489W        W20298  15.903   7.028  16.273  0.0765 -0.1931  0.0045
 4490W        W20299   8.991   5.716   5.180  0.2431 -0.1375  0.0157
 4491W        W20300  12.364  11.901   1.306 -0.1021  0.0238  0.1150
 4492W        W20301   7.206   5.165  16.742 -0.1749 -0.1280  0.1170
 4493W        W20302  14.985  15.204  15.350 -0.2260 -0.1181 -0.2812
 4494W        W20303   4.691   7.303   0.445  0.2018  0.0893 -0.0450
 4495W        W20304   1.028  11.505   1.153  0.2061  0.0834 -0.2518
 4496W        W20305  15.483   7.614   4.778 -0.0886 -0.0813  0.0563
 4497W        W20306   0.228   5.857   1.784  0.0736 -0.1633 -0.0631
 4498W        W20307   2.773  16.981   3.779 -0.0176  0.1622 -0.0884
 4499W        W20308   1.022  12.590   2.569  0.1987  0.1324 -0.2842
 4500W        W20309  15.182   8.777  10.802  0.1366  0.0526  0.0676
 4501W        W20310   3.171   6.788  13.261 -0.2087 -0.0042  0.2518
 4502W        W20311  14.824  12.739   5.398 -0.0029 -0.1431 -0.0521
 4503W        W20312   4.232  15.448  11.824  0.1846  0.2515 -0.0590
 4504W        W20313   6.142   1.477   1.769  0.3274  0.1003  0.0181
 4505W        W20314   0.024   8.638   4.962 -0.0290  0.2028 -0.1267
 4506W        W20315  12.287   8.163   3.997  0.1769  0.2484  0.0522
 4507W        W20316  16.897  10.713  13.418  0.2542 -0.0952  0.0991
 4508W        W20317   3.968   5.979  16.745  0.0933  0.0132  0.1115
 4509W        W20318   3.326  10.231  13.944 -0.2049 -0.0463  0.1179
 4510W        W20319  12.808  16.147  11.290  0.0802  0.3475  0.0435
 4511W        W20320   7.689   1.494   6.444  0.0863  0.1477 -0.0238
 4512W        W20321   9.579  11.526  13.466 -0.2277  0.0252 -0.1464
 4513W        W20322  11.759   6.779  14.498  0.0997 -0.1764  0.0950
 4514W        W20323  12.836   8.340  16.260  0.3412  0.1570 -0.2660
 4515W        W20324  13.743   3.943   4.195  0.1000 -0.1908 -0.3522
 4516W        W20325   7.296   5.121   2.159 -0.2840  0.1652  0.5440
 4517W        W20326   1.043  15.182  16.116 -0.2225  0.0030  0.3610
 4518W        W20327  14.823   1.404   0.436  0.0980  0.0971 -0.2098
 4519W        W20328   6.200   1.972  12.773 -0.1407  0.0685 -0.0697
 4520W        W20329   7.522   0.992  13.936  0.1602  0.1419 -0.0117
 4521W        W20330  17.332   8.714   4.422 -0.1381 -0.3213  0.1642
 4522W        W20331  16.448  14.662  12.997  0.0977 -0.3579 -0.3836
 4523W        W20332  16.596  16.781  12.059 -0.1729  0.0955 -0.1083
 4524W        W20333   9.047   5.460   1.211 -0.1142  0.0034  0.1920
 4525W        W20334   5.532   2.791  13.711  0.0584  0.1572 -0.1718
 4526W        W20335   7.035   2.704   1.420 -0.1751 -0.0593  0.1208
 4527W        W20336   4.797   5.361   1.121 -0.2982 -0.1118  0.0544
 4528W        W20337  14.899  16.615  14.225  0.1920 -0.0225  0.1746
 4529W        W20338   7.039   2.232   4.747 -0.3415 -0.0613  0.0553
 4530W        W20339  14.687  15.539  11.413 -0.1492  0.0219  0.2843
 4531W        W20340  16.698  10.054  15.173 -0.0592  0.1393 -0.0032
 4532W        W20341   0.005   5.650  14.503  0.1035 -0.1244  0.0023
 4533W        W20342   9.990  16.498  11.406 -0.1985 -0.0948 -0.0181
 4534W        W20343   0.280   4.110  13.035 -0.0856  0.0010 -0.0888
 4535W        W20344   6.032   6.969   4.220  0.0473  0.0406  0.1812
 4536W        W20345   2.095   2.785   5.619 -0.0860 -0.0219  0.2756
 4537W        W20346   0.289  15.724   1.877  0.1716 -0.1291 -0.0896
 4538W        W20347  17.279  13.741   6.016  0.0467 -0.3205  0.0441
 4539W        W20348  11.945   3.945   4.824 -0.1680 -0.1889  0.1503
 4540W        W20349   9.394   5.431  12.920  0.0954  0.1255 -0.2363
 4541W        W20350  16.010   2.364  12.651 -0.1403 -0.1200  0.0426
 4542W        W20351  11.169   6.647   3.191  0.1096  0.3055 -0.0864
 4543W        W20352   6.174   7.112  13.231 -0.1778 -0.1247  0.1271
 4544W        W20353  13.118  12.007  16.085 -0.1041 -0.1249  0.2055
 4545W        W20354   1.288  13.168   4.402  0.1260 -0.0985 -0.0279
 4546W        W20355   3.543   2.928  13.359  0.0869 -0.1126  0.2231
 4547W        W20356   7.388  17.347   4.688 -0.4340  0.0895  0.1592
 4548W        W20357   3.603  16.004   4.134  0.0618  0.1738 -0.2279
 4549W        W20358   0.234   8.134   5.752 -0.5123  0.0579 -0.1567
 4550W        W20359   8.039  15.070   1.654  0.0533  0.3803 -0.1339
 4551W        W20360  10.056  13.249  16.096 -0.0394  0.0934 -0.0699
 4552W        W20361  10.662  16.421   0.126  0.1502  0.2186 -0.2769
 4553W        W20362  16.750   6.486  14.755  0.1259 -0.0348 -0.3526
 4554W        W20363   5.980  11.058   1.050  0.1267 -0.1787 -0.2347
 4555W        W20364  11.428  10.347  16.011  0.0485 -0.0011 -0.0058
 4556W        W20365  15.648   8.995   2.803 -0.3265 -0.1136 -0.1212
 4557W        W20366  16.230   4.335   4.035 -0.2135 -0.0042  0.2014
 4558W        W20367   2.615  10.081  11.990 -0.0957  0.0818  0.0151
 4559W        W20368   3.405  17.560   5.572  0.2557  0.0975 -0.0730
 4560W        W20369   8.002  11.750  15.422 -0.0831  0.0062  0.2132
 4561W        W20370   6.708  15.096  11.946 -0.0327  0.1222  0.0735
 4562W        W20371   7.635  11.282   2.109  0.1072  0.0011 -0.0299
 4563W        W20372   8.868   8.793  16.730 -0.1713  0.2167 -0.3869
 4564W        W20373   8.690   2.758   0.987  0.2769  0.2077  0.0354
 4565W        W20374   5.962   6.510  12.618  0.0674  0.0228  0.4081
 4566W        W20375  13.829   7.553   2.658 -0.1917 -0.1636 -0.1320
 4567W        W20376   7.234  14.571  14.896 -0.1932 -0.0924 -0.1624
 4568W        W20377   7.320  13.470   4.484  0.0715 -0.0439  0.2872
 4569W        W20378  14.092   0.476  12.808 -0.0275  0.2783  0.3045
 4570W        W20379   2.985   1.496  16.277  0.1426 -0.0730  0.3099
 4571W        W20380   2.497   9.130   4.775 -0.2061 -0.1431 -0.0097
 4572W        W20381   4.505  11.899  15.887 -0.1067 -0.2113  0.0618
 4573W        W20382  11.273  15.188  10.633 -0.2514 -0.3774 -0.1472
 4574W        W20383  13.304   2.098  12.185 -0.2360 -0.3679 -0.0042
 4575W        W20384   6.630  16.966  11.837 -0.1285  0.2398  0.3680
 4576W        W20385   9.342   8.898  12.391 -0.1671  0.2735  0.1173
 4577W        W20386   9.707  17.586  14.471 -0.0493  0.0601  0.0493
 4578W        W20387   4.585   7.252   1.069 -0.1103  0.4240  0.2063
 4579W        W20388   5.161   7.559   1.855  0.1138  0.0210 -0.1626
 4580W        W20389   7.461  12.958   0.860  0.0114  0.1517 -0.2583
 4581W        W20390   4.902   4.491  11.814 -0.1514  0.0461 -0.2205
 4582W        W20391  15.313  16.731   0.292  0.0672  0.1869 -0.2073
 4583W        W20392   2.395  15.154  14.513  0.0750 -0.1165 -0.2157
 4584W        W20393   7.904   7.527  14.171 -0.4521 -0.1505  0.1188
 4585W        W20394  16.426  10.254  11.847  0.1289 -0.2117 -0.0692
 4586W        W20395  16.524   6.318  15.607  0.1074 -0.1797  0.3684
 4587W        W20396  14.986  15.641  12.605 -0.3850  0.0215  0.0685
 4588W        W20397   3.807   6.499  16.735 -0.1632  0.0217  0.0216
 4589W        W20398   3.405  11.851  11.586  0.1535 -0.1600  0.0538
 4590W        W20399  10.582  11.701   0.014  0.3521  0.3224 -0.0469
 4591W        W20400   2.872  15.714   1.784  0.0420 -0.2218  0.0817
 4592W        W20401  12.655  12.374   1.193 -0.1120 -0.0623 -0.0198
 4593W        W20402   7.735   1.781  15.523 -0.0294 -0.1694  0.0069
 4594W        W20403  12.400   8.609   4.277 -0.0881  0.0551 -0.0264
 4595W        W20404   8.607   3.599   3.464 -0.0367 -0.2468 -0.0604
 4596W        W20405   6.604   4.173  13.372  0.5437 -0.0161  0.1529
 4597W        W20406   8.549  16.726   1.355 -0.0624 -0.2304  0.1214
 4598W        W20407  15.322   4.410  11.649  0.0150 -0.0028 -0.0847
 4599W        W20408  14.673   6.512  16.973  0.0409  0.1024 -0.2309
 4600W        W20409   9.399   4.638  15.021  0.0560 -0.3214  0.0738
 4601W        W20410   2.367  13.716   0.227 -0.0524 -0.0049 -0.2248
 4602W        W20411  17.273   7.092  14.566  0.1991  0.1762 -0.0562
 4603W        W20412  16.006  16.901  12.999 -0.1301  0.0272 -0.1250
 4604W        W20413  17.734  14.848   1.902 -0.2368 -0.1635  0.1294
 4605W        W20414  17.469  17.200   3.858  0.1194  0.0401  0.0602
 4606W        W20415   4.444   3.310   5.013 -0.2268  0.2124  0.0320
 4607W        W20416  14.130   8.778  16.297  0.0212  0.2407  0.0400
 4608W        W20417  15.991  15.706  15.882  0.2345 -0.0923 -0.1491
 4609W        W20418   1.102  17.557   3.361 -0.1222 -0.1629 -0.1492
 4610W        W20419   2.045  10.669   1.610  0.0635 -0.2348  0.0773
 4611W        W20420   9.239   8.660  15.092 -0.0315  0.3198  0.1635
 4612W        W20421  14.138  16.048   5.110 -0.1479  0.1095  0.0608
 4613W        W20422   8.800  11.751   0.638  0.0279 -0.1025 -0.0434
 4614W        W20423   7.992  10.769   6.340  0.0155  0.1131 -0.0973
 4615W        W20424  12.725   2.357   1.108 -0.0099  0.2438 -0.1624
 4616W        W20425  17.318  16.566   2.855  0.0933 -0.0407 -0.0144
 4617W        W20426   3.824  12.077  15.488  0.2111  0.1129  0.1656
 4618W        W20427   8.531  17.021   0.336 -0.2132  0.2337  0.1745
 4619W        W20428   8.204   0.036  16.975  0.1003 -0.1126  0.1975
 4620W        W20429   1.408   6.332   2.598 -0.1568  0.2347  0.1101
 4621W        W20430  16.599   1.906   5.055 -0.0956  0.1110 -0.2784
 4622W        W20431   6.928  11.659  15.330  0.0885  0.0925  0.3728
 4623W        W20432   3.072   7.490  13.114 -0.2442 -0.1192 -0.1032
 4624W        W20433   9.895   5.482   5.217 -0.1052  0.1729 -0.1726
 4625W        W20434   2.195  12.347   6.332 -0.0694 -0.3679 -0.0052
 4626W        W20435  10.243  13.160  13.137 -0.2522  0.2442 -0.2315
 4627W        W20436  11.393   3.942   1.686 -0.1111 -0.0732 -0.3138
 4628W        W20437   1.088  13.534   2.870 -0.1063 -0.0088  0.0794
 4629W        W20438   5.402  17.540  11.984  0.0507  0.1749  0.1942
 4630W        W20439   9.742   1.916  14.153 -0.0220 -0.1866 -0.0502
 4631W        W20440  17.688   1.418  14.760  0.1753  0.1780 -0.0073
 4632W        W20441   7.853  16.423  16.629  0.0057 -0.0066 -0.0713
 4633W        W20442   2.405   1.047   0.037 -0.1100  0.1066 -0.1712
 4634W        W20443  11.540  12.347  13.677  0.3247  0.1989  0.2375
 4635W        W20444   4.203  15.955   5.388 -0.0380  0.0159 -0.0038
 4636W        W20445  11.866   2.648   5.541 -0.1143  0.2600 -0.2173
 4637W        W20446  17.375  12.653   2.227  0.3177 -0.0887 -0.0611
 4638W        W20447  15.183  10.358  13.466 -0.2230  0.0649  0.1288
 4639W        W20448  13.290  16.646  13.105 -0.1373  0.2428  0.2832
 4640W        W20449  13.242  17.125   4.554  0.0374  0.0199 -0.2516
 4641W        W20450  11.361  11.296  13.412 -0.1556 -0.4166 -0.2328
 4642W        W20451  10.486   6.111  14.671  0.0528  0.0846  0.1312
 4643W        W20452   2.231  15.039   0.544  0.2341  0.1739  0.4199
 4644W        W20453   4.714  17.285  13.415  0.1620 -0.0999 -0.0981
 4645W        W20454   2.034  13.541  15.821 -0.1761  0.5646  0.0476
 4646W        W20455  10.847  16.642   1.633 -0.3366 -0.0120  0.1977
 4647W        W20456  13.301   8.594   4.650  0.0008  0.1301 -0.0681
 4648W        W20457   0.216   1.274  16.279  0.2863  0.0960 -0.1975
 4649W        W20458  13.560   3.877   2.512 -0.1396 -0.1461  0.0612
 4650W        W20459   3.663   4.368  15.800 -0.0720  0.0864  0.1722
 4651W        W20460   4.083   5.036   1.495 -0.2955  0.1392  0.0186
 4652W        W20461  16.716   4.537   2.326  0.1194  0.0958  0.1481
 4653W        W20462  16.566  14.977   3.954  0.0967 -0.2574  0.2282
 4654W        W20463  16.794  16.963  16.574 -0.1621  0.1093 -0.4562
 4655W        W20464   1.566  13.412  13.904  0.0745  0.3103  0.1260
 4656W        W20465   0.807   2.880   1.697  0.2642 -0.0585  0.0358
 4657W        W20466  13.906   5.199  14.302  0.3262  0.1101  0.0419
 4658W        W20467   3.202   6.749  12.513  0.0317  0.1343  0.1966
 4659W        W20468  13.899  11.326  14.341  0.1683  0.0096  0.2150
 4660W        W20469  15.260   4.358   2.361 -0.1635 -0.0628  0.0659
 4661W        W20470   0.166   7.620   3.815  0.0829  0.1600  0.0056
 4662W        W20471   4.894  11.166   3.688  0.0258  0.0475 -0.1905
 4663W        W20472  13.189  17.546  12.732 -0.2933  0.1232  0.0308
 4664W        W20473   6.728  13.703  13.097 -0.1193 -0.2250  0.1629
 4665W        W20474   9.912   2.426   2.896  0.1164 -0.2793  0.2574
 4666W        W20475  11.870   1.873   2.961  0.0359 -0.1731  0.2058
 4667W        W20476   9.364   5.896   2.946  0.1253 -0.4958 -0.2323
 4668W        W20477  11.272   9.741   0.277 -0.0021  0.0450  0.3624
 4669W        W20478  15.812   4.400  13.942  0.0636 -0.1864 -0.1634
 4670W        W20479  12.598   3.299  16.757  0.1374 -0.0552  0.0502
 4671W        W20480   6.411  12.310  15.586 -0.2779 -0.0817  0.4098
 4672W        W20481   5.388  14.845  13.054  0.0749 -0.0926  0.2212
 4673W        W20482  16.423   3.062  14.912  0.0203 -0.3366 -0.0532
 4674W        W20483  15.886   7.780  12.990 -0.0752 -0.0991  0.2009
 4675W        W20484   1.190  14.740   3.062 -0.0088  0.0262 -0.1045
 4676W        W20485  14.024  11.494   3.039 -0.0018 -0.1142  0.1026
 4677W        W20486  16.610   8.617   2.427  0.1690 -0.0074  0.0134
 4678W        W20487  17.117   5.064   6.091 -0.1065 -0.1602  0.0580
 4679W        W20488   3.186   6.100   1.557  0.0362 -0.0632  0.2867
 4680W        W20489   5.445  17.682   1.318  0.1198 -0.0539  0.0378
 4681W        W20490   4.447  16.521  15.829  0.0928 -0.1474  0.0774
 4682W        W20491   5.243  12.742   6.029  0.1434  0.2107 -0.3709
 4683W        W20492  16.565  13.121  12.079 -0.2492 -0.1076  0.0384
 4684W        W20493   8.670   0.033  13.362  0.2693  0.1382  0.3491
 4685W        W20494   3.956   8.150   3.973  0.0247  0.1277 -0.0274
 4686W        W20495  15.832   6.938  13.871  0.1590 -0.3398 -0.3711
 4687W        W20496  16.111   2.689   1.422  0.1621  0.1239  0.0841
 4688W        W20497   9.381   8.875  14.383 -0.0995 -0.0152 -0.0412
 4689W        W20498  12.864  17.056   0.503 -0.1000  0.1474 -0.0988
 4690W        W20499  15.130   8.894   0.538 -0.1780  0.1061  0.0577
 4691W        W20500   2.045   5.863  14.606  0.0371 -0.2287 -0.0926
 4692W        W20501  16.119   9.854   4.639 -0.0171  0.2351 -0.0839
 4693W        W20502  17.267   2.472  15.883 -0.2167 -0.1731 -0.1522
 4694W        W20503  15.665   0.730   4.690 -0.0578 -0.0911  0.0197
 4695W        W20504   1.485  16.696  16.124  0.4562 -0.0120 -0.4520
 4696W        W20505  16.558   0.524   4.338 -0.0166  0.2089  0.0346
 4697W        W20506   4.308   6.871   1.008 -0.0388  0.2196  0.0397
 4698W        W20507  14.328  14.815   3.110 -0.1945  0.2998 -0.1262
 4699W        W20508   1.638   1.913  13.129 -0.1586  0.0294  0.1231
 4700W        W20509   2.228   5.553  15.371  0.1148  0.0824  0.0988
 4701W        W20510   5.266   1.981   1.925 -0.2964  0.1114  0.1700
 4702W        W20511  12.746   6.457  14.133  0.0940 -0.2370  0.1129
 4703W        W20512   0.589   6.690  15.909  0.2983  0.1067  0.4196
 4704W        W20513  17.607  16.943   0.805  0.0223  0.1150  0.0192
 4705W        W20514   3.006   5.737   4.271  0.1052 -0.1975  0.1407
 4706W        W20515   4.515   2.992  15.491  0.1267 -0.0111 -0.3305
 4707W        W20516  17.149  10.641   3.132  0.0119 -0.0189 -0.1187
 4708W        W20517  14.907   9.905   6.146  0.2927 -0.0321 -0.1223
 4709W        W20518   6.655   4.118  15.902  0.0732  0.1610  0.2055
 4710W        W20519   4.553  17.668  13.663 -0.1570  0.2721 -0.0835
 4711W        W20520   2.464   7.139  16.613  0.0208  0.0090  0.2641
 4712W        W20521  15.307   5.816   1.879 -0.1922 -0.1826  0.2574
 4713W        W20522   9.592  17.132   3.186  0.4550 -0.1935 -0.0470
 4714W        W20523   1.557  14.916  14.072  0.1236 -0.1241  0.0136
 4715W        W20524   6.433  17.593   5.712 -0.0295  0.0326 -0.4376
 4716W        W20525   8.332  11.719   0.801 -0.5813  0.3197 -0.0722
 4717W        W20526  16.172  17.687   5.069 -0.1859 -0.3069 -0.2749
 4718W        W20527   5.875   3.977  16.618 -0.1534  0.0398  0.0746
 4719W        W20528  12.304  12.359  13.412  0.2272 -0.2576  0.0572
 4720W        W20529   9.464   9.993  14.206  0.2558  0.1559  0.2077
 4721W        W20530  13.356  11.353   1.869  0.1765 -0.1195  0.0989
 4722W        W20531   2.600   9.033   4.243 -0.2076  0.1904 -0.0136
 4723W        W20532  14.301   8.835   5.335 -0.0663 -0.2249  0.0881
 4724W        W20533   4.718   6.405  13.467  0.1724  0.1302 -0.2309
 4725W        W20534  11.107   7.393  15.438  0.2213 -0.0673  0.3129
 4726W        W20535   3.221   7.625   0.644 -0.4442  0.0470 -0.0371
 4727W        W20536   6.423   4.581  16.446 -0.2017  0.0438 -0.2304
 4728W        W20537   1.215   0.269  14.165 -0.1208  0.3725 -0.0485
 4729W        W20538   4.559   3.108  13.533 -0.1178 -0.0193  0.2531
 4730W        W20539  12.367   5.180  14.664  0.1712  0.0231 -0.1314
 4731W        W20540  11.593   6.820   2.399  0.0601  0.0587  0.2995
 4732W        W20541   8.856   5.699  13.115 -0.3317  0.0270 -0.1053
 4733W        W20542   4.164   5.356   0.302 -0.1046  0.0588 -0.0499
 4734W        W20543   0.509   2.564  15.718 -0.0339  0.0316  0.0584
 4735W        W20544  12.154   8.561   1.275  0.0514 -0.1807  0.1353
 4736W        W20545  12.220   2.544   4.611  0.1188  0.0365 -0.0988
 4737W        W20546   3.384   1.140   4.757  0.0520 -0.0270  0.0753
 4738W        W20547   4.664  11.489  11.513  0.2128 -0.4524  0.1386
 4739W        W20548   5.743   2.672  11.198 -0.1130  0.1411 -0.1874
 4740W        W20549  13.718   6.136   4.069  0.1603 -0.1344 -0.2464
 4741W        W20550   2.308  17.107  13.144 -0.0402  0.0681 -0.0446
 4742W        W20551  12.900  11.773   2.372 -0.1761  0.3762 -0.1399
 4743W        W20552  14.328  13.987  14.618 -0.2121  0.0216  0.1945
 4744W        W20553  15.421  14.235  14.129 -0.2318  0.0184  0.0471
 4745W        W20554   6.219   4.057   4.573  0.0727 -0.0869 -0.1387
 4746W        W20555  16.695   9.645  16.595 -0.0031  0.0622 -0.0349
 4747W        W20556   2.030   6.446   3.884 -0.1304  0.2541 -0.2821
 4748W        W20557  16.062   5.414   5.757  0.0901 -0.1549  0.2525
 4749W        W20558  17.063   1.719   4.268  0.1451  0.0070  0.1001
 4750W        W20559  13.076  15.303   5.465 -0.1979  0.2174 -0.0499
 4751W        W20560  12.785   1.706  11.569  0.1142  0.0117 -0.0845
 4752W        W20561   8.898   3.176  16.527  0.3173 -0.3842 -0.1534
 4753W        W20562   2.370   5.234   0.039  0.0245  0.3546 -0.0910
 4754W        W20563  11.758  13.305  15.822 -0.2506  0.0681  0.1021
 4755W        W20564  11.971  12.299   1.730 -0.1202  0.0368  0.1466
 4756W        W20565   7.920   5.458  16.047  0.0086  0.0004 -0.0620
 4757W        W20566  10.871  16.167  12.196 -0.1912 -0.2585 -0.5055
 4758W        W20567   2.009   4.009  13.699 -0.1458 -0.0563 -0.1874
 4759W        W20568  14.131  11.678  16.141  0.1163 -0.0198  0.2259
 4760W        W20569   5.120   0.637   1.809  0.0607 -0.3831 -0.0909
 4761W        W20570   1.243   6.099   3.895 -0.0300 -0.1981  0.1164
 4762W        W20571  13.037   3.341  13.207 -0.0508 -0.0291  0.1560
 4763W        W20572   8.822   6.061   1.042  0.0579 -0.1514 -0.3841
 4764W        W20573   9.742   4.843   4.340  0.0885  0.1351 -0.1200
 4765W        W20574  14.580   7.302  12.549  0.1710 -0.0159 -0.1393
 4766W        W20575   8.490   1.977  11.613 -0.0306 -0.0307  0.0461
 4767W        W20576  16.504  14.221  15.609 -0.0344 -0.1603  0.0826
 4768W        W20577  16.210  16.964  11.797 -0.3568 -0.1355  0.1334
 4769W        W20578  15.053  16.459  16.949  0.1317 -0.2144 -0.2727
 4770W        W20579   2.858   1.956   6.245  0.2832 -0.1093  0.2050
 4771W        W20580  12.672   5.130   3.854  0.2560  0.3678  0.0180
 4772W        W20581  12.477  16.393  11.017  0.0082  0.1844 -0.3242
 4773W        W20582  14.827   7.056  11.694  0.0124 -0.2050  0.0448
 4774W        W20583  14.202   9.222  15.573 -0.0671 -0.2766  0.0318
 4775W        W20584   8.566   1.337  15.740 -0.0945  0.3542  0.0201
 4776W        W20585   1.271   9.403  14.339  0.2005 -0.1287  0.0199
 4777W        W20586   3.289   9.104   2.266  0.1598  0.2438 -0.1059
 4778W        W20587  16.268   4.370  14.150  0.0766 -0.2617  0.2584
 4779W        W20588   2.427   4.306  16.392  0.0444 -0.0684  0.2637
 4780W        W20589  15.388   8.653  12.113  0.0259 -0.2054 -0.1931
 4781W        W20590   2.119  10.464  16.137 -0.1713 -0.1411 -0.1218
 4782W        W20591   0.140  12.349  12.680 -0.1662 -0.1560 -0.1807
 4783W        W20592  15.948  13.826   5.436 -0.0396  0.2134  0.0742
 4784W        W20593  12.370  10.274  15.857 -0.1032  0.0854  0.0773
 4785W        W20594  13.665  13.197  16.339  0.0912  0.2352  0.2186
 4786W        W20595   3.075   1.700   5.469  0.1348 -0.3189  0.1481
 4787W        W20596   2.243  14.721  16.611  0.0344 -0.2378  0.0581
 4788W        W20597   3.522  10.799   5.486  0.0210  0.0604  0.1506
 4789W        W20598   8.840  16.224  15.409  0.1900 -0.0293  0.0617
 4790W        W20599   9.813   1.487  16.687  0.0363  0.0591  0.0263
 4791W        W20600  14.006   6.208   0.645  0.1353 -0.1038  0.0353
 4792W        W20601   7.814   6.525  15.959  0.1187 -0.0404 -0.2417
 4793W        W20602  11.439   6.650   1.125 -0.1249  0.0774  0.0677
 4794W        W20603  11.776  17.250  12.048 -0.2183 -0.1323  0.1666
 4795W        W20604   4.257   0.084   3.638  0.3048  0.1726  0.1241
 4796W        W20605   8.336   8.853  12.515  0.1496 -0.2443  0.0615
 4797W        W20606   7.635  15.235   4.071  0.2258  0.1262  0.2593
 4798W        W20607   0.697  15.072  16.484  0.0228 -0.3704  0.2684
 4799W        W20608   7.308  10.118   0.385 -0.0779  0.2864  0.0238
 4800W        W20609   1.008  14.352  12.581 -0.1072 -0.1426 -0.1412
 4801W        W20610  12.644  15.584  15.978  0.0449  0.0102 -0.2931
 4802W        W20611   2.681   6.560   4.648 -0.0128  0.0788  0.3027
 4803W        W20612   2.532   3.050  14.926  0.4549 -0.3003 -0.3801
 4804W        W20613   6.574   6.580   5.185  0.2456  0.0124 -0.1129
 4805W        W20614   9.224   0.723  13.679  0.3433 -0.1357  0.0602
 4806W        W20615   8.727   8.564   4.185  0.2122  0.0443  0.1742
 4807W        W20616   0.088   6.412   2.538 -0.1691 -0.1158  0.3125
 4808W        W20617  16.770   0.995  12.279 -0.0122 -0.1810  0.0614
 4809W        W20618   5.751   2.566  11.761  0.2299  0.0938 -0.0513
 4810W        W20619   6.080  14.123   1.533  0.2035  0.0520  0.1963
 4811W        W20620   2.467   4.966   0.558 -0.1876 -0.0305  0.1558
 4812W        W20621  17.648   9.815   3.401  0.0762 -0.1152  0.1488
 4813W        W20622   7.382   3.723   2.185  0.0104  0.2269 -0.2138
 4814W        W20623  14.697  16.440   4.398 -0.3351 -0.1819  0.0951
 4815W        W20624   4.671  10.339  16.315 -0.2939 -0.0305  0.1630
 4816W        W20625  10.597   9.153   2.798 -0.0361 -0.0660 -0.0043
 4817W        W20626   1.066   2.433   5.030 -0.3999 -0.3810  0.0383
 4818W        W20627  10.553  10.685  14.080  0.3466 -0.1271  0.0723
 4819W        W20628   4.474  14.684  11.094  0.0170  0.2586 -0.0396
 4820W        W20629  16.379   2.652   0.586 -0.0707  0.0153 -0.1429
 4821W        W20630  12.452   4.594   5.318  0.1597 -0.0361  0.2782
 4822W        W20631   3.761   3.853  16.044 -0.3927  0.1194  0.2169
 4823W        W20632   6.706   1.222   6.089  0.1972 -0.1351  0.0691
 4824W        W20633   4.996  17.225   4.441 -0.2442  0.1209  0.0531
 4825W        W20634   5.146  13.522  15.170 -0.3060  0.4757 -0.0698
 4826W        W20635   1.265  14.469   1.948  0.2803  0.1736  0.0415
 4827W        W20636  12.165   4.198   0.199  0.1403  0.1046 -0.0008
 4828W        W20637  13.078  13.900   1.490 -0.4303 -0.0674 -0.3892
 4829W        W20638   5.056   7.162   1.114  0.4504 -0.2662 -0.1127
 4830W        W20639  16.995   3.894  13.487 -0.0070  0.1497 -0.1444
 4831W        W20640  10.850  17.639  11.869 -0.0441 -0.0466  0.2336
 4832W        W20641  10.572  15.279  13.103  0.0649  0.0628 -0.0093
 4833W        W20642   9.638   3.737   0.900 -0.0271  0.1497  0.0036
 4834W        W20643   9.108   4.609   3.044 -0.1847  0.1703  0.0026
 4835W        W20644   0.312  10.714  12.153 -0.0744 -0.3195 -0.0306
 4836W        W20645   2.339  16.730   3.527 -0.0386 -0.0255 -0.0455
 4837W        W20646  17.153  11.819  16.486 -0.1827  0.0837  0.1388
 4838W        W20647   0.315   7.134  13.302  0.2545 -0.3999 -0.1917
 4839W        W20648   1.853  11.263   2.472 -0.0068  0.1660  0.0587
 4840W        W20649   4.899   0.833   2.538  0.1114  0.1277 -0.4381
 4841W        W20650  15.235   9.615  16.742 -0.3765 -0.2395 -0.1790
 4842W        W20651   9.608  10.220  12.408  0.2962  0.4681 -0.1327
 4843W        W20652   1.313  10.798  12.097 -0.4700 -0.0860 -0.1737
 4844W        W20653  11.821   1.549   1.716  0.1460  0.2063 -0.1272
 4845W        W20654   7.774   0.999   3.577  0.1510 -0.2090 -0.1447
 4846W        W20655  14.439   5.670  12.644  0.1186  0.2326 -0.1052
 4847W        W20656   9.250  17.575   0.200 -0.2127  0.1662 -0.0274
 4848W        W20657  12.354   8.330   0.905  0.2214 -0.0596  0.0832
 4849W        W20658   3.454   1.414   0.767  0.0247 -0.0319 -0.1705
 4850W        W20659  16.915   5.268   3.083  0.3064 -0.1452 -0.0409
 4851W        W20660  17.693   8.091   1.140 -0.0113  0.1142 -0.1596
 4852W        W20661  16.246  15.379   5.455 -0.1832 -0.0721  0.1527
 4853W        W20662   5.725  16.731  12.179 -0.0009  0.0199 -0.1848
 4854W        W20663  11.819  16.898   5.989  0.1069 -0.0887  0.0205
 4855W        W20664  17.313   3.391  14.926  0.1415  0.2979 -0.0684
 4856W        W20665   9.973  13.614  12.848 -0.1292  0.0652 -0.3364
 4857W        W20666  11.915  10.887   4.364  0.1356  0.0834  0.0688
 4858W        W20667  14.021  11.538   2.166 -0.1937  0.0551  0.3150
 4859W        W20668  15.941  17.110  12.535 -0.0654  0.2671 -0.2158
 4860W        W20669   8.398  12.673   3.672 -0.1401 -0.2393 -0.1946
 4861W        W20670   6.418  16.741  12.307  0.0264  0.3110  0.1253
 4862W        W20671  13.240  13.140  16.985  0.3276 -0.0911 -0.2131
 4863W        W20672  15.929  12.875  11.813 -0.0011 -0.1479  0.1993
 4864W        W20673   9.830  13.182  16.588  0.0918 -0.2094 -0.0924
 4865W        W20674  10.748  13.256   1.428  0.1173  0.2519 -0.0586
 4866W        W20675   3.852  15.685   0.977  0.1578  0.1585  0.0157
 4867W        W20676  16.087  14.743   1.764 -0.1184 -0.1110 -0.1525
 4868W        W20677   0.770   6.013   4.102  0.0056  0.0986  0.1604
 4869W        W20678   8.619  14.987  15.970 -0.3696  0.0736  0.0151
 4870W        W20679   9.061  11.556  12.056 -0.0855 -0.0050 -0.1093
 4871W        W20680   2.156  12.071  13.065  0.1579 -0.0587 -0.1040
 4872W        W20681  17.056   8.317  12.700  0.0223 -0.1222  0.0916
 4873W        W20682   8.031   3.435  13.167 -0.0245  0.4074  0.0739
 4874W        W20683   6.097   4.556   6.191 -0.1263 -0.0338  0.3176
 4875W        W20684   3.416  11.922   2.779  0.2268  0.0180  0.0540
 4876W        W20685  12.082  17.730  14.749 -0.1961 -0.0611 -0.1034
 4877W        W20686  11.935   1.820  13.073 -0.0648  0.1036  0.1246
 4878W        W20687  15.522   1.450   5.553 -0.2248 -0.3142  0.1438
 4879W        W20688   7.848  11.651  12.237  0.0647 -0.0469  0.2175
 4880W        W20689   1.250   7.775  16.514 -0.0691 -0.0065  0.0933
 4881W        W20690  13.546   6.814   0.086 -0.1204  0.0285  0.0693
 4882W        W20691   0.182  14.522  15.530  0.0124 -0.1033 -0.2238
 4883W        W20692   6.930  16.708   3.064 -0.2304 -0.1476  0.0496
 4884W        W20693   3.319  13.680  14.440  0.0997 -0.1348 -0.0902
 4885W        W20694  15.832   3.753   1.347 -0.1174  0.3932 -0.1048
 4886W        W20695   9.043  16.795   0.276 -0.1905  0.0186  0.0171
 4887W        W20696  14.205   0.026   2.694 -0.2880 -0.5241  0.2324
 4888W        W20697   5.328  10.336  13.435 -0.0611  0.0737  0.2305
 4889W        W20698  15.588   4.844   0.415 -0.0433 -0.1571 -0.1090
 4890W        W20699   3.195  14.287   1.062 -0.0384 -0.1352 -0.1006
 4891W        W20700  16.776   5.007   2.625  0.0571 -0.2063 -0.2579
 4892W        W20701   8.902   4.089   3.079 -0.1657 -0.0330 -0.3803
 4893W        W20702  15.000   0.932  15.663 -0.0866 -0.0329 -0.0015
 4894W        W20703  12.644  15.331   2.638  0.0113 -0.0039 -0.0951
 4895W        W20704  11.204   9.640  15.580 -0.2218  0.0693 -0.0331
 4896W        W20705   6.212   1.551   3.292  0.0906 -0.1444  0.1843
 4897W        W20706  14.038   1.670  13.507 -0.0635  0.3066 -0.2310
 4898W        W20707   7.438  10.496   4.729 -0.0453 -0.1101  0.1066
 4899W        W20708  16.443   1.578   5.400 -0.2060 -0.0284 -0.1557
 4900W        W20709   7.021   5.014   1.352  0.3741  0.0331  0.0007
 4901W        W20710   2.094  17.452  13.486 -0.2305 -0.0848 -0.1249
 4902W        W20711   3.484   7.065  12.984 -0.0174 -0.1994  0.0474
 4903W        W20712   7.620   4.260  12.393  0.0367 -0.0326 -0.1974
 4904W        W20713  12.156  12.732  12.921  0.0680 -0.1456 -0.1794
 4905W        W20714   4.623   1.853   6.503  0.3170  0.0731 -0.2139
 4906W        W20715   0.626   6.445   4.601 -0.2431  0.0436 -0.0008
 4907W        W20716   6.648   5.966  12.300 -0.3561  0.0947  0.1677
 4908W        W20717   8.354   1.083  12.326  0.1928  0.1141 -0.1394
 4909W        W20718  17.085   4.355  16.350 -0.1785  0.0535 -0.3191
 4910W        W20719   6.021   4.124  13.599 -0.0226  0.1021  0.0058
 4911W        W20720   4.123   4.862  12.602  0.2275 -0.0266 -0.2836
 4912W        W20721   5.379   2.857  13.190  0.0110 -0.1263 -0.0148
 4913W        W20722   0.086   1.227  11.767  0.1961  0.1075 -0.0420
 4914W        W20723  15.380   2.380  14.572  0.1326 -0.0241 -0.0554
 4915W        W20724  15.522   9.142   4.989  0.1018  0.1021 -0.2719
 4916W        W20725   4.872   5.506  13.338 -0.3381  0.1378 -0.4344
 4917W        W20726   6.480   3.902   4.084 -0.0843 -0.1537  0.3392
 4918W        W20727  10.573   2.840  12.325  0.3185  0.0774  0.0087
 4919W        W20728   0.964  14.881   1.947  0.1236  0.1813  0.0735
 4920W        W20729   4.165   7.324  11.822 -0.0770 -0.2096 -0.2228
 4921W        W20730   0.994  15.116  13.349 -0.5169  0.3611  0.0307
 4922W        W20731   9.536  15.718   4.217 -0.2268  0.3440 -0.0408
 4923W        W20732  13.375   4.642   1.975 -0.0235  0.0940  0.0416
 4924W        W20733   2.730   1.281  12.835 -0.2257  0.3582 -0.2077
 4925W        W20734   8.743   8.263   0.720  0.1105 -0.0195  0.1202
 4926W        W20735   2.945   4.593  11.789  0.2241 -0.0936  0.0976
 4927W        W20736   6.880   9.837  14.947 -0.2591  0.0185 -0.1497
 4928W        W20737   8.031   2.503   1.626 -0.0085 -0.3785 -0.0077
 4929W        W20738  12.088   5.472   2.828 -0.1060  0.1474 -0.2686
 4930W        W20739  11.248   0.389  16.335  0.0781 -0.3430  0.0042
 4931W        W20740   2.839   8.541   2.892 -0.0816  0.0083 -0.1588
 4932W        W20741   8.428   4.345  12.370 -0.0928  0.0917  0.0148
 4933W        W20742  12.326   0.658  12.395  0.0121  0.1378  0.1591
 4934W        W20743  11.202   5.695  13.696 -0.0295 -0.2961  0.1399
 4935W        W20744   6.622   8.354  15.497  0.1539 -0.0393 -0.2337
 4936W        W20745   2.203  16.667  15.440  0.2647 -0.0488 -0.0944
 4937W        W20746   0.497   0.387   0.207  0.0654  0.1339  0.1442
 4938W        W20747  14.683   6.002   0.740 -0.0706 -0.3354  0.2644
 4939W        W20748   3.482  15.130  16.098  0.0034  0.0861  0.0205
 4940W        W20749   5.256  15.448  13.251 -0.0459 -0.0653 -0.3615
 4941W        W20750  14.705  13.380   4.753 -0.1736  0.2929  0.1235
 4942W        W20751   9.192   6.007  16.261 -0.1041  0.0836  0.1160
 4943W        W20752   1.254  13.387  12.275  0.2826 -0.0737 -0.1270
 4944W        W20753   4.427  15.563   5.142  0.1115 -0.1970  0.1326
 4945W        W20754   1.204  14.080   0.788  0.1113 -0.0516  0.1168
 4946W        W20755   2.482   6.703  13.586  0.3300 -0.0053  0.2222
 4947W        W20756   8.044  12.440   0.864 -0.3193  0.1396  0.3551
 4948W        W20757  11.742   8.862   0.165  0.2296 -0.0788 -0.0389
 4949W        W20758   5.512   5.345   0.877 -0.1457  0.1244 -0.0120
 4950W        W20759   1.294  16.607  14.680 -0.1716 -0.2628 -0.1532
 4951W        W20760   7.401   0.533   5.858 -0.1953  0.0713 -0.2122
 4952W        W20761   2.713   8.782  12.032  0.2783 -0.0498 -0.1672
 4953W        W20762  17.532  10.000  14.931  0.0739 -0.2550  0.1156
 4954W        W20763  12.428   4.390   1.565 -0.0633 -0.0590 -0.0517
 4955W        W20764  16.669   2.838   1.008 -0.0763 -0.2859 -0.2375
 4956W        W20765   8.277  10.391   1.011  0.2470 -0.2220 -0.1114
 4957W        W20766  13.876   6.132   1.498  0.2953 -0.4410 -0.2795
 4958W        W20767  13.568   4.011   3.659 -0.0065  0.1226 -0.1578
 4959W        W20768   8.131   2.644  15.883 -0.0158 -0.0526 -0.1402
 4960W        W20769   2.179   7.795   2.697  0.0410 -0.1397 -0.1705
 4961W        W20770   4.676   3.034  16.008 -0.1930 -0.0581  0.0141
 4962W        W20771  11.168  11.943  11.928 -0.0987  0.1159  0.2213
 4963W        W20772  13.852   6.430  15.083 -0.1979 -0.0897 -0.0293
 4964W        W20773  14.456   6.977   6.514 -0.0385 -0.0494  0.1859
 4965W        W20774   7.206  13.177  14.862 -0.0030 -0.2074  0.0953
 4966W        W20775  10.028   2.944  14.055 -0.1746  0.0662 -0.0837
 4967W        W20776   4.709   3.097   2.396  0.0445 -0.1203 -0.0431
 4968W        W20777   5.006  13.367  16.474 -0.0598 -0.1711 -0.0709
 4969W        W20778  12.764   6.103  16.244 -0.0971  0.2645 -0.1906
 4970W        W20779   9.768   4.584  13.240  0.1350  0.2469  0.2146
 4971W        W20780   0.754   0.005  10.623  0.1434 -0.2925 -0.0530
 4972W        W20781   7.378   0.862  12.466 -0.0532 -0.0271 -0.1262
 4973W        W20782   7.255  12.733   3.511 -0.1740  0.3264 -0.0603
 4974W        W20783   0.756  14.755   3.524  0.0268  0.0858 -0.2138
 4975W        W20784  12.065  16.970  14.913 -0.0686 -0.0651 -0.0666
 4976W        W20785  14.566   3.853   2.421 -0.1182  0.1539  0.0902
 4977W        W20786  16.537   9.106  14.314  0.0345  0.0330  0.0048
 4978W        W20787   7.228   1.939  16.321 -0.0509  0.2625 -0.0779
 4979W        W20788  11.177  15.459   1.586 -0.1503  0.0650  0.0575
 4980W        W20789   0.481  16.545   1.384 -0.1431 -0.1522 -0.0340
 4981W        W20790   7.873   2.738  11.808  0.1727  0.2244 -0.2027
 4982W        W20791   5.058   3.457   4.470 -0.0889 -0.0582 -0.2733
 4983W        W20792  11.045   9.573   5.294 -0.4713 -0.0246 -0.0080
 4984W        W20793   6.250   9.328   1.799  0.1449 -0.1137  0.3044
 4985W        W20794  10.888  15.905  14.138 -0.3124 -0.0844  0.0851
 4986W        W20795   8.705  15.489  15.969 -0.1055  0.0348 -0.0728
 4987W        W20796  16.388  17.619  12.049  0.0682  0.2380 -0.1735
 4988W        W20797  17.157   3.780   0.943 -0.1233  0.0182 -0.0498
 4989W        W20798   2.089  16.846   5.030  0.3183 -0.1794  0.0722
 4990W        W20799   1.012   8.443  13.393 -0.0662 -0.2731 -0.0976
 4991W        W20800  15.276   2.853  15.485 -0.1635  0.1015 -0.2152
 4992W        W20801  14.282  14.530  16.123  0.0610 -0.0507 -0.1813
 4993W        W20802   4.276  10.892   5.204 -0.0491  0.0791  0.0523
 4994W        W20803  12.122   8.791   4.710  0.1554  0.3988 -0.3397
 4995W        W20804  16.871   1.930  13.026  0.0260 -0.2099 -0.0612
 4996W        W20805   1.052   8.737  16.743 -0.2111 -0.2911  0.0706
 4997W        W20806  14.781   0.885   4.843  0.0671 -0.1997  0.0060
 4998W        W20807   0.333  16.995  12.534  0.3404  0.3340  0.1192
 4999W        W20808   9.356   8.591  13.479  0.4880  0.0206  0.1141
 5000W        W20809   8.816  13.260   0.454  0.0926 -0.1333 -0.1141
 5001W        W20810   6.519   4.974   2.342 -0.1543 -0.1040 -0.2804
 5002W        W20811  11.311  17.429   1.408  0.1111 -0.0079  0.1592
 5003W        W20812   8.106  13.060   3.423 -0.1821 -0.0964 -0.0269
 5004W        W20813   6.426   0.789   2.579 -0.0533  0.0191  0.1141
 5005W        W20814  14.503  15.060   1.785  0.3274  0.0395 -0.1799
 5006W        W20815   5.901   9.032   2.104 -0.1709 -0.2615  0.1719
 5007W        W20816  13.585   5.526  14.721 -0.0576  0.2785 -0.1658
 5008W        W20817  15.916  11.342   2.010  0.0150  0.1019  0.3187
 5009W        W20818   1.461   5.461   3.109  0.4829  0.1269  0.4470
 5010W        W20819  11.097  12.645  12.833 -0.2101  0.0029 -0.3640
 5011W        W20820   6.759   1.573   0.958  0.0496  0.0211 -0.0494
 5012W        W20821   2.093  17.665  11.907 -0.2187 -0.0629  0.0119
 5013W        W20822   9.696  11.864  16.353  0.0345 -0.0336 -0.1077
 5014W        W20823   1.721  16.851   4.653 -0.1378  0.0690 -0.0582
 5015W        W20824  15.653   8.693  15.825  0.2911 -0.0902 -0.2449
 5016W        W20825   2.454   1.742   5.888  0.1744  0.1576 -0.0422
 5017W        W20826   0.286   9.317   3.312  0.1667  0.1257  0.0846
 5018W        W20827  12.123  13.646  13.175 -0.1745  0.0493  0.2169
 5019W        W20828  17.657   7.204   4.810  0.2243 -0.1103  0.1853
 5020W        W20829   6.827  13.632  12.562  0.0211 -0.0886  0.1480
 5021W        W20830  10.751  16.105   1.459 -0.0073  0.3125 -0.3252
 5022W        W20831   9.033  14.105  16.189  0.0507  0.0761 -0.0670
 5023W        W20832   0.075  13.316  12.713 -0.0615  0.1542  0.1187
 5024W        W20833  13.756  17.583  15.371 -0.2789  0.0437 -0.1968
 5025W        W20834  11.724   9.266   1.818 -0.1632 -0.0179 -0.0515
 5026W        W20835   2.128  13.870   5.614  0.0006  0.2066  0.1303
 5027W        W20836   0.908   5.718  16.972  0.1350  0.1795 -0.0712
 5028W        W20837   6.721   7.367  12.438  0.1555 -0.0877  0.1431
 5029W        W20838   8.483  17.163  14.977 -0.1660 -0.1133  0.1333
 5030W        W20839   8.375   2.844  13.797 -0.1086  0.3653 -0.2051
 5031W        W20840   8.251   0.734   1.116  0.0388  0.1330 -0.1008
 5032W        W20841   8.338   9.202  14.523 -0.0467 -0.0032 -0.0715
 5033W        W20842   1.496   0.251   3.247 -0.0506  0.1761  0.0277
 5034W        W20843  17.655  15.276  13.547 -0.1258 -0.0808  0.0113
 5035W        W20844   3.951  13.131   1.021 -0.1155  0.3707 -0.0278
 5036W        W20845   3.106  12.573   6.271  0.0577 -0.3068 -0.1839
 5037W        W20846   8.585   9.097   0.071  0.0546  0.0082 -0.0459
 5038W        W20847  12.459   7.419   4.196  0.0038 -0.0567  0.1617
 5039W        W20848   5.538   9.389   1.685  0.1752  0.0855 -0.1559
 5040W        W20849  12.038  11.578  15.146 -0.0527 -0.0022  0.2184
 5041W        W20850   7.016   0.793   3.263  0.2165 -0.0404  0.1486
 5042W        W20851  17.109   1.817  14.850 -0.0002  0.0163  0.2530
 5043W        W20852   9.317  16.739  16.060  0.0177  0.3333 -0.0163
 5044W        W20853   4.245   1.621  16.007 -0.1174 -0.0603 -0.2774
 5045W        W20854   4.915   9.135  12.413 -0.1187 -0.0002  0.0452
 5046W        W20855  14.122  11.742  11.097 -0.0686 -0.1792 -0.0460
 5047W        W20856   7.365   7.447   5.868  0.0994  0.2542  0.2721
 5048W        W20857   4.176  15.822  15.095 -0.0370 -0.2133 -0.1720
 5049W        W20858  12.312  17.302   3.345  0.0394 -0.0456  0.1941
 5050W        W20859  15.091  12.975  14.326  0.1684  0.1302 -0.6020
 5051W        W20860  10.229  16.449   2.607 -0.1070  0.1305 -0.4023
 5052W        W20861   0.094  16.439  13.019  0.2637  0.1837  0.2824
 5053W        W20862   7.927   2.971   4.944 -0.2919 -0.1204 -0.2066
 5054W        W20863  10.814   4.895  14.401 -0.2091 -0.0540  0.0885
 5055W        W20864  14.009   8.146   5.957 -0.0059 -0.0908 -0.1734
 5056W        W20865   9.257  14.268   4.002  0.0145 -0.3153  0.2773
 5057W        W20866   6.522   5.272   4.713  0.1658 -0.0554  0.0846
 5058W        W20867   6.864   6.135   3.401 -0.0228 -0.0803 -0.2152
 5059W        W20868  13.035  11.524  13.887 -0.0594 -0.1656  0.1143
 5060W        W20869   1.010   8.624  15.784 -0.0677 -0.0431  0.2307
 5061W        W20870  16.164  14.688  12.134  0.3971 -0.0879  0.2003
 5062W        W20871  13.742  16.633  15.592 -0.0710 -0.0411  0.3731
 5063W        W20872  13.440   7.996   3.814  0.0489  0.0190 -0.0157
 5064W        W20873  15.372   6.717  16.398  0.2170  0.2302  0.0191
 5065W        W20874  11.208  13.526  14.744  0.2493 -0.1657 -0.1356
 5066W        W20875  15.932   2.216   1.362  0.0581  0.1386  0.0220
 5067W        W20876  12.502  12.752   0.111 -0.1661 -0.0073  0.2287
 5068W        W20877  17.509   8.189   2.188 -0.3255  0.2004 -0.1312
 5069W        W20878   4.752  10.515   1.082  0.0510  0.1407  0.3210
 5070W        W20879  10.805   0.235  14.715  0.1576 -0.0423 -0.2660
 5071W        W20880  16.605   8.198  14.157 -0.2135  0.0741  0.0757
 5072W        W20881   1.753  13.109  12.378  0.2138  0.0750  0.0352
 5073W        W20882  11.902   0.837  11.200 -0.3632  0.2267  0.2735
 5074W        W20883  15.337   3.739  16.709 -0.1167 -0.2183  0.1971
 5075W        W20884   4.496  13.033   2.662 -0.0342  0.2125 -0.0414
 5076W        W20885  16.300  12.904   2.905 -0.0102  0.0495  0.0528
 5077W        W20886   2.247   4.544   3.865 -0.2166  0.1870  0.2134
 5078W        W20887   4.735  16.811  13.631  0.0380  0.0508  0.2547
 5079W        W20888   1.286  14.599  16.478  0.2038 -0.0936 -0.2356
 5080W        W20889  12.705  13.745  12.199  0.0510 -0.3127  0.0446
 5081W        W20890  13.671  17.382   4.453  0.0057 -0.1467 -0.0023
 5082W        W20891   2.900  10.989  16.601  0.3891 -0.0138 -0.1209
 5083W        W20892  12.648  16.026  15.505 -0.3748  0.0893 -0.0023
 5084W        W20893   6.278  14.900   4.152  0.0333  0.0131  0.1574
 5085W        W20894   5.672   9.128  13.346  0.2474 -0.0910  0.1505
 5086W        W20895   1.385   0.383   2.728 -0.0491 -0.1829  0.2045
 5087W        W20896   5.946  11.353   4.357 -0.0832 -0.1570 -0.1428
 5088W        W20897  14.632   3.931   5.057  0.2015 -0.2772 -0.2226
 5089W        W20898  12.840  17.660   1.647 -0.0050  0.4370  0.1149
 5090W        W20899   2.540   7.186   1.077 -0.0743  0.3821 -0.0950
 5091W        W20900  11.280   2.150   4.900 -0.2796  0.0133 -0.0785
 5092W        W20901   0.923  13.075   1.700  0.0529 -0.2267  0.1536
 5093W        W20902   2.129  13.442   2.768 -0.1286  0.1632 -0.0288
 5094W        W20903   4.800   1.756  16.870 -0.1384 -0.1203 -0.1785
 5095W        W20904   9.630   0.377  13.700 -0.0830  0.0524 -0.0434
 5096W        W20905  12.911  12.819   4.685 -0.4610 -0.1258 -0.3316
 5097W        W20906   1.801  10.558  11.828 -0.2500 -0.2959  0.1356
 5098W        W20907   6.552  15.642   3.075  0.0747  0.0349  0.1989
 5099W        W20908  10.039  13.594   4.304  0.0172 -0.0605  0.0412
 5100W        W20909   4.401  14.806  14.171 -0.1898 -0.1514  0.2862
 5101W        W20910   6.357  14.299  14.862 -0.0685 -0.2307 -0.1210
 5102W        W20911  14.007   3.485  13.534  0.0139  0.0208  0.1696
 5103W        W20912  12.328  16.043  15.901 -0.2708  0.0696 -0.1051
 5104W        W20913   8.691   6.225  12.343 -0.1222  0.2577  0.2379
 5105W        W20914   6.074  10.569  12.885  0.3345 -0.0231 -0.1067
 5106W        W20915   9.545  17.065   2.623 -0.0381 -0.1185 -0.1506
 5107W        W20916   1.541  10.605  10.820 -0.1067 -0.4108  0.0147
 5108W        W20917   1.178  14.000   3.717 -0.0242  0.2903 -0.1840
 5109W        W20918  16.026  13.935  13.449  0.2594 -0.1049 -0.1436
 5110W        W20919  16.344   9.939  11.361  0.0323  0.0313 -0.1667
 5111W        W20920   3.088  11.569  15.393  0.0318  0.0447  0.1058
 5112W        W20921   7.018   6.999   3.726  0.2530 -0.0727 -0.0738
 5113W        W20922  13.420   9.808  15.659 -0.3749 -0.0296  0.1296
 5114W        W20923   2.733   1.224   3.971  0.1967  0.2620  0.0588
 5115W        W20924  15.070   5.843   5.804  0.2973  0.0170  0.1877
 5116W        W20925   7.300   9.990  14.716 -0.3468 -0.2767  0.0274
 5117W        W20926  14.120  10.027   3.839  0.0983  0.2688 -0.0585
 5118W        W20927   0.025  11.258   4.697  0.1267  0.0124  0.2410
 5119W        W20928  14.059  17.598   3.688 -0.2411  0.0578  0.1485
 5120W        W20929   5.851  13.618  16.542 -0.1039  0.0248 -0.2388
 5121W        W20930  14.230  14.763  15.632 -0.0040  0.1783 -0.1062
 5122W        W20931   5.935  12.268   0.658 -0.2036 -0.1012 -0.2859
 5123W        W20932   1.686  15.838   1.930  0.1462 -0.0372 -0.2305
 5124W        W20933  12.743   2.083   5.518  0.0753 -0.0084 -0.1492
 5125W        W20934  14.845   3.788  15.396  0.1345  0.0231 -0.1272
 5126W        W20935   3.510   3.443  14.654 -0.2162  0.1759 -0.1550
 5127W        W20936   0.025   6.382   5.422  0.1911 -0.2339 -0.0205
 5128W        W20937  10.835  11.828  14.141  0.4234 -0.0045 -0.0579
 5129W        W20938   6.638  15.605   4.561 -0.1772  0.1265 -0.1320
 5130W        W20939   5.996   9.299   0.214 -0.3155 -0.1397  0.0287
 5131W        W20940   3.292  13.777  12.493  0.1447 -0.2921  0.1577
 5132W        W20941   5.749  11.655  13.461  0.3000 -0.1095 -0.1895
 5133W        W20942  13.606   9.194  16.974  0.1579 -0.0689  0.0696
 5134W        W20943  14.416  10.763  14.204  0.3329  0.0956 -0.0139
 5135W        W20944   1.193   3.911   3.331  0.0866  0.0125  0.2101
 5136W        W20945   0.673   4.506   0.299  0.2469 -0.0645  0.1067
 5137W        W20946   9.998  15.336   0.481 -0.1241 -0.0414  0.2105
 5138W        W20947   6.500  11.301   2.723 -0.1249 -0.2108  0.0240
 5139W        W20948   0.645  15.981  13.626 -0.0701 -0.0981 -0.2331
 5140W        W20949   5.885   3.484  16.846  0.0934 -0.2864  0.0682
 5141W        W20950   4.999   8.807  13.078  0.3336 -0.1559  0.0906
 5142W        W20951   8.396  15.665   4.512  0.1733 -0.0090 -0.2302
 5143W        W20952   7.107   7.136   5.422  0.0162 -0.1517  0.0640
 5144W        W20953  17.346  17.040  15.835 -0.0647  0.1321  0.0305
 5145W        W20954  15.359  12.555  16.415 -0.2098 -0.1289 -0.0189
 5146W        W20955   4.146  14.106  12.824 -0.2078 -0.0061 -0.0197
 5147W        W20956   2.609   6.074   0.807 -0.0956 -0.1561 -0.1952
 5148W        W20957  16.703   3.462  13.762  0.0075 -0.6054 -0.0337
 5149W        W20958  12.309   8.089   6.204 -0.2904  0.3749  0.1819
 5150W        W20959   1.793   8.306  12.997  0.1226 -0.2979  0.0168
 5151W        W20960   3.763  10.684   3.603  0.0512  0.0615 -0.0147
 5152W        W20961  10.960   3.587   2.550  0.0355 -0.1375 -0.1534
 5153W        W20962  10.255   1.150  16.611  0.2826 -0.0044  0.3543
 5154W        W20963   1.657  11.279  12.838 -0.1444  0.1826 -0.0385
 5155W        W20964   5.248   6.654  16.165 -0.3945  0.1410  0.0443
 5156W        W20965  10.571  16.396  11.288  0.0557  0.0408 -0.1313
 5157W        W20966   5.164   3.524   0.162  0.1474  0.2005  0.0902
 5158W        W20967   9.603  15.214   0.779  0.1469  0.2169 -0.1488
 5159W        W20968   7.834  16.113  12.153  0.0636 -0.0425  0.2165
 5160W        W20969  13.710  10.248  15.055  0.2430 -0.0556 -0.2238
 5161W        W20970   5.132   7.479   0.729 -0.3370 -0.1013 -0.0254
 5162W        W20971   7.276  10.369   3.792  0.1814 -0.3126 -0.0241
 5163W        W20972  11.614   8.168   4.209 -0.1209 -0.1004  0.2513
 5164W        W20973   1.631   8.081   1.927 -0.1206  0.2128  0.0955
 5165W        W20974  16.474   3.017   3.739  0.2690  0.0900 -0.2443
 5166W        W20975  15.183   9.880  14.536 -0.1657  0.0979 -0.1738
 5167W        W20976   4.146  13.314  15.490  0.2254  0.2001  0.1476
 5168W        W20977   1.812  14.384   2.846  0.2703 -0.2047 -0.1616
 5169W        W20978   4.918  17.222   0.378  0.0079  0.1111  0.1411
 5170W        W20979   6.210   6.845  12.375 -0.2556  0.0540 -0.3097
 5171W        W20980  10.385  11.231   4.259 -0.1854  0.2825  0.1802
 5172W        W20981  11.484  14.429  15.371 -0.0066 -0.0462  0.1441
 5173W        W20982   8.484  11.559  16.739 -0.0732 -0.0285 -0.4994
 5174W        W20983   8.440   4.970   2.342 -0.3213  0.1050  0.2109
 5175W        W20984  10.909   6.955   5.170 -0.0045  0.1825 -0.0189
 5176W        W20985   0.010  10.590  16.551  0.0822  0.1963 -0.1653
 5177W        W20986   6.174   6.903   5.129 -0.1207  0.1873 -0.0737
 5178W        W20987  14.579  16.890  11.897  0.2084  0.1294  0.0973
 5179W        W20988   7.620   6.447   5.195  0.2134  0.1084  0.0693
 5180W        W20989  15.249   1.808   2.995  0.1527 -0.0781 -0.0689
 5181W        W20990  17.702   6.388  15.187 -0.1172 -0.2076  0.0270
 5182W        W20991   0.573   6.869  14.565 -0.0820  0.1228  0.1305
 5183W        W20992   7.766  11.984  13.159 -0.1082 -0.2731  0.2920
 5184W        W20993   0.649  16.307  14.051  0.4691  0.0046 -0.0369
 5185W        W20994   2.867   5.307   2.024  0.4625 -0.2420 -0.0502
 5186W        W20995   5.258  11.043   4.840  0.2962 -0.2460  0.4827
 5187W        W20996  16.049   3.282   3.382  0.1453 -0.1675 -0.0374
 5188W        W20997   7.395  16.579  14.470 -0.1397  0.4081 -0.1456
 5189W        W20998   5.594   8.742  11.731  0.0321 -0.0364 -0.2055
 5190W        W20999  11.133   9.815  14.607  0.0120 -0.2486 -0.1451
 5191W        W21000   5.862  15.007   3.767  0.0095 -0.0318  0.1911
 5192W        W21001   8.248   8.174  16.564  0.3160 -0.1072 -0.0900
 5193W        W21002   2.272   0.712   0.449  0.1584 -0.1188 -0.0188
 5194W        W21003  14.522   4.986  13.313  0.1297  0.0821 -0.5244
 5195W        W21004   0.200   1.252  13.995  0.1016  0.0247 -0.1677
 5196W        W21005  10.530   4.533   3.884 -0.2255  0.0614 -0.0516
 5197W        W21006  14.296   1.147   1.832  0.0611 -0.0001 -0.0733
 5198W        W21007  11.338   4.570   4.357  0.0794 -0.4398 -0.1233
 5199W        W21008   5.512   0.655   3.782 -0.0092  0.1731  0.0219
 5200W        W21009   3.993  15.433   0.560 -0.1401 -0.0697 -0.1008
 5201W        W21010   2.045  11.658   3.324  0.1406 -0.0680  0.0598
 5202W        W21011   4.407   9.288  16.305  0.1373  0.1886 -0.0481
 5203W        W21012   6.187  15.793  14.786 -0.1817 -0.1484 -0.1122
 5204W        W21013   8.521   6.992   3.369  0.0754  0.0953  0.1757
 5205W        W21014   3.888   3.912  14.663  0.0629  0.2023 -0.1053
 5206W        W21015  15.202  12.494   5.642 -0.0140  0.1464  0.1283
 5207W        W21016  13.090   0.793  12.858  0.0512  0.3243 -0.3040
 5208W        W21017   9.489   7.525   5.056 -0.1462  0.2564  0.1745
 5209W        W21018   5.176  12.886   5.065 -0.3509  0.1397  0.2623
 5210W        W21019   1.698   2.854   0.499  0.0778 -0.0355 -0.0363
 5211W        W21020   6.896  12.686   4.025 -0.1781  0.1017 -0.1637
 5212W        W21021  16.196   6.179   4.250 -0.0042  0.1743  0.1027
 5213W        W21022   3.317   1.200  12.660 -0.0048 -0.2062  0.0207
 5214W        W21023   7.479   7.183  15.687 -0.1193 -0.0585 -0.1211
 5215W        W21024   6.351   4.298   0.850 -0.1720 -0.0348  0.1854
 5216W        W21025   7.259   4.734   4.957  0.0766  0.2527  0.2451
 5217W        W21026  16.299  17.529   1.797  0.0508 -0.0557  0.0893
 5218W        W21027  11.323  10.325  14.984 -0.0907 -0.0694 -0.2134
 5219W        W21028  13.421  12.381  16.203 -0.1436  0.1462  0.0689
 5220W        W21029   2.020   7.246   3.994  0.0924 -0.3895 -0.2859
 5221W        W21030   3.488  11.851  15.769 -0.2756  0.3728  0.1764
 5222W        W21031   4.034   1.981   5.251 -0.1058  0.2607  0.0861
 5223W        W21032   5.730  15.895  12.230 -0.0929 -0.1147 -0.0157
 5224W        W21033  10.464  10.443  13.553  0.0249  0.2657 -0.3534
 5225W        W21034  12.525   6.413   3.396 -0.1171  0.2859  0.3633
 5226W        W21035   0.231   8.416  12.558  0.0669  0.2852 -0.2951
 5227W        W21036  14.934   2.249   2.144  0.0015 -0.0849  0.0557
 5228W        W21037   4.559  14.652   4.381 -0.3640  0.1862  0.0099
 5229W        W21038  14.998   1.977  13.358 -0.2667  0.1189  0.0319
 5230W        W21039  17.474  16.837   5.586  0.1774  0.1763  0.3975
 5231W        W21040   9.324   4.334   3.462 -0.3254  0.0621 -0.1664
 5232W        W21041   8.641   2.638  13.312 -0.3433  0.2250  0.0505
 5233W        W21042   4.319   4.542   2.730 -0.0620 -0.0195  0.1011
 5234W        W21043  10.636   2.350  12.510 -0.1286 -0.2769 -0.1104
 5235W        W21044   8.511  11.713  15.746 -0.0963 -0.0973  0.0874
 5236W        W21045  12.875   3.401   2.176  0.2196  0.1300 -0.0957
 5237W        W21046   1.628   8.899   5.696 -0.2513  0.1115  0.0443
 5238W        W21047  11.361  15.743   4.045 -0.2365  0.0184  0.0161
 5239W        W21048   5.023  14.210  14.005  0.0598  0.1481 -0.0683
 5240W        W21049  11.565   5.878  15.918  0.1751 -0.2068  0.1569
 5241W        W21050   9.252  11.655  11.589  0.2977 -0.0501 -0.0165
 5242W        W21051  17.691   4.241  16.653 -0.1477  0.0818 -0.0134
 5243W        W21052   6.112   0.619   2.928  0.1140  0.0691 -0.1261
 5244W        W21053   8.129   5.970   0.715  0.0292 -0.1366 -0.0382
 5245W        W21054  14.562  13.167   0.995  0.0251 -0.1199  0.0936
 5246W        W21055  13.687   1.462   5.274 -0.0603  0.0770  0.0266
 5247W        W21056  17.109  12.386  13.493 -0.1175 -0.0643 -0.2412
 5248W        W21057   6.087   0.984   5.398  0.1025  0.0395  0.1526
 5249W        W21058  12.504   0.789   4.916  0.0863  0.1490  0.0913
 5250W        W21059  11.151   7.061  11.869  0.1968 -0.3173  0.0321
 5251W        W21060   8.053   9.110  15.252  0.0432  0.0732 -0.0343
 5252W        W21061   6.253   2.107   4.219  0.1959 -0.0746 -0.2474
 5253W        W21062   4.400   9.477   5.278  0.0479  0.1623  0.0094
 5254W        W21063  16.659  14.896  12.332 -0.0206  0.2019  0.0265
 5255W        W21064   9.220   2.167   4.931 -0.0031 -0.0347 -0.0028
 5256W        W21065  10.946  17.638  12.963 -0.4007  0.0133  0.1432
 5257W        W21066   8.324   8.433  12.845  0.0234  0.0376  0.0972
 5258W        W21067  17.680  15.709  13.898  0.0502  0.2258 -0.3089
 5259W        W21068   7.335  15.846   5.706 -0.0326  0.2433 -0.2080
 5260W        W21069  17.659  17.108  14.341 -0.0940 -0.0505 -0.0287
 5261W        W21070   7.161   4.185   1.024 -0.2546  0.0117  0.1460
 5262W        W21071   0.393   7.403   1.858 -0.0598  0.3394  0.2071
 5263W        W21072  10.214   7.372   3.627  0.1338  0.0406  0.2285
 5264W        W21073  10.693   1.275   4.568  0.3142 -0.4059  0.0715
 5265W        W21074   2.071  11.176   5.162  0.2892 -0.0265 -0.0289
 5266W        W21075   3.119   3.961  16.844 -0.0011 -0.0352 -0.1948
 5267W        W21076  10.187   3.894   3.134  0.1045 -0.1682  0.3467
 5268W        W21077   7.649  13.422  12.923 -0.3184 -0.0834  0.2078
 5269W        W21078  14.457  10.131   4.262  0.1231 -0.2587  0.1797
 5270W        W21079  10.351  10.838  16.847  0.0682 -0.0053  0.0992
 5271W        W21080  11.529  16.136   4.498 -0.2385  0.2089 -0.0503
 5272W        W21081   8.761   8.623   2.218 -0.0846 -0.0028  0.0654
 5273W        W21082  11.307   4.477  16.890  0.0247 -0.1235 -0.3515
 5274W        W21083   2.447  12.504   0.949  0.2729 -0.2778 -0.1996
 5275W        W21084   1.336  13.026  13.595 -0.1319  0.0790 -0.0172
 5276W        W21085  15.053   5.386   4.065 -0.1889  0.1486 -0.2141
 5277W        W21086   3.948  16.898  11.802 -0.1359 -0.1156 -0.1039
 5278W        W21087   9.542   0.346  12.786 -0.0834  0.2759  0.1772
 5279W        W21088   7.635  14.297  16.758 -0.2924  0.3036 -0.0303
 5280W        W21089  15.653   3.453   4.282 -0.0981  0.2139 -0.1080
 5281W        W21090   8.033  13.948  11.748 -0.2144 -0.1765  0.2010
 5282W        W21091   7.827   5.120   3.952  0.3071 -0.0159  0.1316
 5283W        W21092  12.007  14.829  16.063 -0.1889 -0.2191 -0.1740
 5284W        W21093   7.020   4.469  14.723 -0.0423 -0.1265 -0.1469
 5285W        W21094   1.941   3.189   0.164  0.2528 -0.0770  0.0024
 5286W        W21095  15.985   3.951   2.778 -0.1946  0.0671 -0.0239
 5287W        W21096  11.558   4.121   5.082 -0.5308 -0.0212 -0.0977
 5288W        W21097   9.874  15.491  13.836 -0.0165  0.1870  0.5011
 5289W        W21098   1.879  16.492  13.057 -0.0825  0.2939 -0.0161
 5290W        W21099   5.181   0.242  12.383  0.2155  0.0367  0.0256
 5291W        W21100  16.068  11.846  16.896  0.2564  0.0238  0.1930
 5292W        W21101   2.403  12.443   5.433 -0.1970  0.0446  0.2857
 5293W        W21102   8.566  12.410   5.449  0.0922 -0.0678  0.1618
 5294W        W21103   2.038   7.329   2.686 -0.0086  0.3311 -0.1482
 5295W        W21104   9.799   3.210  14.659  0.1907 -0.2125  0.0601
 5296W        W21105   2.489   6.349   6.136  0.0469  0.0498  0.0980
 5297W        W21106  12.962  12.332  16.615 -0.0745 -0.1355  0.0300
 5298W        W21107  10.665   7.107  12.013 -0.1599  0.0619  0.1592
 5299W        W21108   5.074   4.338   3.336  0.1590 -0.1993 -0.1204
 5300W        W21109  13.583   8.351   4.961 -0.1330 -0.0235 -0.3490
 5301W        W21110   1.237   8.928  13.574  0.1260 -0.1988 -0.0141
 5302W        W21111  15.550   3.614  15.167 -0.1871  0.2193  0.1241
 5303W        W21112  14.192  10.778   1.034  0.2169  0.2839  0.2804
 5304W        W21113   6.658  17.321  16.387 -0.3534  0.2741 -0.0787
 5305W        W21114   9.055   4.146  13.705  0.1317  0.0789  0.0262
 5306W        W21115   8.271  10.969  13.920  0.2485  0.1974 -0.0305
 5307W        W21116   4.637   7.845   1.149  0.0530  0.3214 -0.2523
 5308W        W21117  16.144   3.813   3.440  0.0414  0.0530 -0.0855
 5309W        W21118  11.824  15.902   4.926  0.1769 -0.1003 -0.2390
 5310W        W21119  15.152  15.249  14.087 -0.0769  0.3043  0.2557
 5311W        W21120  13.043   2.947   4.009  0.0436 -0.1577 -0.1417
 5312W        W21121  15.588  12.769  14.500 -0.1168  0.0090  0.1594
 5313W        W21122  17.106   2.496   3.088  0.3277  0.2747  0.0942
 5314W        W21123  13.434   7.295   2.500  0.1053 -0.1649  0.2195
 5315W        W21124  15.834   6.867  14.471 -0.1894  0.0494  0.1203
 5316W        W21125   8.935  14.499   1.804 -0.2501  0.2103  0.0624
 5317W        W21126   5.417  14.798   3.380 -0.3120 -0.2848 -0.2022
 5318W        W21127   4.878   4.114   0.314 -0.1801  0.1113  0.1927
 5319W        W21128   3.407  10.182  15.237 -0.0414 -0.0590 -0.2182
 5320W        W21129   2.190  11.603  13.356  0.2465  0.0451  0.0172
 5321W        W21130  15.393   6.122   1.502 -0.1209 -0.0138 -0.0742
 5322W        W21131   3.081   9.170   3.870 -0.1566 -0.1205  0.1484
 5323W        W21132  16.395   0.654  13.123  0.0204 -0.1400  0.0598
 5324W        W21133  15.509  12.101   1.220 -0.1059 -0.3331  0.1330
 5325W        W21134   3.063  14.829  16.361 -0.0632 -0.1383  0.0596
 5326W        W21135   7.661  13.114   2.296  0.0553  0.1724 -0.0450
 5327W        W21136  16.764   4.367  11.948 -0.0944  0.4583 -0.3458
 5328W        W21137  10.730   7.776   4.525  0.0588  0.0633 -0.1666
 5329W        W21138   6.413  15.342   3.691  0.2116  0.0321 -0.0884
 5330W        W21139   6.350  12.269  14.762 -0.0926 -0.0776 -0.0176
 5331W        W21140  10.594  14.762  12.941  0.0825 -0.0920  0.0530
 5332W        W21141   0.950   6.340  15.826 -0.3656 -0.1785  0.1558
 5333W        W21142   0.879   3.525   6.064  0.0888 -0.2017 -0.2297
 5334W        W21143   4.673  10.599   2.348 -0.1347  0.0185 -0.2085
 5335W        W21144  17.101  17.455  13.741 -0.0209  0.0132 -0.2556
 5336W        W21145  15.030   1.207  12.282 -0.0413 -0.1606  0.2941
 5337W        W21146  13.373   5.692   3.892  0.0243  0.1295 -0.1714
 5338W        W21147   0.209  12.441   4.075  0.0950  0.0194  0.0958
 5339W        W21148   4.193   7.063   4.943 -0.0976 -0.0864  0.1374
 5340W        W21149   0.506   9.206   1.138  0.1485 -0.0027  0.1826
 5341W        W21150  16.567  16.342   1.324 -0.0938  0.2301 -0.1188
 5342W        W21151   8.165   5.454  13.538  0.1810  0.2341  0.1786
 5343W        W21152   9.438   0.970  11.495  0.3313  0.1206 -0.1043
 5344W        W21153  13.088   0.710   4.124 -0.0740  0.0880 -0.3243
 5345W        W21154   1.342   2.256  12.941 -0.0159 -0.0740  0.3340
 5346W        W21155  15.650  11.201  12.539 -0.1571 -0.0940  0.1658
 5347W        W21156   1.817  11.285   0.576 -0.0415 -0.0417  0.0612
 5348W        W21157  16.469   3.748  16.416  0.0808  0.0944  0.0413
 5349W        W21158  14.742  12.266  13.966  0.2849 -0.0935 -0.0883
 5350W        W21159  12.331  11.707   4.394 -0.0541  0.0222 -0.0815
 5351W        W21160   4.320  11.988   0.558  0.1274 -0.1258 -0.2764
 5352W        W21161   7.424   6.646   5.595  0.0528  0.0217  0.0946
 5353W        W21162  10.281   5.453  11.795 -0.1942  0.0621  0.1688
 5354W        W21163   9.293  16.764   2.928 -0.0947  0.1347 -0.0812
 5355W        W21164   5.313   7.527  15.375 -0.1538  0.3749  0.0860
 5356W        W21165   0.890  11.687  14.130 -0.0537 -0.1865 -0.0436
 5357W        W21166   4.955   6.743  13.948  0.0997 -0.1389  0.1437
 5358W        W21167  15.162  16.655  12.499  0.3232 -0.0829  0.0100
 5359W        W21168   1.572  16.791  15.661  0.2895 -0.1682 -0.0365
 5360W        W21169  12.761   2.014  13.411  0.1404 -0.0359  0.1284
 5361W        W21170  17.243   0.735   2.627 -0.0419  0.2415  0.2169
 5362W        W21171  15.449   3.934  16.218 -0.1678 -0.1190  0.2021
 5363W        W21172   2.130   1.870   0.395  0.0832  0.1545 -0.1975
 5364W        W21173   6.849  10.821  13.362 -0.3125  0.3103 -0.1043
 5365W        W21174  17.015   6.663   2.201 -0.0558 -0.0459  0.0722
 5366W        W21175  12.941   1.519  16.493  0.1765 -0.0475  0.0014
 5367W        W21176  11.850   3.640  15.200 -0.2580  0.2870  0.1540
 5368W        W21177  17.729   0.725   3.487  0.0073  0.0276  0.0153
 5369W        W21178  11.485  13.753  15.940  0.0238 -0.3417  0.0361
 5370W        W21179  11.629   8.789   3.204 -0.2794  0.0324 -0.0653
 5371W        W21180  12.245  16.744  16.280 -0.0984  0.0046  0.1933
 5372W        W21181   4.451   3.297   3.110 -0.1888  0.0627  0.1225
 5373W        W21182   7.116   0.608   4.788 -0.0802 -0.2636 -0.1932
 5374W        W21183  16.176  10.747  16.124 -0.1236 -0.0202 -0.1356
 5375W        W21184   1.996   4.251  12.543 -0.1919  0.0913 -0.0957
 5376W        W21185   1.834   5.948  13.284  0.0287  0.0726 -0.0660
 5377W        W21186  14.390   7.951   5.309  0.2755  0.3103 -0.1898
 5378W        W21187  13.866  13.165  13.257 -0.0612 -0.3434  0.0306
 5379W        W21188   3.384   4.684  13.684 -0.2832  0.0211 -0.1169
 5380W        W21189   0.956  10.973   5.411 -0.0647 -0.5331 -0.0828
 5381W        W21190  11.890   0.890  14.995  0.2485  0.0352 -0.2106
 5382W        W21191  16.313  15.915   3.028 -0.0902  0.0457  0.0631
 5383W        W21192  10.517   2.766   4.696 -0.0801 -0.1485  0.0476
 5384W        W21193  12.856   7.702  13.758 -0.1954  0.0795 -0.1782
 5385W        W21194   0.478   6.862   4.014  0.1469  0.0097 -0.0157
 5386W        W21195  10.619  11.870  15.950  0.1477  0.0816  0.1828
 5387W        W21196   7.250   8.186   3.974 -0.0231  0.3253  0.0196
 5388W        W21197  16.870   1.169   0.788 -0.0339  0.0924 -0.0152
 5389W        W21198   1.606  10.956   4.308  0.0187 -0.1615 -0.1194
 5390W        W21199   7.176  13.568  13.336 -0.1957  0.1264 -0.2961
 5391W        W21200  15.568  12.844  10.960  0.4304  0.1333  0.2844
 5392W        W21201   3.581  16.695  13.112 -0.4658 -0.3100  0.2045
 5393W        W21202   1.294   6.583   5.401 -0.1933 -0.2448 -0.1551
 5394W        W21203   1.179  15.215   2.896 -0.0436 -0.1408 -0.3222
 5395W        W21204  16.266   1.758   5.868  0.3473  0.3257 -0.3964
 5396W        W21205   5.180  11.138   2.800  0.1225  0.0526  0.1283
 5397W        W21206   0.445   7.441  15.828  0.1397 -0.0857  0.2349
 5398W        W21207   7.002   1.798  15.005  0.2494 -0.0677 -0.0383
 5399W        W21208  11.962   9.698  13.626 -0.3232 -0.2547  0.0257
 5400W        W21209   0.759   5.820   0.965  0.0689  0.2626  0.2900
 5401W        W21210   2.228   9.216  16.936  0.1300  0.3323  0.0806
 5402W        W21211   2.845   8.138   5.822 -0.0312 -0.2162  0.1995
 5403W        W21212   6.113  16.642  13.450 -0.2189  0.2013  0.0449
 5404W        W21213   9.392   5.298   5.141 -0.0153  0.0996 -0.0660
 5405W        W21214   8.511  15.491   0.300 -0.0576 -0.1736  0.0447
 5406W        W21215  10.628  10.952  15.299 -0.0261 -0.1923  0.1298
 5407W        W21216   8.205   0.371  13.995 -0.0790  0.2736  0.2216
 5408W        W21217   5.777   4.657   5.755  0.3498  0.1198 -0.1178
 5409W        W21218   4.184  14.586   1.887 -0.0050  0.1383  0.0599
 5410W        W21219  14.953   3.679   0.023 -0.1405  0.0415 -0.2080
 5411W        W21220  13.484  17.617  11.623  0.1958 -0.2648 -0.0448
 5412W        W21221   0.580  12.644   4.364  0.1427  0.0457  0.1700
 5413W        W21222   5.599  16.551  16.139  0.4041 -0.1663  0.1851
 5414W        W21223  17.534  13.415  16.206  0.0028 -0.0844  0.1519
 5415W        W21224   0.002  14.125  15.984  0.2426 -0.0111  0.2663
 5416W        W21225   5.260  14.285  14.981  0.0976 -0.0124  0.3647
 5417W        W21226  14.947  12.011   3.034  0.0671  0.1319 -0.0299
 5418W        W21227  12.896   7.716   5.466 -0.0219 -0.1046 -0.0885
 5419W        W21228   3.939  10.326  14.828 -0.3132  0.0476  0.0294
 5420W        W21229  14.473   5.117  16.985 -0.1447 -0.1978  0.1394
 5421W        W21230   3.611   4.825   3.161 -0.0976  0.3216  0.1024
 5422W        W21231   7.722  10.720   3.375  0.0433  0.2338 -0.2222
 5423W        W21232   8.210   1.615   3.601 -0.2655 -0.0188  0.2112
 5424W        W21233   3.798   0.283   3.516  0.1533 -0.0184  0.0230
 5425W        W21234  14.484   2.632  16.458 -0.1201  0.1629  0.2180
 5426W        W21235  11.897  16.059  16.795 -0.1228  0.2062 -0.2886
 5427W        W21236  14.610  10.274  14.138 -0.0672  0.1287  0.0038
 5428W        W21237   7.532   9.273   1.584 -0.2554  0.1125 -0.1023
 5429W        W21238   6.462  11.035   2.300 -0.0889 -0.0378  0.0360
 5430W        W21239   4.192   8.380   2.913 -0.2051 -0.2031  0.1320
 5431W        W21240   8.685   7.205  12.269 -0.1881 -0.1735  0.2996
 5432W        W21241   1.591  11.003  11.755  0.0166 -0.1199  0.3774
 5433W        W21242   8.702   6.574   1.222 -0.0549  0.1977  0.0549
 5434W        W21243  12.697  13.688   4.443 -0.0196 -0.0777  0.1429
 5435W        W21244  10.515  10.965   1.767  0.1522  0.2925  0.2252
 5436W        W21245   1.214   0.551  11.932 -0.1021 -0.3104  0.1984
 5437W        W21246   4.041   0.329   0.746 -0.0236 -0.1862 -0.4663
 5438W        W21247   8.472  12.368   4.965  0.2022  0.3132 -0.4681
 5439W        W21248  13.874   9.591   3.758 -0.2019  0.0615 -0.0223
 5440W        W21249  13.467   5.361   5.506  0.1175  0.2105 -0.2171
 5441W        W21250  12.788   1.742  16.076  0.1227 -0.0629 -0.0689
 5442W        W21251  11.585   9.573   4.180  0.1523  0.1180 -0.2620
 5443W        W21252  13.033  14.072   2.080  0.1498  0.1332  0.3081
 5444W        W21253  11.410   1.821  16.137  0.0379  0.1537  0.1477
 5445W        W21254  15.795  13.936  11.226 -0.2712 -0.1080 -0.1004
 5446W        W21255  16.560   1.672   3.429 -0.1917  0.1534 -0.3948
 5447W        W21256   1.763   9.298   1.602 -0.0118  0.0429  0.0688
 5448W        W21257   8.076  11.989   3.609  0.2290 -0.1126 -0.0523
 5449W        W21258  15.872  11.667   0.327  0.0710 -0.1014 -0.0732
 5450W        W21259  12.331  17.166   5.214  0.1339  0.1513 -0.0820
 5451W        W21260   8.584  14.982  12.288 -0.0254  0.1886 -0.2448
 5452W        W21261   2.326   2.998   6.447 -0.3412  0.1709  0.1720
 5453W        W21262   0.210  14.849   4.299 -0.0334  0.0417  0.3001
 5454W        W21263   4.650  12.902   5.147  0.0324 -0.0970  0.0620
 5455W        W21264   5.219  13.686  14.265  0.0382  0.2451  0.1921
 5456W        W21265   5.629  15.991   1.121  0.1340  0.3078  0.0844
 5457W        W21266   8.876   4.808   2.606  0.1641  0.0161  0.1547
 5458W        W21267   2.056  10.419   3.545 -0.1304 -0.0295 -0.2533
 5459W        W21268   1.975   8.407  11.767 -0.1768  0.0914  0.2505
 5460W        W21269   9.226  12.246   1.119  0.1499 -0.1490 -0.3187
 5461W        W21270  16.406  15.623  12.182  0.2165 -0.2175 -0.1319
 5462W        W21271  12.356  14.484  12.740 -0.2013 -0.2889 -0.2892
 5463W        W21272   9.255  14.121   1.424  0.0094 -0.1863 -0.0430
 5464W        W21273  11.713   2.898   3.869 -0.0747 -0.1371  0.0882
 5465W        W21274   0.459   9.662   5.896 -0.0900 -0.0655  0.0752
 5466W        W21275   6.028  11.334  15.517 -0.1659  0.0287  0.3022
 5467W        W21276  11.265   8.907   6.032 -0.3803  0.2305  0.2922
 5468W        W21277  13.666   3.566   2.094 -0.0157 -0.1198 -0.0109
 5469W        W21278   6.864  11.221  12.259 -0.0848  0.3144 -0.3021
 5470W        W21279  17.441   4.703  13.584 -0.1341 -0.0277  0.0891
 5471W        W21280   4.733   7.125  16.458  0.0746  0.1767 -0.1177
 5472W        W21281   9.731   9.857   1.379  0.2740  0.0202 -0.0298
 5473W        W21282  11.023  12.140   1.665 -0.1903  0.1751  0.1962
 5474W        W21283  16.430  16.520  13.058 -0.0462 -0.0363 -0.2535
 5475W        W21284   3.641  17.298   5.929 -0.1416 -0.1650 -0.1408
 5476W        W21285  17.336   3.570  16.667  0.0744 -0.1028  0.1709
 5477W        W21286   9.383   8.429  14.195 -0.1972  0.2698 -0.1839
 5478W        W21287  16.642   5.811   3.934 -0.1545 -0.1055  0.1984
 5479W        W21288  13.688   7.583   3.586  0.1706  0.2142  0.1554
 5480W        W21289   2.361   4.665   4.677  0.1642  0.2250 -0.0608
 5481W        W21290  15.361   1.592   2.562 -0.1276 -0.2065 -0.1848
 5482W        W21291   4.688   5.578   2.198  0.3493  0.1790 -0.0912
 5483W        W21292  10.075   8.994  16.805 -0.1942 -0.0482 -0.1334
 5484W        W21293  14.890   0.478   4.528  0.2283  0.0565  0.0804
 5485W        W21294  14.334  13.462  13.325  0.2881  0.3507  0.2435
 5486W        W21295   5.783   2.143  15.767 -0.0062  0.0245 -0.1368
 5487W        W21296   7.649   7.631   0.503  0.0254 -0.0278 -0.2828
 5488W        W21297   3.858   3.680  12.164 -0.3326 -0.0442  0.1213
 5489W        W21298   0.445   1.871  16.363 -0.0783  0.0983  0.1886
 5490W        W21299   9.308  12.505   3.830  0.0387 -0.0131 -0.0170
 5491W        W21300   6.541   6.268   2.569  0.0679  0.1357  0.2679
 5492W        W21301   3.836  13.272  11.964 -0.1787 -0.1129 -0.1193
 5493W        W21302  10.574  11.205   2.236 -0.1451  0.1015  0.2977
 5494W        W21303  13.474  17.709   1.776  0.1338 -0.1077  0.0709
 5495W        W21304  12.409   5.221   3.431  0.3119 -0.1082  0.1292
 5496W        W21305   0.935   2.047  16.415  0.0819  0.0144  0.2554
 5497W        W21306  10.952   6.961   0.520  0.1525  0.0121  0.0107
 5498W        W21307   0.998   7.981  12.986 -0.0538 -0.1847 -0.3502
 5499W        W21308   7.599   7.187  16.605  0.1400 -0.0144 -0.0609
 5500W        W21309  15.474  17.053   2.385 -0.0865  0.0750  0.0656
 5501W        W21310  10.532  16.667  16.133  0.1408 -0.1285 -0.1226
 5502W        W21311   0.167  12.851  13.569 -0.3512 -0.0241  0.0565
 5503W        W21312   0.496   9.830  16.125  0.2950 -0.2352  0.0607
 5504W        W21313   2.185  13.127  11.741  0.0688 -0.0392 -0.1631
 5505W        W21314   4.310   8.270   1.956 -0.2118 -0.1253 -0.5648
 5506W        W21315   4.837  14.692   2.572  0.1167 -0.0453 -0.0261
 5507W        W21316   7.393  11.457  14.940 -0.1153 -0.0515  0.0497
 5508W        W21317  17.559   7.168   3.065 -0.0523  0.1036  0.0302
 5509W        W21318   5.262   8.229   5.902 -0.0619 -0.2777  0.1190
 5510W        W21319  17.027   4.937  16.596 -0.0811 -0.3171  0.3487
 5511W        W21320   4.748  13.796   0.292  0.0053  0.1203 -0.0788
 5512W        W21321  16.896   9.244   0.268  0.0357  0.0707 -0.2529
 5513W        W21322   8.694  11.675   2.752 -0.1665 -0.1435 -0.2598
 5514W        W21323   0.702   2.609   3.618  0.3240  0.2542 -0.0875
 5515W        W21324   8.076   1.163   5.456 -0.0200  0.1366  0.0658
 5516W        W21325  12.489  12.139  13.853 -0.0900  0.0707  0.1897
 5517W        W21326  14.019  16.520   5.009 -0.2379 -0.2384  0.3195
 5518W        W21327  11.415  11.834   0.622  0.1125 -0.1162 -0.1005
 5519W        W21328   0.809  17.280  11.483  0.0830  0.2371 -0.0625
 5520W        W21329   6.506  14.631   0.177  0.1275 -0.0811  0.1440
 5521W        W21330   2.557  13.914  16.715  0.0151  0.2345 -0.0823
 5522W        W21331   3.135   4.632   4.935 -0.1489 -0.1648  0.1124
 5523W        W21332  16.867  13.451  12.280  0.0000  0.2115 -0.0501
 5524W        W21333   0.805   8.252  14.286 -0.1442  0.0929  0.0858
 5525W        W21334   5.415   4.663  13.171  0.0546 -0.0207  0.2690
 5526W        W21335   5.349   6.998  11.921 -0.0308  0.1194  0.0278
 5527W        W21336  14.345   0.857  11.035  0.1887 -0.2766 -0.0471
 5528W        W21337  15.314  17.727  13.471  0.0429  0.2665 -0.3033
 5529W        W21338   7.558   0.991   1.071 -0.2462 -0.0240  0.3800
 5530W        W21339   2.324   0.917   3.110 -0.1036  0.1139 -0.0502
 5531W        W21340   0.339  11.590   1.652 -0.1067  0.2083 -0.2033
 5532W        W21341   6.898   4.953  15.516  0.0270  0.0528 -0.1297
 5533W        W21342   7.883  12.624  12.460  0.6236  0.2077  0.0680
 5534W        W21343   2.315  11.921  13.725  0.0877  0.1711 -0.0655
 5535W        W21344  15.226  12.958  16.663  0.2455 -0.3077  0.1170
 5536W        W21345   8.974   0.420   0.620 -0.0830  0.0869 -0.3991
 5537W        W21346   1.552  13.755   2.881 -0.0833  0.1230 -0.0173
 5538W        W21347   2.882  11.223   3.701  0.0477 -0.4102  0.2513
 5539W        W21348  12.459   1.083   5.473  0.2608 -0.2758 -0.4328
 5540W        W21349  15.794  11.673   5.738  0.2331 -0.3920  0.1376
 5541W        W21350   8.794   6.550  14.027  0.3615 -0.0241  0.0117
 5542W        W21351  12.870  10.795   2.644 -0.1167  0.1811 -0.0126
 5543W        W21352   2.328   5.525  16.040  0.1070 -0.1456  0.1568
 5544W        W21353   4.487  16.275   2.764  0.0184 -0.5551 -0.0919
 5545W        W21354  15.773   6.168  15.988  0.0011  0.2365 -0.0144
 5546W        W21355   6.301  12.582   3.405  0.0768  0.1016  0.0148
 5547W        W21356  13.908  12.216  10.294 -0.0632  0.1242  0.1360
 5548W        W21357   6.343  10.303  11.665  0.0380  0.0036 -0.1404
 5549W        W21358   6.976   1.784   1.319 -0.0055  0.1838 -0.1697
 5550W        W21359   3.007  12.866  12.181 -0.1529  0.1979 -0.0415
 5551W        W21360  16.238   9.961   3.632  0.0748  0.0417 -0.0058
 5552W        W21361  16.983   7.460  14.406 -0.2183  0.0402 -0.0454
 5553W        W21362   3.233  17.503   1.478  0.1667 -0.2540 -0.1833
 5554W        W21363   5.829   3.818  13.223  0.0541  0.1849 -0.1845
 5555W        W21364   6.255   7.924  13.927  0.4946 -0.0022 -0.1964
 5556W        W21365  14.984   4.296   5.730 -0.1080  0.1076 -0.3996
 5557W        W21366  12.909  15.363  11.320 -0.1255  0.1516  0.3749
 5558W        W21367  17.535  11.023  16.458  0.1201 -0.0772  0.0047
 5559W        W21368   1.489  10.860  14.262  0.0004 -0.0946 -0.0214
 5560W        W21369   9.404  13.444   3.948 -0.0648 -0.0122  0.1339
 5561W        W21370  15.383  12.000   2.569  0.0927 -0.0210  0.0965
 5562W        W21371   3.282  10.755   2.091  0.4025  0.0505  0.4101
 5563W        W21372  15.545   9.369   0.078 -0.3369  0.2154  0.1070
 5564W        W21373   6.597   0.696   4.500  0.1573  0.2081 -0.0294
 5565W        W21374   4.747   5.339   5.376 -0.2664  0.0242 -0.1044
 5566W        W21375   1.430   7.208  13.481  0.0967  0.0578  0.0487
 5567W        W21376   6.413   1.076   4.833 -0.0225  0.3074 -0.0283
 5568W        W21377   1.671   6.707  13.001 -0.0835  0.0823 -0.0669
 5569W        W21378   0.967  10.731  14.124  0.1224 -0.2203  0.1873
 5570W        W21379   9.501   1.684   1.140 -0.2021  0.0902 -0.2501
 5571W        W21380  11.953   7.301  12.173  0.3927  0.2282  0.2700
 5572W        W21381   8.556   3.637   2.267 -0.0878  0.0446 -0.0343
 5573W        W21382   6.038   4.475  12.037 -0.1162  0.0516  0.1814
 5574W        W21383  11.477   2.027  14.562  0.2139  0.2639  0.2854
 5575W        W21384  10.647  17.526   2.593 -0.3348  0.1640  0.1875
 5576W        W21385  17.706   2.554   1.524  0.0687 -0.1512  0.0205
 5577W        W21386   5.043   0.608  14.602  0.0088  0.1196 -0.0356
 5578W        W21387  17.076  11.436   3.795 -0.0936  0.2163  0.1656
 5579W        W21388  10.028   9.854  15.119 -0.0328  0.0034 -0.4565
 5580W        W21389  13.089   7.049   5.282 -0.0967 -0.0567  0.1122
 5581W        W21390  11.753   8.390   0.282  0.1587  0.1594 -0.1127
 5582W        W21391  15.192  13.176  11.116 -0.0036  0.0546  0.1793
 5583W        W21392   3.522   4.930   3.689 -0.0969  0.0562  0.2621
 5584W        W21393  17.013  12.203   3.911  0.2601 -0.0604 -0.1079
 5585W        W21394   9.838  10.753  14.724  0.0504  0.1549 -0.0602
 5586W        W21395   0.177   6.507   3.028  0.0265 -0.0616  0.0066
 5587W        W21396   6.045   4.559  13.991  0.1599  0.1727  0.0029
 5588W        W21397  16.371   5.704   4.359  0.1787 -0.2306 -0.2957
 5589W        W21398   2.673   2.441  14.973 -0.0131 -0.2426  0.4362
 5590W        W21399   3.214  11.456   2.885  0.2078 -0.1943  0.4166
 5591W        W21400   4.456  13.620   5.333  0.0433  0.0860  0.1082
 5592W        W21401   8.932  16.610  15.724  0.2928  0.0791  0.1543
 5593W        W21402   8.768  13.036  12.337  0.2287 -0.0217 -0.2734
 5594W        W21403   4.091  16.966   3.318  0.1419 -0.2123  0.2392
 5595W        W21404  15.499   9.505  14.680 -0.1397 -0.0821 -0.0249
 5596W        W21405   0.920   7.622  15.584 -0.1390 -0.0986 -0.0415
 5597W        W21406  16.899  11.862  15.197  0.1424  0.1412 -0.2145
 5598W        W21407  17.458   9.756   5.695  0.0400 -0.0418  0.0376
 5599W        W21408   2.666  11.605  15.714  0.0075  0.0449 -0.1154
 5600W        W21409  11.421  10.089   2.251 -0.2427 -0.1718 -0.3084
 5601W        W21410  10.600  14.209  15.940 -0.1356 -0.1258 -0.0846
 5602W        W21411  16.066  12.324  15.826  0.2186  0.0110  0.0230
 5603W        W21412  14.083  16.779  16.441 -0.2050  0.1131 -0.2788
 5604W        W21413  16.749   6.693  14.219 -0.0118  0.1592 -0.1088
 5605W        W21414   1.620  15.135   0.026  0.0989 -0.1343 -0.2234
 5606W        W21415   1.157   7.457   2.983 -0.2463 -0.3045  0.2077
 5607W        W21416  13.698  17.587  12.091 -0.0105 -0.4763  0.5419
 5608W        W21417  11.624  16.500  11.968  0.0151 -0.1026  0.2063
 5609W        W21418  15.718  16.554  15.983  0.0537  0.2205  0.0392
 5610W        W21419   3.438   7.200   4.460  0.1002 -0.0131 -0.0899
 5611W        W21420  13.268  15.227  14.684 -0.1417  0.1580 -0.0489
 5612W        W21421   0.607  16.920   0.333  0.1759 -0.1429  0.1477
 5613W        W21422   0.708   1.791   1.205  0.1909 -0.1568  0.0168
 5614W        W21423  13.938   4.618   4.185  0.1012 -0.0667 -0.0428
 5615W        W21424  15.528  10.694  12.045  0.0546 -0.0175 -0.1119
 5616W        W21425  17.706  11.224   1.672 -0.0327  0.3845  0.1177
 5617W        W21426   7.301   1.292  15.664  0.1038  0.0274 -0.0493
 5618W        W21427   3.621  17.315  16.632 -0.0327 -0.2884 -0.0313
 5619W        W21428  10.929  14.561   4.338  0.0480 -0.1198  0.1008
 5620W        W21429   5.225   1.982   3.836 -0.0651 -0.1896 -0.1322
 5621W        W21430   3.360  11.053  11.550  0.1525  0.2135  0.0730
 5622W        W21431  14.619   9.640   1.477 -0.2416  0.1011 -0.1454
 5623W        W21432   9.115   1.372   4.544 -0.1208  0.1393 -0.1110
 5624W        W21433   6.089   3.208  15.445 -0.2056  0.1129 -0.2450
 5625W        W21434  14.980  17.722  14.913 -0.3155 -0.0182 -0.0236
 5626W        W21435   2.170   1.154  15.736  0.1481  0.1385 -0.2995
 5627W        W21436   9.950  15.850   5.582  0.0707  0.2361 -0.3408
 5628W        W21437  12.748   6.758  11.968 -0.0232 -0.1690 -0.1887
 5629W        W21438  11.548   7.962   0.436  0.0486  0.3431 -0.0396
 5630W        W21439   4.512   1.009  15.824  0.2062  0.2082 -0.0321
 5631W        W21440   7.780   2.548   5.310 -0.1074 -0.3011  0.2632
 5632W        W21441   3.428  14.664  14.986 -0.0099 -0.0971  0.3095
 5633W        W21442  12.305   4.690   1.184 -0.3483 -0.1941  0.0012
 5634W        W21443  13.665  12.245  14.644 -0.0012 -0.3987 -0.0192
 5635W        W21444   7.382   7.576  14.540  0.5451 -0.0232  0.0677
 5636W        W21445   2.757  12.735   2.054  0.2397 -0.3570  0.0676
 5637W        W21446   3.394   3.661   2.571  0.2447  0.0496  0.2505
 5638W        W21447  11.426   9.661  13.346 -0.2099 -0.1831 -0.0481
 5639W        W21448   3.776   3.723  13.847 -0.0431  0.0498 -0.0876
 5640W        W21449   9.558  11.242   4.978  0.1526  0.2427  0.0489
 5641W        W21450   1.607   3.616  15.358  0.1665 -0.1312 -0.0810
 5642W        W21451  16.983   0.745  11.425 -0.1515 -0.0619  0.0485
 5643W        W21452   4.680  12.801  12.564  0.1091 -0.1656  0.0025
 5644W        W21453  14.293  14.207  11.490  0.1183  0.1123 -0.0688
 5645W        W21454  11.419   6.528  13.548  0.0204  0.0177 -0.0970
 5646W        W21455   3.225   5.906   0.244 -0.0051 -0.2200  0.0157
 5647W        W21456  16.528   1.520   0.623 -0.2260 -0.2182 -0.2007
 5648W        W21457   1.120  12.339  16.268  0.1009 -0.0097 -0.1611
 5649W        W21458  15.365   9.773   3.011  0.0192  0.1129  0.3102
 5650W        W21459   5.259   3.999  12.452 -0.2324  0.1783  0.1687
 5651W        W21460   5.141   7.452   0.201  0.0023  0.2088 -0.1224
 5652W        W21461   6.792   9.689   2.117  0.0191  0.4106  0.0860
 5653W        W21462   5.655  17.434  15.274  0.3309 -0.0747 -0.0383
 5654W        W21463  11.669   5.316  14.304  0.2651  0.1652 -0.0526
 5655W        W21464  13.214   4.039   0.377 -0.0009  0.3630  0.0833
 5656W        W21465  17.637   7.244   1.815 -0.0645 -0.2397 -0.1291
 5657W        W21466   8.899   1.163  12.838 -0.0923  0.1018  0.0668
 5658W        W21467   7.591   2.687   3.057 -0.1209 -0.2198 -0.0407
 5659W        W21468  16.203   8.366   2.276 -0.1398 -0.0220 -0.0632
 5660W        W21469   0.708   7.087   2.133  0.1129 -0.4616  0.2956
 5661W        W21470   6.911  17.097   3.548  0.0599 -0.1039  0.3521
 5662W        W21471   0.279   0.796  13.730  0.0077  0.0484  0.0601
 5663W        W21472  14.266   9.671  15.790  0.0009  0.1130  0.0693
 5664W        W21473  15.083  11.555  15.719  0.1087  0.1768 -0.0633
 5665W        W21474  13.102  15.453   4.851 -0.1977  0.3233  0.2283
 5666W        W21475   8.522   1.532  12.408 -0.0553  0.1685 -0.1291
 5667W        W21476   8.281   7.834   2.318 -0.0810 -0.1911 -0.1785
 5668W        W21477  10.185  13.818   1.134 -0.2224  0.0889  0.1724
 5669W        W21478  13.178   3.821   2.204  0.1161  0.3444  0.0521
 5670W        W21479  11.139   7.463   4.298 -0.2698 -0.0706  0.1186
 5671W        W21480  17.655  15.919  12.926  0.2751 -0.1859 -0.0975
 5672W        W21481   9.386   1.085   2.327  0.3857  0.1985  0.1311
 5673W        W21482   4.446  17.078  11.648  0.0138 -0.0238  0.3125
 5674W        W21483   2.529   9.901  12.893  0.0199 -0.2185 -0.0743
 5675W        W21484   4.426  15.684   0.526 -0.0988  0.0938  0.1559
 5676W        W21485  14.367   3.659   4.142  0.2212  0.1871  0.0716
 5677W        W21486  13.674  16.819  12.732  0.2165 -0.1651  0.2262
 5678W        W21487   6.695   8.334  13.556 -0.1293 -0.1656 -0.2894
 5679W        W21488  17.473   2.171   5.539 -0.2686  0.0884 -0.0290
 5680W        W21489   9.690   5.452  14.941 -0.0228  0.2034  0.2516
 5681W        W21490   5.533  17.516  13.773 -0.2073 -0.2734  0.0784
 5682W        W21491   5.816  12.250  14.781 -0.2505 -0.0410  0.2217
 5683W        W21492   9.314   6.534   3.789 -0.0775 -0.3349 -0.2913
 5684W        W21493   6.446  15.335   2.299  0.1871 -0.1405 -0.0868
 5685W        W21494  11.898   0.649   4.313  0.0070 -0.0641  0.0746
 5686W        W21495   9.533   5.762   0.177  0.0284 -0.0269 -0.1092
 5687W        W21496  11.832  10.134  12.739  0.1334 -0.0962 -0.2359
 5688W        W21497   2.598   9.429  12.124 -0.1668  0.2881  0.0704
 5689W        W21498   9.108   6.985  12.072  0.0025  0.2282 -0.0705
 5690W        W21499  14.632  12.718   0.735  0.0537  0.2154 -0.0148
 5691W        W21500  13.019   1.357   2.543 -0.3176 -0.0346 -0.1323
 5692W        W21501   6.738   7.856  15.303 -0.0205 -0.1357 -0.1523
 5693W        W21502   1.751   3.178  13.847 -0.2542  0.1418  0.1161
 5694W        W21503   3.771  14.845   1.892 -0.0227 -0.2389 -0.1413
 5695W        W21504  17.736   7.691   1.525  0.0482 -0.1675 -0.0099
 5696W        W21505  15.850  17.731   2.936  0.2892 -0.1555 -0.0367
 5697W        W21506   5.822   5.323  14.894  0.0614 -0.0648  0.3545
 5698W        W21507  16.622   8.554  12.381 -0.5720 -0.1851  0.0894
 5699W        W21508  15.797   7.400   6.132 -0.1154 -0.0365  0.4926
 5700W        W21509  12.362  11.136  16.887 -0.3397 -0.6302 -0.1716
 5701W        W21510  11.437   5.358  12.499 -0.0984  0.0792  0.2847
 5702W        W21511  15.231  10.388   5.526  0.2144 -0.2270  0.1875
 5703W        W21512  14.529  10.593  13.249 -0.1265 -0.0620  0.1854
 5704W        W21513   3.557   2.850  16.502  0.0427 -0.2189  0.0501
 5705W        W21514   6.458  16.277   1.484  0.0632  0.1390 -0.0999
 5706W        W21515  12.514   4.886   1.788  0.0927  0.2864 -0.2143
 5707W        W21516   5.059  12.214  14.193  0.1924  0.4043  0.3492
 5708W        W21517  17.724   0.770   0.809  0.0561 -0.0040 -0.1407
 5709W        W21518  13.247   6.128  12.729  0.1083 -0.2081  0.1285
 5710W        W21519   1.400   8.348  16.523 -0.2318  0.1443  0.0885
 5711W        W21520   9.313  11.142  10.254 -0.1229 -0.0451  0.2010
 5712W        W21521   5.562  13.964  14.651  0.0476  0.3380  0.1293
 5713W        W21522  17.442  12.943  12.695 -0.2737 -0.0967 -0.0610
 5714W        W21523  11.773  10.812  15.781 -0.1723 -0.2976  0.1663
 5715W        W21524   1.791  10.553   0.402  0.0503  0.0112  0.0634
 5716W        W21525  14.151   7.178   3.773  0.0175 -0.1339  0.2285
 5717W        W21526  12.640   7.640   1.471  0.0237  0.2088 -0.0236
 5718W        W21527  17.534  14.947  16.340  0.3374 -0.0738  0.1628
 5719W        W21528  15.942   5.421   2.978 -0.1967 -0.0798 -0.1885
 5720W        W21529   6.259   2.735   5.047 -0.0386  0.1682  0.1178
 5721W        W21530   2.163  15.643  11.413 -0.0488 -0.0062 -0.1423
 5722W        W21531   5.774   5.511  12.562 -0.2519 -0.1421  0.1869
 5723W        W21532   0.979  16.735   1.536 -0.0847  0.3824  0.0710
 5724W        W21533   5.266  12.073  16.891  0.0092 -0.2068  0.2032
 5725W        W21534   3.737  14.356   0.968  0.2270 -0.0312  0.1348
 5726W        W21535   7.223   9.808   2.392  0.1801 -0.2618 -0.2465
 5727W        W21536   4.137   0.814   0.541  0.0594 -0.1891  0.2157
 5728W        W21537  15.514  15.773  13.488 -0.2091  0.0052  0.1523
 5729W        W21538  15.659   5.446   5.283 -0.2550  0.3111  0.1358
 5730W        W21539   0.358   5.070  15.250 -0.2598  0.0538  0.1865
 5731W        W21540  16.557  12.658  12.340  0.2045  0.1018  0.0779
 5732W        W21541   1.637   6.161  13.742 -0.0570  0.3329 -0.0356
 5733W        W21542   7.447   1.361   4.836 -0.0669 -0.0012 -0.1219
 5734W        W21543   4.639  11.624   4.507  0.1849  0.1064 -0.0166
 5735W        W21544  10.121   4.216   4.828 -0.0091 -0.1203 -0.1133
 5736W        W21545  17.240  17.056   2.911  0.2188  0.1869  0.0555
 5737W        W21546   4.745   2.537  15.246  0.3840 -0.0005  0.4315
 5738W        W21547  14.275  10.494   3.937 -0.2474  0.0644 -0.3409
 5739W        W21548   7.908   0.012  14.154 -0.2318 -0.0192  0.0446
 5740W        W21549  14.288  13.590  14.210  0.2210  0.0797 -0.1078
 5741W        W21550   9.517   7.361   6.448 -0.0026  0.0527 -0.0452
 5742W        W21551   4.007   9.446   5.634  0.1663 -0.1085 -0.0503
 5743W        W21552  13.468  14.723  12.355  0.2100  0.4172 -0.0269
 5744W        W21553  13.343  13.665  12.459 -0.0808  0.1320 -0.0596
 5745W        W21554   3.145   4.379  15.771 -0.4847  0.1588 -0.2254
 5746W        W21555  17.414  10.070   3.022 -0.2606 -0.2522  0.0784
 5747W        W21556  14.230  10.139  16.107 -0.2779 -0.0457  0.0077
 5748W        W21557   9.744  14.063   1.894  0.3323 -0.2014  0.0557
 5749W        W21558   7.401   2.511   0.096 -0.2145  0.0616  0.0333
 5750W        W21559  14.751  17.224  14.850 -0.2019 -0.2006  0.0850
 5751W        W21560   6.504   3.582   3.120 -0.1011  0.0144  0.2014
 5752W        W21561  10.325   1.156  14.489 -0.0258 -0.2633  0.0299
 5753W        W21562  15.422  11.206   1.145 -0.0023 -0.0496  0.0160
 5754W        W21563   0.588   1.235   3.298  0.0637  0.0305  0.2648
 5755W        W21564   0.256   6.078   4.597 -0.1525  0.2096 -0.1484
 5756W        W21565  14.462   3.149  15.713  0.1223 -0.2577 -0.0887
 5757W        W21566  15.350  16.948   3.924  0.0607 -0.3315 -0.4565
 5758W        W21567  14.683   7.080   4.619  0.0261 -0.5288 -0.0945
 5759W        W21568  13.237   1.280  13.019  0.2235  0.0378  0.2718
 5760W        W21569   0.857  10.591   2.829  0.0201  0.0657  0.1781
 5761W        W21570   2.578  16.968   0.478  0.1511 -0.1219  0.0906
 5762W        W21571  14.107   5.449   3.639  0.3355  0.0861  0.2488
 5763W        W21572   0.240   4.687   0.962  0.2099  0.2107  0.1014
 5764W        W21573  13.301   9.613   5.365  0.0404 -0.0983  0.0226
 5765W        W21574  12.167   7.460   5.155 -0.2138  0.2642 -0.1956
 5766W        W21575  15.015  10.675   2.592  0.4371 -0.1957 -0.2528
 5767W        W21576  15.869   3.779  16.455 -0.1891 -0.0202  0.1439
 5768W        W21577   4.345   2.681  12.294 -0.0928  0.1197  0.1228
 5769W        W21578   2.368   2.505  16.151 -0.3558 -0.0062 -0.0418
 5770W        W21579  10.924  14.936   3.866  0.0937 -0.1283  0.1432
 5771W        W21580   8.489  15.844  13.586  0.1302 -0.0875 -0.0651
 5772W        W21581  15.501   3.168   0.588 -0.0954 -0.0523  0.0626
 5773W        W21582  13.773   1.620   2.048 -0.1034  0.3395  0.1802
 5774W        W21583   6.260  14.287   1.088 -0.0540  0.0050 -0.1969
 5775W        W21584  15.781   8.771   5.676 -0.0762 -0.1797 -0.1033
 5776W        W21585  14.779   6.193   1.148 -0.0851 -0.2616  0.1645
 5777W        W21586   8.254   9.673   4.125  0.1255  0.2661 -0.1485
 5778W        W21587   2.808  15.224   1.852 -0.0349  0.0972  0.0339
 5779W        W21588   8.989   1.834   6.361  0.0552  0.0822  0.2106
 5780W        W21589  11.457   4.247  15.932  0.0613 -0.1684 -0.0145
 5781W        W21590   6.945   4.861   3.101  0.0721 -0.1276 -0.2555
 5782W        W21591   0.221   6.419  14.319  0.1787  0.0660  0.1450
 5783W        W21592  11.252   3.019   4.839  0.0850 -0.3497 -0.2297
 5784W        W21593  12.965  11.415   5.848 -0.2006  0.1828  0.0347
 5785W        W21594  14.420  11.726   1.899 -0.0838 -0.0385  0.2954
 5786W        W21595  17.073  10.003  16.934 -0.0309 -0.1467 -0.0567
 5787W        W21596  10.985  10.926   2.202 -0.2517  0.0085  0.1799
 5788W        W21597  13.033  15.829  11.593  0.0246  0.0756  0.0382
 5789W        W21598  16.204   0.098   4.135  0.2143  0.0125  0.1587
 5790W        W21599  16.575   1.772  14.778 -0.3143 -0.2961  0.3982
 5791W        W21600  14.035   2.506   0.823  0.1054  0.1324 -0.1737
 5792W        W21601   5.049   9.368  15.041 -0.4033 -0.0155  0.0206
 5793W        W21602   6.548   7.004   1.235  0.1777  0.2765 -0.1241
 5794W        W21603  10.585  10.800  11.897 -0.0331 -0.0343 -0.2473
 5795W        W21604   0.088   2.230  16.606  0.0218 -0.0621 -0.0730
 5796W        W21605   0.132   4.018   6.005 -0.3405 -0.1816 -0.1772
 5797W        W21606   7.090  16.831   4.927 -0.1122 -0.0192 -0.0491
 5798W        W21607   7.251  13.099   2.702  0.2658 -0.1682 -0.0694
 5799W        W21608  15.463  11.795   4.253 -0.1181  0.0991  0.0072
 5800W        W21609   4.387  16.793   1.499 -0.1826 -0.4659 -0.1235
 5801W        W21610   5.435  11.424   0.624 -0.0816 -0.1551  0.2589
 5802W        W21611  10.063  17.527  11.900  0.2021 -0.0775 -0.2123
 5803W        W21612  12.535  15.970   1.610  0.2489 -0.1201 -0.1473
 5804W        W21613  16.582  16.481  15.969  0.0885  0.0159  0.1733
 5805W        W21614  14.742   3.215   0.063 -0.1255 -0.3797 -0.0703
 5806W        W21615   3.166   9.759   2.115 -0.5048  0.0629  0.0090
 5807W        W21616  15.170  10.605   1.869 -0.1821  0.0386  0.3749
 5808W        W21617  11.094  16.919  15.297 -0.1648 -0.3030  0.0877
 5809W        W21618   0.232   4.548  13.608 -0.1289 -0.1672  0.1774
 5810W        W21619  11.888   0.099   4.354  0.1938 -0.1586  0.2464
 5811W        W21620  14.040   5.863   3.244  0.2794  0.0948 -0.4995
 5812W        W21621  17.380   2.836  16.191 -0.1992  0.0052  0.1508
 5813W        W21622   6.293   2.864  13.163 -0.1471  0.1900  0.3620
 5814W        W21623   2.848   8.879  14.349 -0.1671 -0.2697 -0.0088
 5815W        W21624   4.751  16.829   3.920 -0.3197 -0.2053 -0.0310
 5816W        W21625  11.358  17.210  13.785 -0.1355 -0.1204  0.1168
 5817W        W21626  11.924   5.191   3.511 -0.2548 -0.0221  0.1343
 5818W        W21627   7.633  17.436   2.026 -0.2903  0.0176 -0.0175
 5819W        W21628   1.259  11.532   5.319 -0.0527 -0.1236  0.0371
 5820W        W21629  16.737   4.152   4.569 -0.1636 -0.2004 -0.0378
 5821W        W21630  10.073   9.469  12.097  0.2529 -0.2208  0.0255
 5822W        W21631   7.718   9.058  12.541 -0.1907 -0.2422  0.2492
 5823W        W21632  11.430   9.330   3.496 -0.1193 -0.1712 -0.1258
 5824W        W21633  13.871   2.446  16.962  0.2852 -0.1321 -0.1093
 5825W        W21634  10.221  15.198  11.589  0.0290  0.1110  0.0604
 5826W        W21635   2.096   9.404   4.918  0.0709  0.4374 -0.0875
 5827W        W21636  16.508   7.001   4.155 -0.1276  0.1073 -0.2068
 5828W        W21637   5.501  13.241  16.263 -0.0926 -0.1070 -0.0096
 5829W        W21638   7.200   2.206   2.947  0.0880 -0.1000  0.1547
 5830W        W21639   0.853   6.503  16.271  0.0613  0.0562 -0.1258
 5831W        W21640   1.006   7.067   4.217 -0.3949  0.0437 -0.0308
 5832W        W21641   4.119  14.518  12.485 -0.1023  0.0246  0.2721
 5833W        W21642   6.671  13.321  13.483  0.1188 -0.1080  0.2307
 5834W        W21643   1.467   0.048   1.032 -0.0481 -0.1286 -0.1613
 5835W        W21644  16.151   8.785   2.620 -0.1366  0.1538 -0.2130
 5836W        W21645   7.508  13.055  14.435  0.1129  0.2223  0.0484
 5837W        W21646   9.100   6.934   4.170 -0.0691 -0.1698 -0.2788
 5838W        W21647  11.212   0.630   2.683 -0.2163  0.0585 -0.2111
 5839W        W21648  11.557   0.924   5.603  0.0706  0.1827 -0.0854
 5840W        W21649   6.530   7.217   0.845 -0.1070 -0.0347  0.1042
 5841W        W21650   0.628  14.757  15.641 -0.0436  0.0435 -0.1353
 5842W        W21651   5.297   5.411   4.405  0.1374  0.0940  0.0431
 5843W        W21652  11.668  17.329  16.607 -0.2465  0.2525  0.1696
 5844W        W21653   6.586   1.393  13.736 -0.1846  0.2828 -0.1227
 5845W        W21654   4.635   7.699   0.693  0.0409  0.1757  0.0462
 5846W        W21655   6.453  12.929  15.275  0.0187 -0.1177 -0.1589
 5847W        W21656   4.551   9.730   4.106  0.1353  0.0206  0.1490
 5848W        W21657   0.776  11.229  16.997 -0.1911  0.1202  0.0871
 5849W        W21658   8.577   9.152  16.541 -0.1173 -0.2136 -0.1925
 5850W        W21659   1.390   2.882   5.266 -0.1195  0.1870  0.0404
 5851W        W21660  13.997  14.394   0.041  0.1531  0.2040  0.1537
 5852W        W21661   3.669   9.801  16.577 -0.1757 -0.0929 -0.1204
 5853W        W21662   7.125  10.727  13.818 -0.1352  0.0922  0.2304
 5854W        W21663  16.597   4.878   4.802  0.2509 -0.0888  0.0677
 5855W        W21664   4.590   6.968  12.483  0.0258 -0.0209 -0.0352
 5856W        W21665  10.985   2.686   4.467  0.1184 -0.0910  0.1205
 5857W        W21666   7.504  13.936   4.749 -0.0699  0.2725  0.1495
 5858W        W21667  12.519   0.265  13.985 -0.2910 -0.1740  0.0401
 5859W        W21668   6.562   3.257  13.460 -0.0785 -0.0252 -0.1029
 5860W        W21669   7.278   3.110   1.602  0.2585  0.0079 -0.3897
 5861W        W21670  11.346   9.189   4.465  0.1574  0.0684  0.0105
 5862W        W21671   8.439  15.608   5.062 -0.2164  0.0624 -0.2707
 5863W        W21672  12.993   5.094   1.800  0.2978 -0.1187  0.0698
 5864W        W21673   4.299  14.084  11.224  0.1087 -0.4056  0.2356
 5865W        W21674   8.957   4.383   0.390  0.0433  0.1113  0.0819
 5866W        W21675   2.937  11.110  15.656 -0.2367 -0.3031 -0.1146
 5867W        W21676   9.181  12.442  14.850 -0.1381  0.0408 -0.1605
 5868W        W21677   4.878  15.999  14.791  0.0541  0.1255  0.0583
 5869W        W21678  10.797   3.785   5.354  0.2589 -0.1078 -0.1040
 5870W        W21679  10.626   0.439  13.223  0.0510 -0.1636  0.0456
 5871W        W21680  17.217   3.903   2.405  0.2203  0.0187  0.0265
 5872W        W21681  12.247  17.103  11.799  0.1146  0.0237  0.0894
 5873W        W21682   8.424  11.397   0.359  0.1815  0.0259 -0.3155
 5874W        W21683   4.652   2.498  15.701  0.3058  0.0414  0.2947
 5875W        W21684  15.173  12.253  12.201  0.2529  0.0839 -0.0399
 5876W        W21685   1.184  12.350   4.022 -0.1954 -0.1900 -0.3532
 5877W        W21686  17.471  14.111   0.326  0.1072 -0.0731  0.0572
 5878W        W21687   4.977   9.644  14.670 -0.0378  0.1858 -0.0808
 5879W        W21688   6.564   0.221   0.046  0.1094 -0.0739  0.1768
 5880W        W21689   8.413   4.599  13.796  0.0508  0.0182 -0.1603
 5881W        W21690   8.704   7.951  16.262 -0.0237 -0.0252  0.1561
 5882W        W21691  12.342   9.990  11.622  0.0429  0.0441  0.0001
 5883W        W21692   4.074   6.666   2.232  0.2742  0.3008  0.3197
 5884W        W21693  13.647   8.381  12.745  0.3073 -0.1985  0.1137
 5885W        W21694   5.501  15.988   2.768  0.0669 -0.5312 -0.1941
 5886W        W21695   5.975  12.656  11.190  0.0090  0.0353  0.2729
 5887W        W21696  11.101   8.930  14.528 -0.1739  0.1281  0.1279
 5888W        W21697  13.455   7.053   0.617 -0.0107 -0.1038  0.0169
 5889W        W21698  16.102  12.112  13.341  0.3336  0.3450  0.0050
 5890W        W21699   1.545  13.706   0.928  0.0608  0.1491  0.1851
 5891W        W21700  10.256   5.108   2.114 -0.0247  0.0809  0.0849
 5892W        W21701  12.292  17.498   1.684 -0.1871 -0.0974  0.0692
 5893W        W21702   7.306   8.281  12.090 -0.0449 -0.0887 -0.0238
 5894W        W21703   6.487  12.254   2.402  0.3365  0.0355 -0.1539
 5895W        W21704  13.972   7.344   0.620 -0.0004  0.0745  0.1081
 5896W        W21705   9.140   4.664   6.407 -0.0748  0.0146  0.0086
 5897W        W21706  16.257   1.097  15.245 -0.3162  0.1205 -0.1806
 5898W        W21707   1.565   7.704  14.752  0.0072  0.2167 -0.0003
 5899W        W21708  13.275  11.842  11.077 -0.1930  0.1467 -0.0229
 5900W        W21709  17.704   4.747   2.413  0.1051 -0.1813 -0.2419
 5901W        W21710   9.966   3.581   3.542  0.0043  0.2351 -0.1063
 5902W        W21711   5.687  17.339  16.820  0.0695 -0.1709 -0.3618
 5903W        W21712   1.290   1.342  12.939 -0.2140 -0.0566  0.2728
 5904W        W21713   2.933  16.458   5.779 -0.0009  0.1560  0.3542
 5905W        W21714  14.929  11.618   3.928  0.0309 -0.3830  0.0598
 5906W        W21715  14.889  15.084  14.492 -0.3664 -0.3626 -0.1552
 5907W        W21716  13.555  13.355   3.542  0.0259  0.0748 -0.0957
 5908W        W21717   2.732  16.556  11.931 -0.0245 -0.0552  0.2998
 5909W        W21718  11.837   9.456   3.781  0.0952 -0.0597 -0.1773
 5910W        W21719   2.095  14.428  15.564 -0.1806 -0.0048  0.0772
 5911W        W21720   1.835  13.473   3.174 -0.1562 -0.2138  0.0400
 5912W        W21721  12.344  10.241  14.912 -0.0789  0.2101 -0.0219
 5913W        W21722   1.686   6.594   4.480 -0.0709  0.1468 -0.4174
 5914W        W21723   0.333  13.611  16.995 -0.2050  0.0570 -0.1591
 5915W        W21724  13.605  10.129   0.387  0.0827 -0.0084  0.1691
 5916W        W21725   9.301  11.755  13.841  0.1406 -0.1490 -0.1812
 5917W        W21726  10.897   8.290   4.251 -0.0412  0.0493 -0.0943
 5918W        W21727   7.010  15.808  16.366 -0.2038 -0.1353 -0.0242
 5919W        W21728  12.721   7.350   5.187 -0.1116  0.0836  0.1754
 5920W        W21729  14.767  11.040   4.460 -0.0501  0.0039  0.0456
 5921W        W21730   9.793   6.663  13.501 -0.0927 -0.1706 -0.1260
 5922W        W21731  13.033  13.295   5.856  0.0769  0.1404 -0.0679
 5923W        W21732   6.442   0.043  16.503  0.0490  0.1744 -0.3087
 5924W        W21733  16.976  12.758   4.859 -0.2898  0.0079  0.0293
 5925W        W21734  15.913  16.647  15.474  0.2091 -0.0589 -0.0635
 5926W        W21735  17.409   5.323  11.858 -0.0356  0.2133  0.3542
 5927W        W21736  16.732  10.531   4.191 -0.0164 -0.4139  0.0034
 5928W        W21737   0.088   3.654  16.075  0.1008  0.0822  0.1769
 5929W        W21738   9.565  14.891  15.012  0.1169 -0.0125 -0.1131
 5930W        W21739   4.215  13.237  16.967  0.0981  0.0856  0.1825
 5931W        W21740   6.563   4.751   0.079 -0.1271  0.3175  0.0989
 5932W        W21741  11.440  10.735   1.394  0.0723 -0.1354  0.0295
 5933W        W21742   8.468   9.539   2.997 -0.2058 -0.3688 -0.1208
 5934W        W21743   2.240  15.112   0.049 -0.1251 -0.2957  0.2596
 5935W        W21744   9.304  15.422  15.876  0.0839 -0.0338 -0.0093
 5936W        W21745  14.195  10.270   0.727  0.1576 -0.0069 -0.1155
 5937W        W21746  12.179   0.052  12.368  0.3442  0.1187  0.0548
 5938W        W21747  13.421  15.932  14.996 -0.0721  0.1646 -0.0951
 5939W        W21748  10.976   7.287  15.919 -0.0931  0.0900  0.2170
 5940W        W21749  11.110   0.034  16.975 -0.2527  0.1019 -0.0134
 5941W        W21750  15.506   1.511  15.769  0.0500  0.0264 -0.2693
 5942W        W21751   6.795   7.398  15.212 -0.1975  0.0915  0.1309
 5943W        W21752  17.185   2.811   0.352  0.0644  0.4094 -0.1100
 5944W        W21753   2.404   9.937  13.835  0.0145  0.4240  0.0925
 5945W        W21754  11.110   3.875  16.855 -0.1474  0.0096  0.0149
 5946W        W21755   2.470  12.103   4.540  0.1953 -0.2262 -0.2686
 5947W        W21756   7.689   4.257   1.365  0.1411 -0.0074  0.1661
 5948W        W21757   5.712   6.336   1.428 -0.0307 -0.1971  0.0947
 5949W        W21758   5.360   4.259  14.352  0.0528  0.0114 -0.0621
 5950W        W21759   6.666   7.418  14.647 -0.0981 -0.2560  0.0121
 5951W        W21760   9.245  16.371   4.764  0.2001 -0.2911  0.0343
 5952W        W21761   4.788   3.748   3.154 -0.2411 -0.1103 -0.0250
 5953W        W21762  16.177   6.537  16.836  0.0853 -0.0801 -0.1093
 5954W        W21763  16.954  15.178   4.261  0.1275  0.0770  0.1231
 5955W        W21764   9.024   0.592  14.646  0.0295  0.0803 -0.3505
 5956W        W21765   8.866   1.854  14.626  0.1647 -0.1281 -0.1432
 5957W        W21766  12.831  12.166   5.387  0.1854 -0.1654 -0.0445
 5958W        W21767  16.414  11.810  12.473  0.2277 -0.0630 -0.0020
 5959W        W21768  10.103   4.449   5.634 -0.1160  0.1004 -0.3822
 5960W        W21769   3.339   6.011  13.884  0.1258 -0.0234 -0.2033
 5961W        W21770   2.713   5.638   3.878  0.2866  0.1239  0.5703
 5962W        W21771   2.913   5.857   5.556 -0.1398 -0.1389  0.0031
 5963W        W21772   0.234  16.203   1.729  0.0508  0.1312 -0.2075
 5964W        W21773   6.590   8.330   3.227  0.2105  0.4004  0.0131
 5965W        W21774   9.807  16.758  16.780 -0.2110 -0.1470  0.1554
 5966W        W21775   6.762  12.459   2.769 -0.1248 -0.1003  0.4959
 5967W        W21776   7.506   3.619  14.818  0.0348  0.1045 -0.1690
 5968W        W21777   6.247   9.731  12.140  0.0365  0.1041  0.1783
 5969W        W21778  16.243   1.360  13.705  0.0197 -0.0484  0.0877
 5970W        W21779  14.519   9.196  16.050 -0.0837 -0.0010 -0.0239
 5971W        W21780   8.830  10.984   2.335 -0.2204 -0.2533  0.3375
 5972W        W21781  10.086  15.186   2.759  0.0038  0.0486 -0.2089
 5973W        W21782   6.905  16.579   1.605 -0.2270 -0.0341 -0.1311
 5974W        W21783   6.576   8.797  16.408  0.0243  0.4385 -0.0510
 5975W        W21784  16.377  14.392   4.621  0.0157 -0.4116 -0.1812
 5976W        W21785   4.655  14.122  13.127 -0.0648 -0.0668 -0.0929
 5977W        W21786  16.297  13.465   2.116 -0.1255  0.0107 -0.0013
 5978W        W21787   0.384  12.454  12.162  0.1216 -0.3518  0.2251
 5979W        W21788   8.966   0.153  14.376 -0.1279 -0.1166 -0.0518
 5980W        W21789  15.199  10.590   5.045 -0.1990  0.0507 -0.1202
 5981W        W21790   5.836   6.620   0.127 -0.0973 -0.1821  0.0126
 5982W        W21791  10.805  12.845   4.874 -0.1146 -0.0247  0.0339
 5983W        W21792   4.401   4.169  15.497 -0.1549  0.0109  0.2028
 5984W        W21793  15.345   1.307   2.986 -0.1887 -0.4013 -0.1032
 5985W        W21794   5.431   0.815  13.255 -0.3042  0.1192  0.0133
 5986W        W21795  11.596   1.617   1.186 -0.2709  0.0993 -0.0680
 5987W        W21796   3.307   2.434   5.883  0.0107 -0.4324  0.3279
 5988W        W21797  12.603   9.921  12.687 -0.1310 -0.0378 -0.2602
 5989W        W21798   7.504   6.914   5.118 -0.1526  0.0888  0.1856
 5990W        W21799  10.477   5.448  13.249  0.1239  0.0466  0.0022
 5991W        W21800   6.777  11.337  13.258  0.1168 -0.3745 -0.1179
 5992W        W21801   0.390  10.048   5.058  0.0534  0.1908 -0.0144
 5993W        W21802  16.062   9.386   4.364  0.2039 -0.0050  0.2172
 5994W        W21803  11.805   8.283  11.902  0.1861  0.0677 -0.1447
 5995W        W21804   7.877   5.739   2.765  0.0448 -0.2652  0.1308
 5996W        W21805  11.568   1.475  13.180  0.1155  0.2041 -0.1049
 5997W        W21806   2.617  15.287  14.093 -0.4484  0.2035 -0.0233
 5998W        W21807   8.991   2.781   3.249  0.3201  0.0809 -0.0886
 5999W        W21808  13.477   6.253  15.407 -0.0574  0.1307 -0.2049
 6000W        W21809   8.450  14.128  14.253  0.2529  0.0745 -0.2876
 6001W        W21810  12.117   0.012  14.237 -0.0569 -0.1510 -0.0271
 6002W        W21811  11.397  17.086   4.518  0.0537 -0.0947 -0.0215
 6003W        W21812   6.309   9.307  12.297 -0.2239  0.0780  0.0562
 6004W        W21813   4.089   8.026  16.562 -0.1454 -0.3093 -0.0477
 6005W        W21814  13.323   1.200  16.566 -0.1305 -0.0500 -0.0659
 6006W        W21815   6.725  12.361  11.909  0.2363 -0.0769  0.1347
 6007W        W21816  16.004   7.425   1.757  0.1325  0.1924  0.0626
 6008W        W21817  11.372   4.016   2.372  0.0053 -0.2299  0.1260
 6009W        W21818   3.361  12.178  13.660 -0.1564 -0.0040  0.1807
 6010W        W21819   9.768   9.284  14.188 -0.0648 -0.1921 -0.0681
 6011W        W21820  17.275  17.106  12.738  0.0357  0.0778  0.4186
 6012W        W21821   7.484  10.560   0.504  0.1609 -0.2314 -0.0058
 6013W        W21822  15.817  11.709  13.471 -0.0879 -0.1524 -0.0685
 6014W        W21823   5.806   1.890  14.724  0.2648  0.0503  0.0731
 6015W        W21824  16.265   8.226   3.276 -0.1426 -0.3451 -0.2315
 6016W        W21825   4.649   5.248  11.495 -0.1129  0.0457  0.2041
 6017W        W21826  10.487  14.104   2.901  0.0215 -0.0416 -0.3304
 6018W        W21827  16.042  12.880  14.718  0.0946  0.0359 -0.0099
 6019W        W21828  11.736  17.574  15.217  0.2227 -0.0891  0.0543
 6020W        W21829  16.346   9.927   4.195 -0.2557 -0.2149 -0.2112
 6021W        W21830   9.581  17.069  11.939  0.1798  0.1257 -0.0499
 6022W        W21831  12.436   1.161  13.400  0.1319 -0.0003  0.1027
 6023W        W21832   5.393   3.500  14.091  0.0921  0.3269  0.0935
 6024W        W21833   6.446   4.199  11.979  0.0532  0.3744  0.0457
 6025W        W21834   4.189   0.825  13.599  0.0143 -0.0854 -0.1307
 6026W        W21835  13.185  15.202   0.648 -0.1315 -0.1187 -0.1673
 6027W        W21836  16.487   4.821   3.165  0.2024  0.0523  0.3087
 6028W        W21837   9.560   0.319   1.182  0.0516 -0.0134  0.2989
 6029W        W21838  14.442  13.501   5.156 -0.0703 -0.2031  0.1236
 6030W        W21839   9.818   5.264  12.071 -0.0985  0.3300 -0.1053
 6031W        W21840   4.658   8.855  16.040 -0.2656  0.0244 -0.1153
 6032W        W21841   9.857   5.881  13.759  0.0074 -0.1976 -0.0640
 6033W        W21842  16.119   1.353   2.075  0.2062  0.0204  0.2459
 6034W        W21843   6.912  14.117  14.963 -0.0156 -0.3430 -0.3421
 6035W        W21844   5.680  14.949  14.984 -0.2611 -0.0715 -0.0629
 6036W        W21845  11.580   0.884   4.658 -0.1734 -0.0199 -0.2931
 6037W        W21846  12.493   1.574  15.284  0.0473  0.0411  0.2264
 6038W        W21847   2.742   7.368   4.677 -0.0269  0.0008 -0.3279
 6039W        W21848  11.576  10.032  16.383  0.0223  0.0947  0.0092
 6040W        W21849   6.710   9.632   3.657  0.0290 -0.0239 -0.0467
 6041W        W21850  11.586   9.140  11.968 -0.0847  0.4277 -0.1891
 6042W        W21851   0.691   6.940  15.041  0.1185 -0.1823  0.0819
 6043W        W21852   8.559   5.384  15.917  0.2325 -0.1559 -0.1461
 6044W        W21853  16.474   0.118   3.631  0.4690  0.0304  0.1935
 6045W        W21854   0.295   7.817   5.366  0.0619 -0.1667 -0.0882
 6046W        W21855   9.094   3.658   0.967 -0.1905 -0.0175  0.2485
 6047W        W21856   7.363  12.883   4.151  0.1300 -0.1491  0.1264
 6048W        W21857   1.719   5.835  12.014 -0.0780 -0.2393 -0.2724
 6049W        W21858   3.970   4.373  14.819 -0.0555  0.1445 -0.3538
 6050W        W21859   2.514  17.376  13.814 -0.2665 -0.2582 -0.3163
 6051W        W21860   3.262   1.277  14.326 -0.1750  0.1883 -0.3187
 6052W        W21861   6.842   5.164  16.237  0.0322 -0.1965 -0.1489
 6053W        W21862   2.284  11.638   5.975  0.0567 -0.2907 -0.2660
 6054W        W21863   9.659   3.863   4.352  0.0957  0.0811 -0.0469
 6055W        W21864   3.586  17.332   1.188 -0.1347 -0.0747  0.2153
 6056W        W21865   0.508   2.097  12.108  0.0667 -0.0970 -0.0562
 6057W        W21866  17.614  12.944  12.020  0.3809  0.1838  0.0262
 6058W        W21867   6.821   6.406  13.054  0.1578  0.0451 -0.1814
 6059W        W21868   8.611  17.273  14.226 -0.1391 -0.0704 -0.0875
 6060W        W21869   4.806  13.374   1.315 -0.0462 -0.0813 -0.0071
 6061W        W21870  10.312   6.996   5.218  0.1138 -0.0814 -0.0466
 6062W        W21871  11.640  11.724   3.602  0.0335  0.0168 -0.2519
 6063W        W21872   5.426   5.748  15.094 -0.1428 -0.0746 -0.1766
 6064W        W21873  13.955   8.996  12.636  0.2139 -0.0445  0.1383
 6065W        W21874   7.249  16.984  10.595 -0.0963  0.2565  0.0239
 6066W        W21875  15.235  10.131  15.520 -0.0005 -0.1534  0.0110
 6067W        W21876   4.786   3.607  14.794 -0.0516 -0.2058 -0.0687
 6068W        W21877   0.956  15.255   4.697  0.1774 -0.0431 -0.3365
 6069W        W21878  15.146   4.770   3.228  0.1266 -0.0680  0.0386
 6070W        W21879   8.843   4.298   3.770 -0.2598 -0.1962  0.1223
 6071W        W21880  16.952  11.047  11.546  0.3059 -0.1182 -0.4443
 6072W        W21881   1.995  11.753   2.494  0.3440  0.0946  0.0331
 6073W        W21882   4.266   9.172   1.289 -0.0942 -0.0156  0.1128
 6074W        W21883  11.443  11.678   2.874 -0.0743  0.0941 -0.3557
 6075W        W21884   6.930   2.758   1.956 -0.1064 -0.1637  0.0944
 6076W        W21885  17.480   8.176  15.872 -0.0739 -0.0851  0.2007
 6077W        W21886  13.211  12.197   3.228 -0.3937 -0.0241  0.1065
 6078W        W21887  10.599   1.931   4.141  0.0263 -0.1727 -0.2000
 6079W        W21888  14.258   8.721   3.608 -0.0450  0.0211  0.2829
 6080W        W21889   7.308  17.066  15.784  0.2477  0.1371 -0.1567
 6081W        W21890  10.564   6.951   0.960  0.0904  0.0043  0.1990
 6082W        W21891  11.785   2.028   1.852 -0.3096  0.0170 -0.1071
 6083W        W21892   7.264   4.180   5.140 -0.2746  0.1643  0.1362
 6084W        W21893   9.387  15.320  14.888 -0.2491  0.0055  0.1450
 6085W        W21894   9.517  10.860  13.752  0.0933 -0.1004  0.2830
 6086W        W21895  15.516   2.746   5.835  0.0638 -0.4779 -0.0151
 6087W        W21896   4.477   2.633   0.656  0.0828 -0.3828  0.0384
 6088W        W21897   7.438   1.156  16.142 -0.4272 -0.1423 -0.0905
 6089W        W21898   8.484  15.149   3.488  0.1479 -0.3823  0.1548
 6090W        W21899   4.814   1.725  15.865 -0.2612 -0.1611  0.0182
 6091W        W21900  10.484   6.346   6.130 -0.3434  0.3426 -0.0564
 6092W        W21901  15.511   4.243   5.004  0.3183 -0.1305  0.0605
 6093W        W21902  16.402   1.578  11.582  0.0591  0.1340  0.1396
 6094W        W21903   9.440  17.439  16.705 -0.1202  0.1195 -0.0216
 6095W        W21904  10.123   8.425   3.106  0.2539 -0.3964 -0.2776
 6096W        W21905  11.995   8.807  12.521 -0.0563  0.1208  0.0938
 6097W        W21906  11.128   6.625  16.124 -0.0057 -0.2485  0.0404
 6098W        W21907  13.452   4.274   2.800 -0.0448  0.1844 -0.0176
 6099W        W21908  14.787   2.618  12.068  0.0453 -0.0226 -0.1323
 6100W        W21909  17.375  16.313  16.314 -0.1971 -0.0183  0.3748
 6101W        W21910   5.225  14.954   2.248 -0.4332 -0.2921  0.1040
 6102W        W21911  11.583  12.719   0.492  0.2688 -0.1338  0.1341
 6103W        W21912  15.560  12.791  15.941  0.0646 -0.4168  0.1102
 6104W        W21913   1.159   8.790   2.178  0.2045 -0.1539 -0.0666
 6105W        W21914   5.925  16.284   3.810 -0.1892 -0.1965 -0.1720
 6106W        W21915   4.742  16.232  13.534  0.2097  0.0802  0.4813
 6107W        W21916   5.538   0.749   6.053 -0.0108 -0.1156  0.2022
 6108W        W21917  17.209  14.497  11.637 -0.0605  0.2148 -0.2056
 6109W        W21918   3.244  12.551   4.643 -0.1181  0.1997  0.3105
 6110W        W21919  13.701  10.886   3.771 -0.1074 -0.1639  0.3252
 6111W        W21920   7.803   3.454   1.756  0.0872 -0.0663 -0.0864
 6112W        W21921  15.466   4.263  15.852  0.2686 -0.1061 -0.3461
 6113W        W21922  10.905  12.409   2.520  0.3632  0.0355 -0.1657
 6114W        W21923  11.776  11.276   4.049  0.1099 -0.1189  0.0425
 6115W        W21924  16.640   9.063   5.205  0.0920  0.1031  0.0056
 6116W        W21925  15.105   6.762   4.383 -0.0393  0.0514 -0.0419
 6117W        W21926  15.990   7.886   5.473 -0.0402  0.2466  0.2305
 6118W        W21927   1.004   6.649   1.349  0.1364  0.2970  0.4013
 6119W        W21928   4.639  13.678  13.830 -0.0764 -0.1110  0.0432
 6120W        W21929   1.220  15.427   1.955  0.0315 -0.0534 -0.0364
 6121W        W21930  12.758  16.016   4.079  0.0605  0.2360  0.1318
 6122W        W21931   2.913   3.721   2.675  0.0757 -0.0839  0.2379
 6123W        W21932   0.657   8.564   2.263 -0.0451  0.0291 -0.1136
 6124W        W21933   0.718  10.428   0.225 -0.1754  0.1412  0.3311
 6125W        W21934   0.545   3.020   4.647 -0.2010  0.2346 -0.2137
 6126W        W21935   6.923  16.115   1.377  0.0316  0.0070  0.2631
 6127W        W21936  12.995   6.892   0.772  0.1419 -0.0030 -0.1121
 6128W        W21937  14.543   5.824   3.388 -0.3120 -0.1208  0.1707
 6129W        W21938   6.269   5.427   4.050  0.0187 -0.1472 -0.3695
 6130W        W21939   0.666   9.961  13.155 -0.0885 -0.3355 -0.1027
 6131W        W21940   9.790   5.342   3.567 -0.2215 -0.2056  0.0808
 6132W        W21941   5.157   3.810   3.596 -0.1817  0.0680  0.0654
 6133W        W21942  14.805   4.626  14.015  0.2381  0.1651  0.1421
 6134W        W21943  16.459  10.518  13.207  0.0315 -0.2555  0.2963
 6135W        W21944   9.949  12.288   2.302  0.1180 -0.0374 -0.1076
 6136W        W21945  11.507   6.099   5.522  0.0218  0.1663 -0.2041
 6137W        W21946  15.488   0.786   1.002  0.0550  0.1830 -0.0960
 6138W        W21947   4.723   9.191  13.365 -0.0724  0.1932 -0.1435
 6139W        W21948  13.002   1.767  13.036 -0.1091  0.1766 -0.1317
 6140W        W21949   3.423  10.290   2.703 -0.2859  0.1363 -0.0981
 6141W        W21950  14.903   1.306   2.767  0.1637 -0.1911  0.3097
 6142W        W21951  15.928  11.135  15.827 -0.3830  0.0820  0.0976
 6143W        W21952   9.282  10.435   3.835 -0.0319  0.1306  0.5301
 6144W        W21953  12.516  11.527  14.493 -0.1955  0.2082  0.2375
 6145W        W21954   6.095   1.571   2.277  0.2173 -0.0216  0.0198
 6146W        W21955   3.479   4.482  13.075  0.0209 -0.1019  0.1183
 6147W        W21956   1.128  16.182  13.653  0.1617 -0.1119  0.0973
 6148W        W21957   0.591   3.636   3.951 -0.0160 -0.0169  0.1861
 6149W        W21958   0.668  12.089  12.265 -0.2021 -0.0624 -0.0110
 6150W        W21959   4.025  11.519   3.347 -0.2418 -0.1787 -0.1095
 6151W        W21960  13.223  13.341  15.860  0.3235 -0.1174 -0.1177
 6152W        W21961   7.023  14.586   0.202 -0.3284  0.0378  0.2610
 6153W        W21962   3.008   3.631   0.921 -0.0427 -0.1753  0.1623
 6154W        W21963   8.162   7.055  12.337  0.0153  0.1299 -0.0875
 6155W        W21964   6.625   8.081   2.686 -0.1964  0.1370  0.1014
 6156W        W21965  15.676  15.055   0.418  0.1062  0.1087  0.0144
 6157W        W21966   6.669  14.852  15.724  0.3692 -0.2150  0.0526
 6158W        W21967   6.473   0.171  14.309  0.0210  0.0825 -0.0972
 6159W        W21968   9.521  12.647   1.025  0.0573  0.0839 -0.0057
 6160W        W21969   4.424  15.924  16.940 -0.1172  0.1913  0.1390
 6161W        W21970   7.981  16.637  15.286  0.0226 -0.2234 -0.1765
 6162W        W21971  14.546  11.709  14.033  0.0070  0.1582  0.0639
 6163W        W21972  15.646  13.983  12.734 -0.1222 -0.4304  0.2387
 6164W        W21973  14.085  13.759  11.639  0.2743  0.0644 -0.0885
 6165W        W21974  16.835   3.366   0.866  0.1120  0.1294 -0.2173
 6166W        W21975   2.506  17.070  14.565  0.0441  0.0269 -0.1627
 6167W        W21976   9.799  12.622   4.666 -0.0983 -0.1796  0.0214
 6168W        W21977   1.727   1.326  15.654  0.0406 -0.2583  0.1481
 6169W        W21978  15.611   9.286  15.084  0.2006  0.0271 -0.0501
 6170W        W21979  12.434  12.584  15.231 -0.0650  0.0966 -0.0709
 6171W        W21980  11.590  12.073  16.768  0.1069  0.0786 -0.3002
 6172W        W21981  13.580   1.387   3.165  0.1057 -0.0617 -0.2525
 6173W        W21982  10.697   8.215  12.746 -0.4963  0.0646  0.1193
 6174W        W21983  13.804   3.863   1.479 -0.1816  0.0716  0.0732
 6175W        W21984  12.864   2.302   5.914 -0.1056  0.1159 -0.1761
 6176W        W21985   3.702  15.399   3.401  0.0266 -0.2820  0.1884
 6177W        W21986  11.429  17.380   0.187  0.4246  0.2387 -0.1753
 6178W        W21987   0.888   3.470   3.549 -0.0910  0.0005  0.1886
 6179W        W21988  17.203   9.206  12.654 -0.2924 -0.1078  0.0402
 6180W        W21989  14.488   9.824   0.643 -0.1627 -0.0152  0.2531
 6181W        W21990   8.464  10.494   4.526  0.0247 -0.0185  0.4154
 6182W        W21991  12.335   1.494  15.840 -0.0854 -0.5320  0.2456
 6183W        W21992   4.172   8.374   4.773  0.1646 -0.1065 -0.0617
 6184W        W21993   7.245  12.584   2.498  0.0100 -0.0522 -0.0151
 6185W        W21994  17.393   0.769  16.529 -0.2356  0.0211  0.1495
 6186W        W21995   0.546  15.212   4.337  0.1588  0.2920 -0.0574
 6187W        W21996  16.406   1.245  13.193  0.1709 -0.2151  0.0783
 6188W        W21997  13.494   4.887   3.998 -0.0536  0.0113  0.1748
 6189W        W21998   1.429  12.721  11.565 -0.0697 -0.5241 -0.1981
 6190W        W21999  11.532  13.651  14.421  0.2861 -0.2334 -0.1794
 6191W        W22000   8.631  14.872   2.311  0.0985  0.1088  0.0938
 6192W        W22001  12.578   7.746  12.801  0.2054  0.0427 -0.2124
 6193W        W22002  10.077  17.000   4.784  0.3376 -0.1774  0.2498
 6194W        W22003  10.537   7.088   3.183 -0.2953  0.0372 -0.1974
 6195W        W22004  17.329  10.900  13.514  0.4466 -0.3293  0.1235
 6196W        W22005   3.652  12.025  12.169  0.2166  0.0596 -0.2187
 6197W        W22006   4.969  15.237   0.784  0.1672  0.0093 -0.4026
 6198W        W22007   2.153   5.174  13.713 -0.1120  0.1584  0.0717
 6199W        W22008   5.901   8.953  14.729  0.2138 -0.4192 -0.1176
 6200W        W22009  16.317  12.995  13.785  0.0550  0.0553  0.1551
 6201W        W22010  11.428   0.871   0.149  0.0246  0.1596  0.0173
 6202W        W22011   2.834  15.590  16.552  0.1965 -0.0732 -0.0257
 6203W        W22012  17.223   2.994   3.249  0.1451  0.1642  0.0545
 6204W        W22013  15.931   4.427  16.953 -0.1506  0.0154 -0.2180
 6205W        W22014  15.667   1.095  16.370  0.0672  0.1078 -0.0294
 6206W        W22015  16.744  17.419   0.034 -0.0612  0.1376  0.0299
 6207W        W22016   9.659   9.260  11.884  0.0582 -0.0639 -0.0430
 6208W        W22017  11.688  15.643   4.538 -0.2035  0.0997  0.0891
 6209W        W22018  14.035   3.226  15.442 -0.1419 -0.0084  0.1032
 6210W        W22019  11.063  13.347   3.313 -0.0505  0.2217  0.1706
 6211W        W22020  10.623  12.272  15.296 -0.1441  0.0654  0.2882
 6212W        W22021  11.048  14.968   0.611  0.0900  0.0788  0.1801
 6213W        W22022  12.871  11.689  10.230 -0.1257  0.5275  0.0566
 6214W        W22023  13.364  12.912   2.632 -0.0362  0.2072  0.1777
 6215W        W22024   2.277  12.949  16.711 -0.0762 -0.0611  0.0057
 6216W        W22025   4.891   2.054  15.518  0.2785  0.0776 -0.0467
 6217W        W22026   2.194   7.107   0.520  0.0937 -0.2240 -0.0630
 6218W        W22027  11.167   9.985  14.120  0.3611  0.2721  0.0718
 6219W        W22028  15.709  17.721  11.389 -0.0227 -0.0971 -0.1011
 6220W        W22029  15.703   6.675   2.962 -0.2236 -0.1595 -0.2564
 6221W        W22030   8.464  13.691   0.747  0.0687  0.0134  0.1782
 6222W        W22031  14.170  14.316   0.756 -0.1633  0.0223 -0.2121
 6223W        W22032  10.170  10.002   5.080 -0.0876 -0.2533  0.0550
 6224W        W22033   9.014  15.557  12.808  0.1857  0.1106 -0.3200
 6225W        W22034   0.163  13.791  13.776  0.0300  0.3708  0.0565
 6226W        W22035  10.879   5.140   6.421 -0.2367 -0.0380  0.2206
 6227W        W22036   6.441   6.508  16.246 -0.2941 -0.1352  0.2015
 6228W        W22037   8.834   4.093   2.151  0.4153  0.2169 -0.0525
 6229W        W22038   2.759  17.646   0.605 -0.0223  0.1643  0.0331
 6230W        W22039  13.738   6.659   4.284  0.1662  0.1989 -0.2339
 6231W        W22040   6.921  14.310   2.000  0.2237  0.2156 -0.1852
 6232W        W22041   2.604  10.012   5.322 -0.0402 -0.1597  0.3063
 6233W        W22042  11.940   5.034   3.024 -0.0154 -0.1991  0.0583
 6234W        W22043   5.229  13.211   1.925  0.1249  0.3453  0.0763
 6235W        W22044   8.894  16.379   2.638 -0.2809 -0.0903 -0.1373
 6236W        W22045  15.548  12.531   0.983  0.0060 -0.0285 -0.0997
 6237W        W22046  12.688  11.151  13.230 -0.3363 -0.0315  0.1991
 6238W        W22047  12.765   3.110   5.114  0.0925 -0.0045 -0.0720
 6239W        W22048   7.301  15.848  12.875  0.2767 -0.1033 -0.1733
 6240W        W22049  11.756   1.550  12.714 -0.3260  0.5609  0.1836
 6241W        W22050   9.632   9.121   0.086  0.2380  0.0779  0.4484
 6242W        W22051   3.767  10.205   1.857 -0.0401 -0.2535  0.0844
 6243W        W22052   1.344   9.217   5.466  0.2930 -0.0682  0.0838
 6244W        W22053   8.246   0.013   3.779  0.0344 -0.2141  0.2543
 6245W        W22054   3.458  11.012  15.443  0.0192 -0.0638 -0.0301
 6246W        W22055  14.712   2.407   0.209 -0.1086  0.0283 -0.0731
 6247W        W22056   7.264   1.154  16.682  0.3191  0.1412 -0.1616
 6248W        W22057   1.348  16.481  14.218  0.0828  0.3614 -0.1605
 6249W        W22058  10.569   9.301  12.334  0.1256 -0.2264 -0.0430
 6250W        W22059  11.464   0.264   4.213  0.0167 -0.0672  0.0804
 6251W        W22060   8.764  16.636   2.173  0.1511  0.2703 -0.1268
 6252W        W22061  17.187   6.869  16.795 -0.1183  0.1864 -0.1030
 6253W        W22062  15.712   1.297   3.320  0.0841  0.3326  0.1718
 6254W        W22063   2.055  10.817  16.520 -0.3347 -0.0395  0.1365
 6255W        W22064  17.435  16.683   3.779  0.1170  0.0647 -0.3542
 6256W        W22065   9.834   2.600   5.138 -0.1654  0.1396  0.2077
 6257W        W22066  12.792   5.570  13.827  0.2908 -0.1493  0.0072
 6258W        W22067   8.017   5.110   5.193  0.0938 -0.3595  0.1395
 6259W        W22068  16.052   8.691   3.834  0.0362 -0.0016  0.2388
 6260W        W22069  14.354   8.298   3.838  0.1878 -0.3768 -0.0068
 6261W        W22070   3.746  14.559  13.535 -0.2781  0.0100 -0.1691
 6262W        W22071  11.858  12.020  13.482 -0.1359 -0.2038  0.1059
 6263W        W22072  14.237   7.940  15.822 -0.1478  0.0590  0.0415
 6264W        W22073   3.784  12.091   0.889 -0.1338  0.0247  0.2775
 6265W        W22074  13.802  14.544  12.830 -0.0392 -0.1156  0.0077
 6266W        W22075  17.714   2.039   0.139  0.0726 -0.0530  0.1083
 6267W        W22076  10.440   3.047  13.045  0.2161  0.2827  0.1000
 6268W        W22077  16.003   0.035   2.139  0.0122  0.0570  0.0466
 6269W        W22078   9.883   9.338  13.664 -0.1685 -0.2801  0.0134
 6270W        W22079  13.169   7.620   2.795  0.0651 -0.2571 -0.0207
 6271W        W22080   2.940   2.173  14.523 -0.2313 -0.2121 -0.3433
 6272W        W22081   1.574   2.108   3.064 -0.3350  0.2327  0.3695
 6273W        W22082  12.943   9.046  15.310  0.0265  0.0930 -0.0744
 6274W        W22083  13.737   0.452   1.117 -0.3470  0.1224 -0.0590
 6275W        W22084   5.259  10.242   1.710 -0.0714 -0.3798  0.2050
 6276W        W22085  15.817   0.066   4.531  0.0010  0.1615 -0.0108
 6277W        W22086   8.188   4.079  15.038  0.1218 -0.0341  0.1085
 6278W        W22087   8.190   8.175   6.270  0.0880 -0.2441 -0.0011
 6279W        W22088  15.816  13.393   1.206  0.0566 -0.2366  0.2820
 6280W        W22089   4.294  12.399  11.741  0.1382 -0.0389  0.1232
 6281W        W22090  14.214   3.492  14.071 -0.0613  0.0254 -0.1271
 6282W        W22091  13.644   9.846   1.231  0.1146  0.3481 -0.0885
 6283W        W22092   9.772  16.958   3.631  0.0044  0.3156  0.0160
 6284W        W22093  14.372  15.293   5.640  0.0695  0.1802  0.1314
 6285W        W22094   8.482   8.683  14.489 -0.1665  0.0752  0.0360
 6286W        W22095  16.096  15.860  16.343 -0.1024  0.0712  0.1568
 6287W        W22096  15.102   5.330   5.869 -0.1590 -0.0266  0.2330
 6288W        W22097  16.160  14.709   2.796  0.2750 -0.0883  0.2114
 6289W        W22098   6.165  17.180   1.521  0.0987 -0.1958  0.1786
 6290W        W22099   6.958  10.867   6.361  0.2999  0.0699  0.0139
 6291W        W22100   2.365   2.195  12.805 -0.2668  0.0541  0.1138
 6292W        W22101  12.361   0.247   1.803  0.2531 -0.1293 -0.1077
 6293W        W22102  14.907  11.939  16.750 -0.0868 -0.3534  0.1667
 6294W        W22103   1.405   5.471   2.203 -0.1859 -0.3079  0.2984
 6295W        W22104   6.838  17.393   1.470 -0.1165 -0.2108 -0.0300
 6296W        W22105  16.947   2.874  12.201 -0.0077  0.2888  0.2108
 6297W        W22106   7.300  12.626  13.837 -0.0501  0.3402  0.0690
 6298W        W22107  11.151  12.402  13.983 -0.1033 -0.1708  0.1623
 6299W        W22108   6.405   0.517   4.072 -0.1050  0.2743  0.2629
 6300W        W22109  12.691  15.530   5.228 -0.0539 -0.1674  0.0133
 6301W        W22110  10.890  13.332   5.126 -0.0710  0.3046 -0.3650
 6302W        W22111  14.273  12.629  12.278 -0.0733  0.1935  0.1538
 6303W        W22112   9.711  10.526   0.810  0.1824  0.5219 -0.0060
 6304W        W22113   4.921   2.815  14.837 -0.0049 -0.0014 -0.1290
 6305W        W22114  14.104   9.909   0.379  0.0087  0.0168 -0.1693
 6306W        W22115  12.478  15.113   3.940  0.1985 -0.2956 -0.0813
 6307W        W22116   1.865  11.497   2.884 -0.0138 -0.3121 -0.1009
 6308W        W22117   9.764   4.917   5.127 -0.3434  0.3357  0.0666
 6309W        W22118   4.542   1.137   2.696  0.0472 -0.1641  0.0489
 6310W        W22119   6.825   5.215   1.762 -0.1502  0.2740 -0.0833
 6311W        W22120  17.326  16.262  13.158 -0.2570 -0.1268 -0.2643
 6312W        W22121   4.133   8.938   3.325 -0.0371 -0.1181  0.0687
 6313W        W22122   7.184   8.032   2.710  0.0565 -0.0010 -0.4931
 6314W        W22123  11.070   4.571  12.501  0.0049  0.1061  0.0616
 6315W        W22124   0.120   6.412   0.393  0.2545  0.3498  0.0954
 6316W        W22125   0.030   8.127  14.150  0.0209 -0.1637 -0.1063
 6317W        W22126  14.518  12.927  11.939  0.2043  0.0662  0.0304
 6318W        W22127   9.972  16.137   2.982 -0.1130 -0.3493 -0.1150
 6319W        W22128  11.585   5.666  15.114 -0.1415 -0.0644 -0.2754
 6320W        W22129   0.513   3.672  16.896  0.0152 -0.2270 -0.0820
 6321W        W22130  10.934   4.930   2.545  0.1727 -0.2225 -0.1919
 6322W        W22131  14.775  14.711  12.273 -0.2043 -0.3726 -0.2106
 6323W        W22132   1.542  12.373  14.287  0.2082  0.0014  0.1401
 6324W        W22133  17.278  10.582  16.408  0.4162 -0.0223 -0.3051
 6325W        W22134   4.500  11.613   1.971 -0.0843  0.3110  0.2761
 6326W        W22135  13.472   9.654  16.306  0.2228  0.1833  0.2192
 6327W        W22136   6.404  10.705   4.181  0.1792 -0.0919  0.1454
 6328W        W22137   8.413   4.096  11.768  0.0130 -0.0947  0.3269
 6329W        W22138   2.467   7.022   2.336  0.0516  0.0581 -0.2111
 6330W        W22139  10.025   0.190  16.206 -0.0356 -0.1188 -0.3154
 6331W        W22140   8.421  10.622  16.612  0.1039 -0.0651 -0.2172
 6332W        W22141  16.988   6.857   4.860  0.3229 -0.1214 -0.0597
 6333W        W22142   1.377   5.856   3.484  0.1813 -0.2999 -0.2704
 6334W        W22143   0.096  13.447  12.219 -0.0222  0.0712  0.1376
 6335W        W22144   0.632   8.800   3.399 -0.1182  0.1492  0.0917
 6336W        W22145  10.330  13.850  10.983 -0.1547  0.5703 -0.0634
 6337W        W22146   7.525   7.560  16.104  0.3478 -0.0002  0.1379
 6338W        W22147   5.312   5.655   3.079 -0.1098  0.0029 -0.1813
 6339W        W22148  15.592  11.166  16.587 -0.0689  0.0475 -0.0344
 6340W        W22149  10.871   8.151   6.628 -0.2315  0.1730  0.1190
 6341W        W22150   0.085   4.466  11.088  0.3045 -0.0240  0.2034
 6342W        W22151  13.983  14.465  11.131 -0.0916  0.0464  0.1124
 6343W        W22152   9.221  16.128  13.669  0.1393  0.2409 -0.0036
 6344W        W22153  14.076  15.591  15.992  0.1862 -0.0087 -0.0293
 6345W        W22154   8.376   4.137   4.269  0.0406  0.3699  0.1603
 6346W        W22155  17.172  15.611   0.040 -0.2271  0.0867  0.1615
 6347W        W22156  17.210  15.432  15.722  0.1288 -0.1789 -0.0058
 6348W        W22157   7.739   9.702   0.125  0.1058 -0.0608 -0.0014
 6349W        W22158  15.652  14.952   4.228  0.0584  0.1955  0.1674
 6350W        W22159   7.603  12.603   1.212 -0.1294  0.1196  0.1722
 6351W        W22160   4.193  15.963   4.453  0.2781 -0.2084  0.1429
 6352W        W22161  17.620  14.218  11.503 -0.1942  0.1400  0.2317
 6353W        W22162   3.278  13.022   3.027  0.0036  0.2379  0.1534
 6354W        W22163  14.217  15.716   3.426 -0.1821 -0.1545 -0.0986
 6355W        W22164  14.553   1.296   4.591 -0.0338  0.4962  0.0755
 6356W        W22165  11.450  10.179   4.676  0.0549  0.0030  0.1231
 6357W        W22166   2.691  15.101  12.489 -0.0053  0.0691 -0.0451
 6358W        W22167  11.159  15.133  15.733  0.2251 -0.0220  0.0880
 6359W        W22168  10.208  11.945   1.695 -0.2529  0.1219 -0.1874
 6360W        W22169   9.461  14.053   3.147 -0.0633  0.0698  0.0461
 6361W        W22170   3.682   9.866  13.017  0.3368 -0.0329 -0.1949
 6362W        W22171   3.321   1.924  12.519  0.0211 -0.2514 -0.1571
 6363W        W22172   0.315   1.034  15.029 -0.0430  0.1629  0.0927
 6364W        W22173  13.224  12.519   2.099  0.2033 -0.1251 -0.0216
 6365W        W22174  17.489   5.172   4.455  0.2796  0.0021 -0.1105
 6366W        W22175   2.600  13.584   2.612 -0.0485  0.0808 -0.0516
 6367W        W22176  11.008  14.161   4.657 -0.0088  0.1237  0.1739
 6368W        W22177   1.115  16.685  16.570  0.0450 -0.0300 -0.0031
 6369W        W22178   8.253   7.866   4.733  0.0586  0.2542 -0.2017
 6370W        W22179  16.180   0.579  14.945  0.0395 -0.1382 -0.2316
 6371W        W22180  13.487   8.835   3.525 -0.3240  0.0209  0.1606
 6372W        W22181  11.686  10.582   3.012  0.0862 -0.1646 -0.0205
 6373W        W22182   6.890  15.322  15.319  0.0544 -0.0112  0.1593
 6374W        W22183  10.897   2.568   4.955 -0.0408  0.0506  0.2384
 6375W        W22184   2.896  11.697   3.633 -0.1678 -0.0832  0.1217
 6376W        W22185  16.370  10.783  12.801 -0.0728 -0.0447 -0.0858
 6377W        W22186   3.022  16.893  12.143 -0.1336  0.2563  0.1127
 6378W        W22187   3.089   5.712  12.536  0.2139 -0.3197  0.3035
 6379W        W22188   1.642   7.451  10.970 -0.3992 -0.1824 -0.0658
 6380W        W22189  10.781  17.030  15.673  0.0174 -0.2940 -0.1146
 6381W        W22190   5.541  13.945   6.109  0.0656 -0.0893  0.0938
 6382W        W22191  10.984   8.183   3.754 -0.2114 -0.1829 -0.1057
 6383W        W22192   3.369  14.766   5.465  0.1464 -0.2022 -0.3401
 6384W        W22193  17.592  11.401  16.739 -0.1480  0.1518  0.0812
 6385W        W22194  12.111   3.533  13.212  0.1019  0.0799 -0.1876
 6386W        W22195   5.371  12.678  12.825  0.1256  0.1411 -0.0296
 6387W        W22196  11.157  17.235  16.805 -0.3593 -0.0503  0.0220
 6388W        W22197   8.194   9.219   0.906  0.0152 -0.2473 -0.1438
 6389W        W22198   1.543  13.067   5.242 -0.3020 -0.0501 -0.1657
 6390W        W22199   3.081  14.397   0.287  0.1276  0.0122 -0.1162
 6391W        W22200   0.446  11.426   1.184 -0.0010 -0.0986 -0.0946
 6392W        W22201   1.003   2.783   2.392  0.0451 -0.0125  0.1147
 6393W        W22202   3.597  13.367   4.123 -0.4238 -0.1013 -0.4196
 6394W        W22203  16.401  17.432   6.145  0.1445  0.0068 -0.1861
 6395W        W22204   4.778  14.667   1.026  0.1025 -0.4410  0.0367
 6396W        W22205  15.485  10.276   4.273  0.1420  0.1748  0.1767
 6397W        W22206   1.673   6.766  16.361  0.0531 -0.0873 -0.1296
 6398W        W22207  13.905   5.267   5.241 -0.1040 -0.2575 -0.1499
 6399W        W22208   5.590   8.489  16.581 -0.2037  0.0010 -0.0547
 6400W        W22209   2.231  12.629   4.174  0.0112 -0.1488  0.2167
 6401W        W22210   5.430  12.829   3.500  0.0828  0.1192 -0.0251
 6402W        W22211   7.161   9.548   3.407 -0.0014  0.0587 -0.2289
 6403W        W22212   1.793  10.718  15.354 -0.2073 -0.1032 -0.1703
 6404W        W22213   6.260   5.342   2.627  0.2082 -0.0392  0.3746
 6405W        W22214  16.877  11.168  14.736 -0.0303 -0.0768 -0.0906
 6406W        W22215  11.803   3.774  12.358 -0.2713 -0.1288  0.0220
 6407W        W22216   5.762  17.319   3.760 -0.0798  0.1249  0.1278
 6408W        W22217   5.337   2.059   4.929  0.1322 -0.0593  0.2230
 6409W        W22218  11.866  11.509  13.356 -0.1586  0.2531 -0.1732
 6410W        W22219  11.796   3.973  14.826 -0.2250 -0.3121  0.0874
 6411W        W22220   4.575   5.067   1.942  0.0043  0.0158  0.1171
 6412W        W22221   2.640   7.771  12.007  0.1666 -0.0601  0.1029
 6413W        W22222  10.227   3.650  16.493 -0.5277  0.5429 -0.1420
 6414W        W22223  13.180   6.458   0.966 -0.4360  0.0722  0.1914
 6415W        W22224   2.104  15.457   5.210  0.0456  0.0850 -0.1665
 6416W        W22225   2.272   9.407   4.414  0.1611  0.0798  0.3343
 6417W        W22226  11.170   9.069   2.472 -0.0419 -0.0874  0.0458
 6418W        W22227  15.590  10.962  15.462 -0.1403  0.2706 -0.1291
 6419W        W22228  14.929   2.617   2.639 -0.2482  0.1183  0.1956
 6420W        W22229   7.872  10.089   5.112  0.0361  0.0637 -0.1440
 6421W        W22230   8.197  12.073   5.630  0.1048 -0.1860 -0.0210
 6422W        W22231   1.751   7.664   1.296  0.1232  0.2447 -0.0630
 6423W        W22232  15.051   4.811   6.977 -0.3266 -0.1578  0.4746
 6424W        W22233  17.483   1.064   1.768 -0.0205  0.1393  0.1853
 6425W        W22234   8.469   1.955   3.901 -0.1436  0.0760 -0.1222
 6426W        W22235  14.655   4.875   2.499 -0.0366  0.0223  0.1033
 6427W        W22236  15.336   2.225   5.878 -0.1636  0.0014  0.1407
 6428W        W22237   0.826  16.273  11.347  0.4078 -0.0411  0.1371
 6429W        W22238  14.452   0.195   0.525  0.0549  0.0640  0.1195
 6430W        W22239   1.448   8.943   1.762 -0.0631 -0.0862 -0.2726
 6431W        W22240   5.785  16.456  13.036  0.1561  0.3013  0.0685
 6432W        W22241   2.290  15.439   3.549 -0.0687 -0.0318  0.3003
 6433W        W22242   6.302  15.459  16.458  0.0942 -0.2091 -0.1399
 6434W        W22243  11.881  10.973  14.529 -0.1464 -0.0265  0.1461
 6435W        W22244   2.681  10.638  14.971  0.3043 -0.2423 -0.0374
 6436W        W22245   3.107  13.888  16.546 -0.1336 -0.3952 -0.1181
 6437W        W22246  15.895   7.821   1.295 -0.0881 -0.1186 -0.0382
 6438W        W22247  14.867   3.587  11.156 -0.1922 -0.4312  0.3094
 6439W        W22248  15.009   5.039  12.058  0.1746 -0.0805 -0.1874
 6440W        W22249   6.291   6.361   0.138  0.1569  0.2076 -0.0888
 6441W        W22250   8.307  16.923  12.429 -0.0075 -0.3263 -0.0543
 6442W        W22251  14.242   8.362   0.810  0.0753  0.1665 -0.4016
 6443W        W22252  13.507  14.017  12.792  0.0285  0.1952  0.1928
 6444W        W22253  13.451   6.008   6.491 -0.2506  0.0263 -0.0040
 6445W        W22254   7.687  10.498   1.971 -0.1591  0.3030  0.5073
 6446W        W22255   2.835   0.968  13.650 -0.1108 -0.1757  0.0561
 6447W        W22256  17.700   9.006  11.780  0.1539 -0.2542 -0.0615
 6448W        W22257   6.009   7.992  14.820 -0.1125 -0.2251 -0.1060
 6449W        W22258  10.276  14.221  12.817  0.0340  0.0373 -0.0617
 6450W        W22259   4.227  13.682  11.964  0.1691  0.2183  0.2633
 6451W        W22260  12.430  13.684   0.829  0.3533  0.0410  0.0625
 6452W        W22261  15.423  11.658   0.544  0.0718 -0.2517 -0.1151
 6453W        W22262   4.061   0.220  14.302 -0.0904 -0.2247  0.0214
 6454W        W22263   3.980   6.624   5.135  0.1177 -0.0680  0.1324
 6455W        W22264  10.647   3.095  14.888  0.4020  0.1548  0.0058
 6456W        W22265   0.682  12.221   5.939  0.0923  0.0497  0.1342
 6457W        W22266   2.458   7.291   5.071 -0.1295 -0.0209 -0.2126
 6458W        W22267  14.809  13.675  13.222 -0.0149 -0.2219  0.2230
 6459W        W22268  14.104   3.817   2.326  0.0517 -0.0606  0.0347
 6460W        W22269   0.776   7.833   2.195  0.3750 -0.1271  0.3263
 6461W        W22270   3.019  14.043  14.801  0.0590 -0.0072 -0.0394
 6462W        W22271  15.970  12.854   0.092 -0.1840  0.1189  0.0776
 6463W        W22272  15.406   8.992   2.210  0.1672  0.1076  0.0221
 6464W        W22273  11.294   3.695  15.179 -0.1055  0.2540  0.1107
 6465W        W22274  16.967  11.673  13.938 -0.1019  0.3572 -0.1107
 6466W        W22275  13.958  12.067   6.089  0.1365  0.1731  0.2563
 6467W        W22276   2.764   8.986   0.865 -0.2860  0.3791 -0.0380
 6468W        W22277   2.588  15.702   5.181  0.1946 -0.3085  0.3693
 6469W        W22278  11.572   3.621  15.634  0.1088  0.0196 -0.2099
 6470W        W22279   6.393  11.222   0.780 -0.1343 -0.5789  0.1532
 6471W        W22280  16.271  15.319  14.691 -0.1713 -0.1257 -0.0405
 6472W        W22281   3.358  14.295   2.325 -0.0864  0.0052  0.0924
 6473W        W22282   2.781   5.789   2.953  0.0489  0.0440 -0.1470
 6474W        W22283  16.684   7.848  15.814 -0.2079  0.0873  0.0912
 6475W        W22284   8.994   3.830   2.603 -0.0308 -0.2332 -0.0862
 6476W        W22285   9.901   1.959  16.521 -0.0134 -0.0332 -0.1356
 6477W        W22286  10.693  12.858  14.999 -0.0600 -0.2152  0.1257
 6478W        W22287   3.315   6.209   3.397 -0.1148  0.2392  0.1556
 6479W        W22288   0.821   0.758   1.431  0.1629  0.0454 -0.1457
 6480W        W22289   7.051  12.972  13.541 -0.1358 -0.0634 -0.1127
 6481W        W22290  12.615   9.619   4.399  0.2013 -0.1971  0.2648
 6482W        W22291   7.814   1.420  14.460  0.0472 -0.1678 -0.0398
 6483W        W22292  14.222   3.907  13.719 -0.0156  0.0656  0.0671
 6484W        W22293   6.244  10.233  16.982  0.0894  0.1092 -0.2389
 6485W        W22294   1.051   9.138   3.628 -0.1730 -0.1037  0.0162
 6486W        W22295   3.973   2.047  15.357 -0.0243 -0.0049  0.0296
 6487W        W22296   1.686   3.901  16.191 -0.0342  0.1872 -0.1005
 6488W        W22297   4.590   5.034   5.838  0.1042  0.0063 -0.0878
 6489W        W22298   4.306  11.260   1.290 -0.2335  0.0518 -0.0266
 6490W        W22299   9.746   2.540   2.042 -0.0377 -0.3876  0.0811
 6491W        W22300  13.299   6.901   4.298  0.0533  0.1217 -0.1213
 6492W        W22301  17.130  10.546   0.886 -0.1728  0.1269  0.0566
 6493W        W22302   1.578  12.953  13.197  0.0175  0.3945  0.1861
 6494W        W22303   3.509  10.169  13.442  0.2237  0.1549 -0.0117
 6495W        W22304   0.307   8.173  13.052  0.0693 -0.1171 -0.0961
 6496W        W22305  10.476  17.228  16.135  0.1189  0.0939  0.0501
 6497W        W22306  17.643  15.614  15.276  0.2310  0.1847  0.2713
 6498W        W22307  14.432   5.667   2.446  0.0943 -0.0862  0.3431
 6499W        W22308  14.696  16.118  15.208 -0.0006  0.3685  0.1246
 6500W        W22309  15.616   1.848  12.199 -0.1237 -0.2745 -0.2766
 6501W        W22310  15.637   6.225   6.069  0.0558  0.2013  0.4039
 6502W        W22311   1.867  14.924  12.817 -0.2826 -0.0548  0.1630
 6503W        W22312   4.841   8.227  15.668 -0.2050  0.0973 -0.1479
 6504W        W22313  11.884   1.247   3.821  0.0079  0.0305  0.1836
 6505W        W22314  13.776   0.806  12.495 -0.1789  0.0954  0.3260
 6506W        W22315  12.543   4.223   3.879  0.0630  0.0227  0.1482
 6507W        W22316   5.943  17.037   3.299  0.3091  0.1259  0.0874
 6508W        W22317   6.008   3.641  12.361 -0.0346 -0.0029 -0.0860
 6509W        W22318  17.083  17.539  14.979  0.1149  0.2326  0.2166
 6510W        W22319  11.522  13.129   4.465  0.1566  0.0584 -0.1254
 6511W        W22320  16.410   4.410   4.894  0.1314 -0.1586 -0.0786
 6512W        W22321   7.952  10.399  12.011  0.1084 -0.0604 -0.2028
 6513W        W22322  14.507  11.776   0.759 -0.1524  0.1950  0.1486
 6514W        W22323   4.617  11.429  16.776 -0.3589  0.1774 -0.0730
 6515W        W22324  12.290  15.866   1.169 -0.2028  0.1315 -0.0176
 6516W        W22325  14.984   4.213   3.737  0.2109 -0.1397  0.1076
 6517W        W22326   0.518   2.996   2.196  0.1113  0.2747  0.0903
 6518W        W22327   2.289   6.182  13.653  0.0827 -0.4622 -0.0913
 6519W        W22328   7.619  15.986   0.339  0.2048 -0.0629  0.2064
 6520W        W22329   1.311   9.872  13.925  0.2289  0.0828 -0.4828
 6521W        W22330  13.325   2.914  13.215  0.0972 -0.1217 -0.0705
 6522W        W22331   2.422  12.273  12.590  0.1626 -0.1256 -0.0232
 6523W        W22332   9.404  13.242   2.712  0.0594  0.0192 -0.1130
 6524W        W22333   6.978  13.677  11.706 -0.1306  0.0262  0.1249
 6525W        W22334  16.672   8.572  16.987 -0.1120  0.0766  0.1913
 6526W        W22335  11.542   8.016  16.920  0.5852  0.1122 -0.1579
 6527W        W22336   3.392  11.468   0.373 -0.1539  0.1444  0.2376
 6528W        W22337   6.374   9.289   3.924  0.2471  0.0528  0.2940
 6529W        W22338   3.549   4.606  14.776 -0.0718  0.0362 -0.0475
 6530W        W22339  17.673   4.952  15.754 -0.0547  0.0066  0.4392
 6531W        W22340   3.459  16.464  16.157  0.0323 -0.0407 -0.1172
 6532W        W22341   1.000  15.101  14.825 -0.0673 -0.1422 -0.0328
 6533W        W22342   1.551   3.341   1.424  0.1930  0.0523  0.0843
 6534W        W22343   1.755   1.443   0.126 -0.1442 -0.0399  0.1028
 6535W        W22344   6.900   8.517   4.438 -0.1271  0.0858  0.1162
 6536W        W22345   6.365   4.591  11.648  0.0737 -0.0292  0.3712
 6537W        W22346  12.010   6.528  12.693  0.0856  0.1197 -0.1972
 6538W        W22347  14.477  11.694  12.610 -0.0613 -0.0137 -0.0788
 6539W        W22348   6.871  14.955   4.927  0.1516 -0.2928 -0.2535
 6540W        W22349  16.074  16.193  15.782  0.1381  0.0962  0.0133
 6541W        W22350   6.475   1.516  16.780  0.2222  0.1680 -0.0345
 6542W        W22351  12.003   3.208   5.412  0.2001  0.0033  0.1716
 6543W        W22352   6.662   3.012   5.952  0.0004  0.0700 -0.2404
 6544W        W22353  16.449  13.846  14.150  0.2031 -0.1741 -0.1306
 6545W        W22354  13.535   4.354  14.452 -0.2074  0.3697  0.1021
 6546W        W22355   2.795   4.595   0.442  0.1046 -0.0667 -0.1586
 6547W        W22356   6.539   2.982   4.510  0.3542 -0.0312 -0.1325
 6548W        W22357   6.033  13.676  14.788  0.0833 -0.2413  0.0308
 6549W        W22358   9.052   7.108  11.040 -0.0429  0.0394  0.1651
 6550W        W22359   9.251  10.999  16.225 -0.0108 -0.0596  0.1113
 6551W        W22360  16.096   3.617  11.529  0.0302 -0.0777  0.0912
 6552W        W22361   6.228   2.147   4.741 -0.3647  0.0183  0.0762
 6553W        W22362  16.465   9.612  15.087  0.0513 -0.0227 -0.1949
 6554W        W22363  14.052   3.454  11.433 -0.2650  0.2843  0.0062
 6555W        W22364  16.182   9.478  13.337  0.1053  0.1858 -0.0270
 6556W        W22365   9.885   4.992  16.061  0.2254  0.1318 -0.1259
 6557W        W22366   2.979  15.845  12.272 -0.0614 -0.3311  0.1069
 6558W        W22367   1.430  16.398   4.783 -0.1478 -0.3854  0.0352
 6559W        W22368   3.019   5.551   3.347 -0.0897  0.0002 -0.0476
 6560W        W22369   9.523  14.826  11.264  0.2171 -0.1073  0.1881
 6561W        W22370   4.226   3.341   2.219 -0.2886 -0.3882  0.3539
 6562W        W22371  12.169   5.582   4.354 -0.0534  0.1571  0.0700
 6563W        W22372   8.725  10.723  11.537  0.2752  0.4658  0.0452
 6564W        W22373  17.270  14.023   4.391 -0.0138  0.0557 -0.1958
 6565W        W22374   2.347  17.038   1.617  0.1252 -0.0468 -0.2714
 6566W        W22375   1.145   3.105   2.069 -0.3377  0.3861  0.2026
 6567W        W22376  13.743  10.925  15.731 -0.1391  0.0715  0.1561
 6568W        W22377   4.716  13.781   1.693  0.0955 -0.0585  0.0863
 6569W        W22378   9.128   4.133  14.884  0.1795 -0.3924 -0.0364
 6570W        W22379   3.742   0.959  12.326 -0.1644 -0.0539 -0.1984
 6571W        W22380  17.225  14.885   4.861 -0.0471  0.0242 -0.0353
 6572W        W22381   4.654   2.391  14.701  0.1485  0.0622 -0.2742
 6573W        W22382   7.439  16.658  15.366  0.0164  0.2237  0.2564
 6574W        W22383  15.470  13.411  16.722  0.3563  0.0103  0.3858
 6575W        W22384   5.241  11.765   2.540  0.4240  0.0949  0.2200
 6576W        W22385   8.794   5.111   0.920 -0.2625 -0.0522 -0.0582
 6577W        W22386   2.672   7.366   0.047  0.0263  0.1023  0.2250
 6578W        W22387   9.022  11.484  13.092 -0.1687 -0.0066 -0.3633
 6579W        W22388  14.047   0.960  16.960 -0.1615 -0.0096 -0.0352
 6580W        W22389  14.151   2.679  13.522 -0.0630  0.1786  0.1510
 6581W        W22390  15.522  14.025  11.779 -0.0667  0.1205 -0.1861
 6582W        W22391   1.911  16.900  13.385 -0.0420  0.1143 -0.0104
 6583W        W22392  10.890   0.543   1.675 -0.1269  0.2009  0.1138
 6584W        W22393  12.819   7.307   2.464 -0.0045 -0.0234  0.0032
 6585W        W22394  14.293   2.058   4.812 -0.0033 -0.0126 -0.1471
 6586W        W22395   4.987  12.688   0.006 -0.0560 -0.0571  0.2028
 6587W        W22396  12.359   1.830   2.775  0.1608 -0.0012  0.0663
 6588W        W22397   0.696  10.317  13.491  0.0617  0.1930 -0.1161
 6589W        W22398  15.734   1.661   2.947  0.0168  0.3440  0.1084
 6590W        W22399   6.225  12.158  11.821  0.0597 -0.1316  0.1284
 6591W        W22400  12.082   3.374   0.565 -0.2012  0.0141 -0.0717
 6592W        W22401   0.232  10.179  13.302 -0.0758 -0.0169  0.1656
 6593W        W22402   5.860  14.872  12.297 -0.0281 -0.0925  0.0546
 6594W        W22403   7.598   6.614   6.099  0.0565  0.2489  0.1311
 6595W        W22404   6.832  17.609  11.776  0.1410 -0.1035 -0.1121
 6596W        W22405  14.582   6.231  16.284  0.2370  0.0558 -0.0853
 6597W        W22406   3.552   6.009  11.663  0.0304 -0.1485  0.0549
 6598W        W22407   3.541   5.630   4.202  0.3655 -0.2667 -0.3658
 6599W        W22408   0.821  10.128  16.364 -0.0569 -0.2218 -0.0519
 6600W        W22409   3.075  14.344   2.990  0.1372  0.1222  0.1499
 6601W        W22410   3.138  17.058   1.122 -0.1915  0.0770 -0.1432
 6602W        W22411   9.182   1.250  11.922 -0.2123 -0.2644 -0.2474
 6603W        W22412   0.161   9.474  15.870 -0.0384 -0.1248 -0.1236
 6604W        W22413   8.845  16.597  16.792 -0.0611  0.1496  0.0663
 6605W        W22414  15.128  11.396  14.843  0.0908  0.1063  0.1775
 6606W        W22415   8.903   8.105   4.012 -0.0183 -0.2010  0.1483
 6607W        W22416  13.308  14.257  16.026 -0.0612 -0.3772 -0.1863
 6608W        W22417   1.501  16.629   3.442 -0.0504  0.2579 -0.2949
 6609W        W22418  15.053   7.174  14.261 -0.0877  0.1034  0.1152
 6610W        W22419  13.132   1.142   3.047 -0.0897 -0.1362  0.1936
 6611W        W22420   8.602   9.454  13.614 -0.1900 -0.0557  0.1524
 6612W        W22421  13.810   5.518   1.805 -0.2482 -0.0774  0.0709
 6613W        W22422   7.940  16.938   4.920  0.2135 -0.1491 -0.1412
 6614W        W22423   4.780   2.044  14.272  0.1444 -0.1204  0.4021
 6615W        W22424   0.848  12.130   0.668 -0.1665  0.1521 -0.0634
 6616W        W22425   6.013  16.410   3.015 -0.3232 -0.2272  0.2722
 6617W        W22426  14.628   9.234   2.797 -0.0801  0.2870 -0.3470
 6618W        W22427  10.141  15.074   5.275  0.1555 -0.1793  0.0820
 6619W        W22428   8.041   1.557   2.659 -0.1559 -0.0375 -0.2417
 6620W        W22429   3.925  13.507  12.351  0.0291 -0.1710  0.1882
 6621W        W22430  11.373   4.129  12.582  0.1522  0.0720 -0.1922
 6622W        W22431  12.898   1.488  13.486  0.1741 -0.1485 -0.1124
 6623W        W22432   3.480  10.877   6.024 -0.1012 -0.1910 -0.0771
 6624W        W22433   7.370   0.636   2.811  0.2026 -0.1361 -0.4946
 6625W        W22434   3.567  10.525   3.161  0.1448  0.0814 -0.0539
 6626W        W22435  11.713   1.104   0.472 -0.1195 -0.1017 -0.0267
 6627W        W22436   6.334   3.807   1.685 -0.0595 -0.0911  0.0077
 6628W        W22437   2.747  12.277   5.041  0.2459  0.2359 -0.0572
 6629W        W22438   0.751  16.455   2.473  0.3132  0.1086 -0.1104
 6630W        W22439  13.613   8.756   0.313 -0.1227  0.0566 -0.1230
 6631W        W22440  16.941  14.259   3.724 -0.2807 -0.1880 -0.1000
 6632W        W22441   7.752   5.983  14.888  0.1073  0.0535  0.0914
 6633W        W22442   7.779   7.917  14.588 -0.1033 -0.0651  0.0846
 6634W        W22443   4.932   9.694  16.552  0.0952 -0.2042 -0.0788
 6635W        W22444   8.576   6.549  13.277  0.1485  0.2425  0.1419
 6636W        W22445  12.694   5.434   0.847 -0.3190 -0.0265  0.1848
 6637W        W22446   1.640   3.718   2.592 -0.0294 -0.0132  0.0812
 6638W        W22447  12.083  10.398   5.707 -0.1147 -0.2498 -0.3822
 6639W        W22448  10.271  13.248   1.295 -0.0908  0.1919  0.1761
 6640W        W22449  16.396  17.678  14.464  0.1353  0.0371 -0.5091
 6641W        W22450  10.391  16.597  14.772  0.1699  0.0434 -0.0332
 6642W        W22451  13.500  15.088   3.138 -0.0162  0.2114  0.0695
 6643W        W22452   2.236   9.267   3.912  0.1446  0.4308 -0.0750
 6644W        W22453   0.435   9.245  15.491 -0.0697 -0.3491 -0.2212
 6645W        W22454  11.188   7.707   4.838  0.0985  0.1350 -0.1617
 6646W        W22455   6.834   1.286  13.320  0.2587 -0.1022  0.1163
 6647W        W22456   4.414  11.331   4.934 -0.2072  0.0755 -0.1137
 6648W        W22457  11.957   6.433  13.698  0.1620  0.2726  0.1365
 6649W        W22458  16.395   2.377   1.052  0.0984 -0.0039  0.1643
 6650W        W22459  16.584   0.336  11.962  0.0657  0.0219 -0.0664
 6651W        W22460   2.818  15.213   3.642 -0.1376  0.0805 -0.0382
 6652W        W22461  10.381   5.348  15.932  0.1466 -0.1131  0.1680
 6653W        W22462  15.299   7.514   2.051 -0.1791  0.0441  0.1502
 6654W        W22463  13.544   0.812   3.963  0.2791  0.3146  0.1157
 6655W        W22464   0.426   6.182  12.953  0.3667  0.0739 -0.0212
 6656W        W22465   6.678   2.172   2.137 -0.1249 -0.1621 -0.1698
 6657W        W22466   2.416   7.610   0.834 -0.0809  0.0970 -0.0408
 6658W        W22467  17.277  11.061   1.246 -0.0590 -0.2784  0.0899
 6659W        W22468  15.783   5.112  12.362 -0.2415  0.2369 -0.1884
 6660W        W22469  14.089   1.029  14.603 -0.0317  0.0386  0.0851
 6661W        W22470   0.739   2.525   2.036 -0.1828 -0.0693 -0.1078
 6662W        W22471   9.071  15.392   3.553  0.0140  0.0714  0.2407
 6663W        W22472  14.866   1.557  14.561 -0.2344 -0.0171  0.1374
 6664W        W22473  12.876  16.728   1.257  0.4107  0.1346 -0.0727
 6665W        W22474   4.785  10.406   2.870 -0.2111 -0.1915  0.3944
 6666W        W22475  17.640   1.181  13.548  0.2120 -0.0614  0.2483
 6667W        W22476   1.901   0.109  14.526  0.2038  0.2607 -0.4298
 6668W        W22477   3.887  10.972  14.225  0.0128 -0.0085 -0.0849
 6669W        W22478  13.967  17.113  15.394  0.1033  0.1365 -0.1598
 6670W        W22479   4.381  13.724   0.693 -0.1561  0.3712  0.2432
 6671W        W22480  10.229  16.198   5.218  0.1659  0.0118  0.1684
 6672W        W22481   4.866   2.320  16.492 -0.1051 -0.0923  0.1898
 6673W        W22482  16.544  10.745   1.844  0.3029 -0.1315 -0.2516
 6674W        W22483   8.287   3.263  12.638  0.0190 -0.0179  0.0115
 6675W        W22484   5.969  12.581  15.733 -0.1903 -0.0906  0.0560
 6676W        W22485  17.546   0.296   3.619 -0.1192  0.0439 -0.1757
 6677W        W22486  14.453   0.591  16.782  0.0521  0.1574 -0.0815
 6678W        W22487  13.601  15.044   1.834  0.2528 -0.1241 -0.1524
 6679W        W22488  15.862   9.099   2.360 -0.0020  0.1306 -0.5894
 6680W        W22489  10.481   2.774  13.776 -0.0139  0.2038  0.3185
 6681W        W22490  11.351  14.785   0.205  0.1804 -0.0733 -0.0038
 6682W        W22491  11.436   0.949   3.531  0.0134 -0.1664  0.3420
 6683W        W22492   6.883   1.251   0.068  0.0315 -0.2054  0.1119
 6684W        W22493   3.577  15.287   0.832 -0.3212  0.5495  0.4697
 6685W        W22494  14.828  14.321  12.625 -0.2532  0.2712 -0.1353
 6686W        W22495  15.137   3.650   1.726 -0.3159  0.0752 -0.1184
 6687W        W22496  14.039   3.702   4.506 -0.2682  0.5451 -0.1481
 6688W        W22497   4.689   7.762   0.196 -0.3371 -0.1813  0.0350
 6689W        W22498  15.036   6.266  15.449  0.0792 -0.0682 -0.3028
 6690W        W22499   6.417  14.984  11.036  0.2908  0.2535  0.2024
 6691W        W22500  12.946   0.512   2.266 -0.1385  0.1064  0.1501
 6692W        W22501  11.654   9.334   0.787 -0.0074  0.1078 -0.2819
 6693W        W22502  12.617   8.839  15.667  0.1015 -0.1529 -0.0827
 6694W        W22503  17.560   8.814   0.476  0.0458  0.1899 -0.0542
 6695W        W22504   8.860   0.625  12.951 -0.0788 -0.0197 -0.2267
 6696W        W22505   1.456   9.929   1.757 -0.2785  0.3201  0.0484
 6697W        W22506   5.193   8.759  15.806  0.2379 -0.0587  0.1671
 6698W        W22507   0.009  17.386   1.631 -0.0491  0.1821 -0.0063
 6699W        W22508   9.397   0.511   3.668 -0.0049  0.0260 -0.0144
 6700W        W22509  11.917   7.122   2.659  0.1103  0.0734  0.1389
 6701W        W22510   2.091  17.546  12.745  0.2759 -0.0148 -0.0383
 6702W        W22511   2.127   7.217   5.517  0.2009 -0.0171 -0.1355
 6703W        W22512  12.759   3.917  16.751  0.0841  0.1769  0.0994
 6704W        W22513   4.093   2.902   5.190 -0.0911 -0.0972 -0.2077
 6705W        W22514  17.044  11.123   2.417  0.3449 -0.1015  0.1104
 6706W        W22515   5.671  12.981   5.248 -0.0518  0.0345  0.0887
 6707W        W22516  17.334  12.292   0.688  0.2926  0.0696 -0.0497
 6708W        W22517   6.669   9.106  14.414  0.3129  0.0592 -0.3411
 6709W        W22518  15.341  13.492   0.681 -0.1967 -0.2176  0.0854
 6710W        W22519  12.100   7.881   4.874 -0.1000  0.0957  0.3632
 6711W        W22520   6.836   1.119   2.339  0.0835 -0.4255 -0.1261
 6712W        W22521   7.855   8.557  15.773  0.0607 -0.4917 -0.2055
 6713W        W22522   8.673   0.963  13.272  0.0156  0.4720 -0.0151
 6714W        W22523   9.477   3.047   2.142 -0.1388 -0.0254 -0.3458
 6715W        W22524   3.466   7.391   3.462  0.0320 -0.1376  0.3358
 6716W        W22525  16.829   9.451   4.824  0.0361  0.0746  0.1233
 6717W        W22526  14.755   8.530   0.819  0.1350 -0.0763 -0.2628
 6718W        W22527   2.755  14.448  14.055  0.1568  0.0981 -0.1955
 6719W        W22528  11.525   0.870  16.075  0.1302  0.0423  0.0192
 6720W        W22529   5.598  15.170   1.044  0.0371  0.0029  0.2182
 6721W        W22530  17.103  11.351   1.633  0.0129  0.0758  0.2025
 6722W        W22531  14.449   2.595  14.862 -0.0379 -0.2364 -0.1049
 6723W        W22532  11.971   8.796  13.829  0.1885 -0.2285  0.0150
 6724W        W22533  14.938   2.491   0.874 -0.1607 -0.0497 -0.0865
 6725W        W22534   7.204   7.912  14.150 -0.1315 -0.0072  0.3360
 6726W        W22535   5.997  17.448   1.954 -0.0040  0.1746 -0.0983
 6727W        W22536   1.856   6.184   0.402  0.1271 -0.2585 -0.2020
 6728W        W22537   6.435   0.733  13.083  0.0682  0.0180 -0.0161
 6729W        W22538   3.672  11.490   4.245  0.0839  0.0136  0.3588
 6730W        W22539   4.087   3.028   4.089  0.0662  0.0196  0.0525
 6731W        W22540   6.312  13.351  10.499 -0.0054  0.3353 -0.0325
 6732W        W22541  11.671   7.625   1.867 -0.1939 -0.1629 -0.2201
 6733W        W22542  12.810   2.450   4.095  0.3132 -0.3253 -0.1053
 6734W        W22543   8.335   7.780  16.920 -0.0439  0.2524  0.1222
 6735W        W22544   4.938   3.457   5.330  0.0285 -0.0528 -0.3356
 6736W        W22545   3.357  11.668  13.765 -0.3367 -0.0161  0.1832
 6737W        W22546  10.272  13.583   0.301 -0.0037 -0.1296  0.0428
 6738W        W22547  14.317   1.342  10.949 -0.0456 -0.1429 -0.1898
 6739W        W22548  15.530  11.668  12.954  0.0138  0.0294  0.0524
 6740W        W22549   0.677  10.374  15.865 -0.1918  0.0426 -0.1802
 6741W        W22550   4.474  17.333   3.663 -0.0241 -0.1868 -0.2310
 6742W        W22551  15.752  17.515  15.801 -0.1103  0.1765 -0.3704
 6743W        W22552   3.257   3.725   6.012 -0.1258 -0.1891 -0.0118
 6744W        W22553  15.598  11.303   2.460  0.0263 -0.0081  0.2326
 6745W        W22554  16.502  11.423  13.793 -0.1361 -0.1689  0.0435
 6746W        W22555   9.081   5.502  16.466 -0.1496 -0.0505  0.1576
 6747W        W22556   5.145  14.281   0.862 -0.1256  0.4623 -0.1745
 6748W        W22557   3.713   4.514  12.571 -0.0670  0.1108  0.1316
 6749W        W22558  10.083   0.059  15.729 -0.1848  0.1010 -0.3083
 6750W        W22559   3.429   6.653  13.652 -0.2312 -0.0342  0.1176
 6751W        W22560  16.457  14.749  14.724  0.1909 -0.2137 -0.3952
 6752W        W22561  17.289   1.603  15.710 -0.0518  0.0505  0.0536
 6753W        W22562  12.142  13.163  13.785  0.3502 -0.0847  0.0763
 6754W        W22563  17.177  13.295  14.062 -0.4754  0.4118  0.1042
 6755W        W22564   5.939   0.989   4.850 -0.1589  0.3147  0.0557
 6756W        W22565  11.247  12.758  14.352 -0.0409 -0.3598 -0.0599
 6757W        W22566   2.337   4.740   1.358  0.2969  0.2643  0.0337
 6758W        W22567   6.888   0.135   1.705 -0.0385 -0.2353  0.1709
 6759W        W22568  16.476   5.518  16.024 -0.5122  0.0211 -0.1253
 6760W        W22569  15.341  11.331   4.022  0.1129 -0.1542 -0.0335
 6761W        W22570  11.496   9.946   3.740 -0.1764  0.1542  0.2049
 6762W        W22571   6.281  16.544   0.882  0.1510  0.2191 -0.0079
 6763W        W22572  15.500   6.980   3.275 -0.0919 -0.0686  0.0590
 6764W        W22573  11.985   6.521  16.164 -0.1357  0.1160  0.1729
 6765W        W22574  11.909  13.402  15.332 -0.3306 -0.0140  0.1062
 6766W        W22575   3.917   0.768  15.096  0.2955  0.1433 -0.3864
 6767W        W22576  11.509  10.054  11.425 -0.2192  0.1764  0.2634
 6768W        W22577   3.116   3.031  16.511 -0.0744  0.1750  0.2242
 6769W        W22578  11.239  17.129  14.397  0.1078  0.0958  0.0840
 6770W        W22579   8.172   8.729   3.912  0.1890  0.3492  0.0672
 6771W        W22580   1.611   2.112   3.802  0.0517  0.0202 -0.0688
 6772W        W22581  15.048   9.514  11.874 -0.0392 -0.4176  0.0512
 6773W        W22582   4.357  11.632   0.146 -0.1927  0.2847  0.0555
 6774W        W22583   6.808  16.857   6.194 -0.2007 -0.0696 -0.1167
 6775W        W22584  14.458   1.077   3.975 -0.2702  0.0657 -0.4269
 6776W        W22585  16.243  17.422   0.089  0.0500 -0.0354 -0.1536
 6777W        W22586   4.285   9.893   5.543  0.0240  0.0448  0.1682
 6778W        W22587  12.926   4.666  13.660 -0.0303 -0.1219  0.2386
 6779W        W22588   5.621  11.739  16.700  0.0204 -0.1047  0.0047
 6780W        W22589  12.626  13.628   2.417  0.0719  0.1963 -0.1365
 6781W        W22590   2.446   8.312   3.649  0.3823  0.2759 -0.4194
 6782W        W22591   9.280  13.823   0.193 -0.0634 -0.0528  0.1394
 6783W        W22592   5.012   7.985  16.380 -0.0605  0.0434 -0.2073
 6784W        W22593   4.979   7.553  15.003 -0.0482 -0.2788  0.1457
 6785W        W22594  12.930  14.596  13.611  0.1297  0.2175 -0.2693
 6786W        W22595  11.799  14.878   0.452  0.0224  0.1142  0.3749
 6787W        W22596  10.794  16.618  13.192  0.1673  0.2391 -0.0206
 6788W        W22597   5.712  11.107   3.015  0.0592 -0.0085 -0.1971
 6789W        W22598   2.674   2.025   0.019  0.0257 -0.2181  0.1830
 6790W        W22599   8.781  16.692  12.199 -0.2644  0.0737  0.0494
 6791W        W22600  15.657  12.387   2.367 -0.1233 -0.0573  0.1839
 6792W        W22601  17.272   5.357  16.302  0.0794  0.0940  0.1408
 6793W        W22602  12.632  11.684  15.991 -0.0392 -0.3449  0.1727
 6794W        W22603  13.858   1.786  14.268 -0.1098 -0.2090  0.0228
 6795W        W22604   0.402  13.371  11.548 -0.1544  0.2710  0.0009
 6796W        W22605   8.910  14.482   3.100  0.0919  0.2604 -0.2061
 6797W        W22606   8.431  14.847  13.719  0.0566  0.1445 -0.0447
 6798W        W22607   0.658  15.530  10.883 -0.3062 -0.1900  0.3185
 6799W        W22608  16.912  16.138  11.185  0.0590  0.1204  0.0740
 6800W        W22609  15.921   3.568   4.834  0.2228 -0.1438  0.1846
 6801W        W22610   2.066   5.763  13.758  0.2792  0.0320  0.3094
 6802W        W22611   1.784   0.534   1.172 -0.2006  0.0674  0.0253
 6803W        W22612  13.368   1.870  14.251  0.1765  0.0952  0.2329
 6804W        W22613   7.568  13.262  13.405 -0.1048  0.0421  0.1927
 6805W        W22614  12.708   8.087   1.197 -0.2927  0.3348  0.1615
 6806W        W22615  16.392   7.616   5.351  0.3768  0.0084 -0.1343
 6807W        W22616   2.659  11.800   5.220 -0.1293 -0.0473 -0.1699
 6808W        W22617   4.797  15.649  16.586 -0.0288 -0.0095 -0.0043
 6809W        W22618  17.701  15.877  11.939  0.1977 -0.3242 -0.2735
 6810W        W22619  17.002   0.792   4.167 -0.1219 -0.1523  0.1999
 6811W        W22620   2.371   8.163   0.266 -0.3324 -0.1055  0.0923
 6812W        W22621  15.117   2.269  13.733  0.0201  0.1608  0.1872
 6813W        W22622   2.558  17.011  16.320  0.2136 -0.2648  0.1251
 6814W        W22623  15.180  13.362  13.044 -0.0418  0.4759 -0.1364
 6815W        W22624   0.804   9.642   1.081  0.2525 -0.0660  0.0971
 6816W        W22625  14.542   8.846  14.347  0.0368 -0.1332  0.4072
 6817W        W22626   5.495  11.351   2.287  0.0266  0.0796 -0.1418
 6818W        W22627   3.138  11.914   0.125 -0.0953 -0.2566  0.3049
 6819W        W22628  12.483   5.574  15.885  0.1151 -0.0777 -0.2180
 6820W        W22629   9.315  10.968  14.404 -0.2121 -0.1346  0.2333
 6821W        W22630  15.219   8.835   1.680  0.0729 -0.0600 -0.0610
 6822W        W22631   3.257   2.588  14.335  0.0268 -0.0648 -0.0322
 6823W        W22632   0.904   7.459  16.323 -0.1711 -0.0079 -0.1852
 6824W        W22633  14.947   0.484   2.866 -0.2378  0.0844 -0.1312
 6825W        W22634   1.254   4.476   2.588 -0.1532 -0.4471 -0.1139
 6826W        W22635  15.718  11.614  16.551  0.1535 -0.1027  0.1523
 6827W        W22636  11.347  15.388   2.535  0.0865 -0.2171 -0.0860
 6828W        W22637   8.818   8.699  12.505  0.1236 -0.1134  0.1097
 6829W        W22638  11.725   6.704   0.168 -0.0428 -0.0637 -0.0341
 6830W        W22639  14.735   1.362   1.668  0.1724 -0.0664  0.3118
 6831W        W22640   4.077   8.960  12.774 -0.0473 -0.1340 -0.0391
 6832W        W22641   9.310   1.328  15.277 -0.0327 -0.1237  0.1086
 6833W        W22642   6.440  17.279  15.930 -0.2965 -0.0443 -0.0142
 6834W        W22643   4.986   7.698   4.950  0.0387 -0.1521  0.0557
 6835W        W22644   2.127  12.338   0.536  0.1361  0.0627  0.0340
 6836W        W22645  11.003  10.724   3.630 -0.1054  0.3975  0.2906
 6837W        W22646   2.598   2.628   0.825 -0.1833 -0.2306 -0.0200
 6838W        W22647   9.581   2.330  13.739  0.0413 -0.0816  0.1440
 6839W        W22648  17.018   6.017   5.048 -0.0866 -0.1656  0.0607
 6840W        W22649  12.643  17.525   0.641  0.2857 -0.1913  0.0480
 6841W        W22650   8.333  17.352  16.717  0.0957 -0.1140  0.3496
 6842W        W22651  13.936  13.339  15.732 -0.1669  0.1701 -0.1563
 6843W        W22652  13.758   6.257   3.310 -0.2020  0.2778  0.1951
 6844W        W22653  11.580  15.199   0.127  0.0133 -0.0600 -0.3095
 6845W        W22654   3.178   6.740   1.983  0.1626 -0.2474 -0.1786
 6846W        W22655  10.495   4.871   0.982 -0.1686  0.3463  0.1631
 6847W        W22656   6.145  15.158   1.032  0.1054  0.0821 -0.1289
 6848W        W22657   6.230   1.233  15.854 -0.0887  0.2451  0.1712
 6849W        W22658   8.389   2.822  14.812 -0.2785  0.0725 -0.0156
 6850W        W22659   2.487  14.155  12.743  0.0656  0.0133 -0.0205
 6851W        W22660  14.067   9.874   5.134  0.1288 -0.0577 -0.0544
 6852W        W22661  16.394   5.882  12.515  0.0526  0.1689 -0.1558
 6853W        W22662   8.463  17.382  10.480 -0.1869 -0.1639 -0.1804
 6854W        W22663  16.957   0.623  13.976 -0.1011 -0.1907 -0.0259
 6855W        W22664   8.869  17.715  15.946  0.1135 -0.1715 -0.4099
 6856W        W22665  11.262   3.791   5.396 -0.4010  0.0816 -0.0121
 6857W        W22666   3.216  14.713  12.434  0.2047 -0.0340 -0.2599
 6858W        W22667   5.619  17.471   5.631  0.1077 -0.2980  0.1232
 6859W        W22668  11.004   6.796   5.824 -0.1653  0.1423  0.1932
 6860W        W22669   9.102  16.973  14.201 -0.0481 -0.0056  0.0937
 6861W        W22670  11.045   6.878  12.326 -0.2639 -0.0783  0.0673
 6862W        W22671   1.113   0.786   5.412  0.1215  0.2839 -0.2249
 6863W        W22672  10.820   1.694  14.006 -0.2535  0.1429  0.0192
 6864W        W22673   4.580   1.388   4.013 -0.0064 -0.2160 -0.1506
 6865W        W22674   1.029  13.970   5.077  0.1039 -0.0434  0.3416
 6866W        W22675  15.608  10.733   3.349  0.1525  0.0166 -0.1768
 6867W        W22676  12.597  12.687  15.744 -0.0285 -0.0510  0.3000
 6868W        W22677  15.159  12.496  15.019  0.0014  0.1201  0.3841
 6869W        W22678   7.018   6.132   2.370  0.0741 -0.1674  0.2177
 6870W        W22679  12.065  14.804  13.806  0.0054  0.2541  0.0835
 6871W        W22680  10.925   9.978  13.086 -0.1286 -0.2555 -0.2360
 6872W        W22681   4.620  17.233   5.973  0.1167  0.2248  0.5543
 6873W        W22682  15.376   7.725  13.207  0.1075  0.0854 -0.0279
 6874W        W22683   3.145   8.200  14.759 -0.0835 -0.1912 -0.1506
 6875W        W22684  17.627  14.256   5.570  0.1728  0.2230 -0.1955
 6876W        W22685   7.629  13.269  16.998 -0.1265 -0.2857 -0.1442
 6877W        W22686  15.275   5.561   3.226 -0.1714  0.2035  0.3084
 6878W        W22687   6.408  10.982  14.936  0.0424 -0.4244 -0.1888
 6879W        W22688  14.657  16.463  12.536  0.0604  0.0050  0.4318
 6880W        W22689  10.612   2.461  12.072 -0.2590  0.0105 -0.0595
 6881W        W22690   5.026  14.182   2.185 -0.1368  0.0823  0.1259
 6882W        W22691  15.042  12.965  11.976  0.3137  0.2200 -0.2791
 6883W        W22692  11.816  10.461  13.302 -0.0511  0.1003 -0.2730
 6884W        W22693   2.148  17.278   2.100 -0.2220 -0.0654 -0.2178
 6885W        W22694  15.722   7.356  14.624  0.1380 -0.1008  0.0666
 6886W        W22695   9.009   0.343   1.879 -0.0188  0.0537 -0.0896
 6887W        W22696  13.182   5.681   4.746 -0.3548  0.1218  0.3059
 6888W        W22697  13.615  14.031   6.023  0.0217 -0.0670  0.4873
 6889W        W22698  13.599   0.347   4.874  0.1604  0.1027 -0.0370
 6890W        W22699  15.233   9.066  11.857  0.3218  0.1765 -0.1649
 6891W        W22700   3.964   2.068  16.260 -0.0570  0.3005 -0.0835
 6892W        W22701   0.500   5.231  13.326 -0.0316  0.0021  0.3097
 6893W        W22702  15.342   1.364  14.039  0.0797  0.3578  0.1795
 6894W        W22703   0.813  14.646   0.277  0.1918  0.2047  0.1942
 6895W        W22704   0.355   9.042   0.289 -0.2794  0.2139 -0.3338
 6896W        W22705   1.825   7.070   4.508 -0.3517  0.2694  0.1078
 6897W        W22706   6.980  10.516  12.930  0.0578  0.0590  0.2123
 6898W        W22707   7.337   2.285   5.122 -0.0211 -0.0985  0.0344
 6899W        W22708  13.028   2.274   2.461  0.3202 -0.0166 -0.1196
 6900W        W22709   4.686  10.715  15.286  0.2961  0.3349 -0.1676
 6901W        W22710   9.458   4.396  14.037  0.2416 -0.0591 -0.2694
 6902W        W22711   5.365   1.832  14.523 -0.0479 -0.1245  0.1352
 6903W        W22712  10.492  12.486  12.198 -0.2542 -0.0710  0.1601
 6904W        W22713  11.377  10.942  16.128 -0.2573  0.4629 -0.1571
 6905W        W22714   8.364  10.043   5.330  0.0705  0.0740  0.2049
 6906W        W22715  15.391   6.285  14.108 -0.3085 -0.1411  0.0296
 6907W        W22716  10.991  14.350  15.198 -0.0498 -0.0187  0.0825
 6908W        W22717  14.895   7.563   0.979  0.1586 -0.0273 -0.1096
 6909W        W22718  13.522  11.369   3.036 -0.2683  0.1710  0.0244
 6910W        W22719  11.016   5.464  15.194 -0.3840 -0.0014 -0.1366
 6911W        W22720   1.195  15.910  16.889 -0.0572  0.0162  0.1184
 6912W        W22721  15.952  14.151  14.208 -0.1294  0.1514  0.1686
 6913W        W22722  13.296   9.817   0.859  0.1288 -0.1396 -0.3674
 6914W        W22723   3.300  12.855  16.848 -0.0164  0.1534  0.0192
 6915W        W22724  11.312   8.531  16.266 -0.0482 -0.0301  0.1056
 6916W        W22725   6.772   4.485  15.142  0.1115 -0.0024 -0.2452
 6917W        W22726   2.827  17.153  15.893 -0.4982 -0.2589  0.0142
 6918W        W22727   9.959   2.843  13.017 -0.0003  0.2088 -0.0010
 6919W        W22728   8.683   5.290   6.378  0.3309  0.2199  0.0772
 6920W        W22729  11.889   2.955  12.822  0.0506  0.1517  0.0241
 6921W        W22730  13.424   3.199  12.831  0.0629 -0.1339  0.0530
 6922W        W22731  15.171  14.180   5.382  0.4655 -0.3745  0.0279
 6923W        W22732  16.006   6.557  12.257  0.2367  0.0613 -0.0836
 6924W        W22733  13.767   9.377   4.216  0.4590 -0.1377  0.0653
 6925W        W22734   2.718  13.261   3.829  0.2317 -0.0887  0.3131
 6926W        W22735   7.583  12.170   5.161  0.0141  0.1859 -0.3103
 6927W        W22736   7.087   9.400  16.303  0.0385  0.2063 -0.0000
 6928W        W22737   6.998  14.828  15.298  0.1249  0.0972 -0.0111
 6929W        W22738  12.398  17.287  14.640 -0.0068  0.3819  0.0081
 6930W        W22739  10.588  16.331  11.779 -0.0133 -0.2612  0.0251
 6931W        W22740  16.267   6.098   2.179 -0.0182  0.2702  0.2248
 6932W        W22741   7.543   4.659   5.732 -0.1962 -0.0767  0.5639
 6933W        W22742   4.012   0.049  12.263  0.0654  0.1590  0.0134
 6934W        W22743  10.690  11.073  10.782 -0.0385 -0.1184  0.0191
 6935W        W22744   0.733  14.930   3.043 -0.1405 -0.1946 -0.0148
 6936W        W22745  12.296   1.808   2.205 -0.0001  0.1620 -0.1541
 6937W        W22746   4.712   0.544  15.681 -0.3088  0.4278  0.0312
 6938W        W22747  12.758   7.465  13.303 -0.0542  0.3660 -0.2701
 6939W        W22748   9.551   1.352   4.741 -0.0094  0.1233 -0.2388
 6940W        W22749   4.013   9.766   1.287 -0.0299 -0.2760 -0.1056
 6941W        W22750  11.440   1.679   0.738 -0.0582 -0.1598 -0.1769
 6942W        W22751   4.754  10.922   5.048 -0.2878 -0.0310  0.1925
 6943W        W22752   4.475   1.189  14.812 -0.0402 -0.1087  0.1436
 6944W        W22753   3.183  15.281   6.219  0.3615  0.2964  0.0085
 6945W        W22754  15.604   6.444   0.999  0.0758 -0.3093  0.0173
 6946W        W22755  17.266   2.154  14.411  0.2178 -0.0854 -0.0017
 6947W        W22756  11.643   7.304  13.276  0.0762  0.0545  0.1909
 6948W        W22757   7.151  15.347  13.773  0.0938  0.1387  0.1705
 6949W        W22758   1.203   1.297   5.472  0.1919  0.0690 -0.0018
 6950W        W22759   8.088  12.961   1.979  0.1335  0.3475  0.2230
 6951W        W22760   1.709  15.407   1.055  0.2129  0.1483  0.0223
 6952W        W22761  11.587  12.256  12.214  0.3041  0.0414  0.4397
 6953W        W22762   1.024  16.506   3.003  0.0508 -0.0796  0.0264
 6954W        W22763   0.873  10.693  16.837  0.0436 -0.0107 -0.0443
 6955W        W22764  10.670   8.159  13.282  0.2457  0.1538 -0.1323
 6956W        W22765   2.658   0.314   0.927 -0.0270 -0.0647  0.1028
 6957W        W22766  11.463  15.858  16.664  0.1224  0.0966  0.0905
 6958W        W22767   5.616   3.105   3.958 -0.2770  0.0679  0.3752
 6959W        W22768  10.614  13.541  11.344  0.0624 -0.2124  0.0707
 6960W        W22769  11.780  16.873  16.433  0.0106  0.0245 -0.3756
 6961W        W22770   7.616   4.449   1.808  0.1101 -0.0078  0.2449
 6962W        W22771   1.000   5.538   1.279  0.2092 -0.0576  0.0698
 6963W        W22772  10.228  15.466   4.886  0.2363  0.1615  0.1874
 6964W        W22773  11.448  11.687  13.085 -0.3489  0.2713 -0.0806
 6965W        W22774   8.097  10.068   3.218  0.0065 -0.1999 -0.1065
 6966W        W22775  14.074   6.066  14.264  0.1695  0.1961  0.1805
 6967W        W22776   1.460   6.876   1.378 -0.0402 -0.2249 -0.1403
 6968W        W22777   0.206   3.386   4.817  0.0590  0.0147 -0.1825
 6969W        W22778   5.686  16.278  13.773 -0.1878  0.2084 -0.1093
 6970W        W22779  16.383  17.211  11.324  0.2363 -0.4173  0.3808
 6971W        W22780   3.726   5.137  15.883 -0.3629 -0.0501  0.2730
 6972W        W22781  16.529   0.124   0.315  0.1594  0.0493 -0.3475
 6973W        W22782  15.562   7.625   5.333  0.0581 -0.0635 -0.0534
 6974W        W22783  13.235   0.621  13.974  0.0093  0.0534  0.0356
 6975W        W22784  15.094  12.890  16.176 -0.1136 -0.0151  0.0030
 6976W        W22785  15.983   3.178   2.240  0.0730  0.0966 -0.0308
 6977W        W22786   1.754   5.244  14.019 -0.1737  0.2565 -0.3092
 6978W        W22787  13.357   5.130   0.118  0.4222  0.0245  0.0194
 6979W        W22788   0.935  12.035   6.566  0.0467 -0.1809 -0.0282
 6980W        W22789   5.480  17.266   4.154 -0.3180  0.0687  0.4134
 6981W        W22790  10.088   6.621  12.533  0.2484 -0.0781 -0.1231
 6982W        W22791   7.137   6.559   4.301  0.2941 -0.3762 -0.2478
 6983W        W22792   3.135   5.729   1.981  0.2012 -0.2633 -0.0992
 6984W        W22793  10.334   8.970  14.862  0.0845 -0.0494 -0.2256
 6985W        W22794  15.867  14.151  15.041  0.0251 -0.0941  0.0325
 6986W        W22795   1.033  12.369   3.077 -0.2700 -0.1033 -0.1731
 6987W        W22796   0.587  17.578   4.280 -0.1782  0.2148 -0.1577
 6988W        W22797   3.585  17.291   0.728 -0.1680 -0.1815  0.1812
 6989W        W22798   2.297  15.666   6.026  0.1640  0.0727 -0.0823
 6990W        W22799   2.843   9.362   0.579  0.0452  0.1110 -0.2510
 6991W        W22800   4.917   0.039  13.220 -0.4100 -0.0720 -0.1313
 6992W        W22801  13.773  11.634   1.716  0.1512 -0.1308 -0.3372
 6993W        W22802   9.189   9.002   4.693  0.2412 -0.3292 -0.1158
 6994W        W22803   4.636   4.042   3.544 -0.0228 -0.1777 -0.1078
 6995W        W22804   5.726   9.685  14.001  0.1506 -0.2567  0.2043
 6996W        W22805  17.416   1.288   0.162  0.1257 -0.0725  0.2230
 6997W        W22806   4.597   0.600   1.782  0.1126  0.1624  0.2543
 6998W        W22807  17.519  12.666   3.115 -0.1117  0.0366 -0.0123
 6999W        W22808   6.378   5.674   1.060 -0.1534 -0.1519  0.2020
 7000W        W22809   8.987   5.221   5.502 -0.2215 -0.2213  0.0051
 7001W        W22810   4.513   4.764  10.705  0.0007  0.0087 -0.0696
 7002W        W22811  12.099  16.056  13.358  0.4332 -0.0556 -0.0679
 7003W        W22812  14.817  10.978   3.057  0.0318 -0.0971 -0.1855
 7004W        W22813  15.245   5.530  16.635  0.0133  0.3192  0.0956
 7005W        W22814  10.880   3.294   3.636 -0.3786 -0.0057  0.0264
 7006W        W22815  17.591  14.740   3.935 -0.1144 -0.1051 -0.0599
 7007W        W22816  15.263  14.886   3.580  0.1925  0.0230  0.0475
 7008W        W22817   9.631   8.658   4.020  0.0640  0.0876 -0.0279
 7009W        W22818  11.802  17.522   1.230  0.0462  0.1121 -0.1390
 7010W        W22819   2.440  11.225   4.617  0.0606  0.1662  0.1129
 7011W        W22820   4.203   2.165   3.454 -0.3816  0.0686  0.0663
 7012W        W22821   4.664   0.555  12.384 -0.0187 -0.2364 -0.0300
 7013W        W22822   4.903  12.748   3.399  0.2894 -0.0490 -0.1312
 7014W        W22823  10.148   7.082  14.512  0.1253 -0.0664 -0.0004
 7015W        W22824   8.346   5.123  16.940 -0.0088  0.2768 -0.1772
 7016W        W22825   9.808   4.420  15.259 -0.1647 -0.0016 -0.1399
 7017W        W22826   6.285  12.399   5.425  0.1201 -0.0429  0.0403
 7018W        W22827   6.568   2.930  12.744  0.0635 -0.1513  0.2936
 7019W        W22828   4.812  15.952   4.015 -0.1217 -0.1186  0.1257
 7020W        W22829  16.893  14.759  12.745  0.4208  0.0196 -0.0477
 7021W        W22830   5.361   2.576  16.653  0.4502 -0.3471  0.3261
 7022W        W22831  12.386  14.372  12.193 -0.0546  0.0559 -0.2489
 7023W        W22832  12.076   3.541  15.611  0.0540  0.2304 -0.1944
 7024W        W22833  15.669  17.076   1.720 -0.0950 -0.2192  0.1219
 7025W        W22834   2.865   1.495  15.090 -0.0001 -0.0947  0.3333
 7026W        W22835   1.668   0.930  12.887  0.2213  0.0019 -0.3618
 7027W        W22836   5.986  12.582   5.070 -0.0792  0.1109 -0.0372
 7028W        W22837  16.417  15.197   1.764 -0.2469  0.0897 -0.2367
 7029W        W22838  16.994   2.552  14.156 -0.2104  0.2004 -0.1420
 7030W        W22839   6.979   7.357  14.255  0.1248  0.1013 -0.0667
 7031W        W22840   5.428  13.823   0.090  0.2379  0.1592 -0.0444
 7032W        W22841   4.538   5.318   4.332  0.2088 -0.5329 -0.2041
 7033W        W22842   4.557  13.359   3.630  0.1222 -0.0312 -0.0727
 7034W        W22843   4.760   9.280   3.734  0.1292 -0.2416  0.1486
 7035W        W22844  15.224   2.657  14.211 -0.0708  0.1360  0.0163
 7036W        W22845   5.772   0.422  13.807 -0.0081 -0.1399  0.0035
 7037W        W22846  14.482  15.269   3.260 -0.1532 -0.1095  0.0780
 7038W        W22847   8.782  11.925  11.808 -0.0076 -0.1494  0.2534
 7039W        W22848   4.428   6.379   5.215  0.0468 -0.3117 -0.1515
 7040W        W22849  15.362   1.861   2.078 -0.0368 -0.0452  0.1687
 7041W        W22850   9.587   0.963   1.334  0.0328  0.2516  0.1995
 7042W        W22851   8.778   8.807   2.688  0.2273 -0.1527  0.0685
 7043W        W22852   3.206   8.963  12.156 -0.2556  0.3564  0.1191
 7044W        W22853  16.201   6.954   1.859  0.0476  0.0890  0.2034
 7045W        W22854  12.900  12.977   2.909  0.1245 -0.0249  0.1769
 7046W        W22855  13.282   3.560   5.740  0.4167  0.1087  0.2419
 7047W        W22856   1.501   8.442  15.437  0.1633 -0.1107  0.1701
 7048W        W22857  16.567   5.985   6.117 -0.0073 -0.1025  0.0312
 7049W        W22858  10.836  17.007  16.461 -0.0893  0.1956  0.0497
 7050W        W22859  15.182   7.879   1.743  0.1509 -0.0638  0.0911
 7051W        W22860  15.573  12.301  16.031  0.1500  0.0254  0.2175
 7052W        W22861  10.452   6.231  12.477  0.2016 -0.2573  0.3550
 7053W        W22862   5.679  17.696  15.878  0.0712  0.3230  0.0674
 7054W        W22863   5.909  16.941   4.521  0.2094 -0.2201  0.0197
 7055W        W22864  17.340  11.311   5.493  0.0032 -0.0487 -0.1739
 7056W        W22865   7.026   2.823  16.285 -0.1450 -0.1827  0.1056
 7057W        W22866   7.007  10.296   4.785 -0.2414  0.1635  0.0384
 7058W        W22867  17.288   7.736  15.246 -0.0738  0.0933  0.1121
 7059W        W22868  13.250   0.051   2.265 -0.0828 -0.0763  0.2052
 7060W        W22869  17.481   4.616   0.144  0.0315 -0.3370 -0.0485
 7061W        W22870  10.513  11.451  13.946  0.1630 -0.1860 -0.1476
 7062W        W22871  14.311  10.364  14.491 -0.0767  0.0579 -0.1960
 7063W        W22872   7.456   4.929   2.654 -0.1355 -0.1038  0.0705
 7064W        W22873   2.456   7.643   5.490  0.1299  0.2206 -0.1217
 7065W        W22874  16.090  10.837  13.310 -0.3815  0.2459 -0.0093
 7066W        W22875   8.926   8.629  14.172 -0.0551 -0.0132  0.0202
 7067W        W22876  10.463   8.241   3.904 -0.1912  0.1154 -0.1436
 7068W        W22877   3.717   7.329   1.884  0.0530  0.2033 -0.2746
 7069W        W22878  10.529   9.544   6.498 -0.3681 -0.0773  0.2028
 7070W        W22879   9.771   6.578   3.619 -0.1432  0.2102  0.3144
 7071W        W22880   6.396   9.406   4.449 -0.2949 -0.0443 -0.0981
 7072W        W22881   8.672   0.394   1.006 -0.3149 -0.1698  0.0626
 7073W        W22882   7.769   5.708   6.450 -0.2947  0.0982  0.1250
 7074W        W22883   8.145   3.614  12.229  0.5181 -0.1223 -0.0763
 7075W        W22884   0.723  10.718   1.752 -0.0336 -0.4198 -0.1548
 7076W        W22885  13.190   3.311   0.924  0.0655  0.1304 -0.0632
 7077W        W22886  16.225   4.717  13.798 -0.1626 -0.0009  0.3967
 7078W        W22887  15.049   1.411   2.137  0.0952 -0.1179 -0.1106
 7079W        W22888  16.220  11.612   2.446 -0.0833 -0.0569  0.0053
 7080W        W22889  12.695   7.119   1.174 -0.2191 -0.1120  0.4473
 7081W        W22890  11.172  13.574  11.868  0.1200  0.2775  0.0029
 7082W        W22891   3.605  16.408   4.825 -0.3252  0.0129 -0.1690
 7083W        W22892  13.813   2.058   4.642 -0.0027  0.2976 -0.3390
 7084W        W22893  10.691   8.978   2.333 -0.0690  0.0397 -0.1813
 7085W        W22894  14.647   6.446   5.667 -0.1635 -0.0856 -0.0253
 7086W        W22895  10.317  13.857   4.658 -0.2101  0.0664 -0.0078
 7087W        W22896  11.452  14.817   3.997  0.0028  0.2105 -0.0292
 7088W        W22897   5.853  10.472  11.657 -0.1695 -0.1690  0.0162
 7089W        W22898   5.708   2.261   4.676 -0.0455 -0.2868 -0.1888
 7090W        W22899  16.145  16.723  12.249 -0.1816 -0.1468  0.0454
 7091W        W22900  10.596   7.004  15.706  0.2385  0.0570 -0.1242
 7092W        W22901   9.351   6.070   4.326 -0.1264  0.0247 -0.2997
 7093W        W22902   7.460  14.820  16.643 -0.0527  0.1954 -0.0023
 7094W        W22903   5.535   0.852   5.512 -0.0871  0.1665 -0.0238
 7095W        W22904   0.117  10.751   0.407 -0.2980  0.1071  0.0378
 7096W        W22905  10.131  15.193  16.969 -0.0712  0.3883  0.2793
 7097W        W22906  12.615   0.538  15.444 -0.1495  0.0065  0.0619
 7098W        W22907   2.248   4.939  14.198 -0.0743 -0.1683  0.1396
 7099W        W22908   4.219   5.425   2.479  0.1795  0.1448 -0.0037
 7100W        W22909  17.611  14.214   6.427 -0.1388  0.2659  0.1329
 7101W        W22910   1.398   3.203  12.398  0.3741  0.0193 -0.0715
 7102W        W22911   6.656   4.416   5.789 -0.0490  0.0006 -0.0354
 7103W        W22912   9.000   9.493   1.063  0.4739  0.1014  0.0875
 7104W        W22913   1.238   0.401   4.102  0.1179 -0.1105  0.2031
 7105W        W22914   4.961  11.558   2.123  0.0495 -0.2559  0.1200
 7106W        W22915  17.721   5.924  15.380 -0.1075 -0.1613 -0.0153
 7107W        W22916   6.555  14.567  12.745  0.0709  0.1838  0.2596
 7108W        W22917  14.199  10.856   1.523  0.0617 -0.1541 -0.3248
 7109W        W22918   9.648  10.357  12.935 -0.0572  0.1657 -0.0673
 7110W        W22919  11.526  12.329  12.742 -0.3543 -0.0882  0.1946
 7111W        W22920  14.109  15.822  15.501 -0.0974 -0.0489 -0.0076
 7112W        W22921  12.141   6.880  16.985  0.0906  0.3026 -0.5272
 7113W        W22922   5.236   3.080   2.911 -0.1151 -0.0416  0.2793
 7114W        W22923  11.492   9.859  15.959  0.1120 -0.0250  0.1616
 7115W        W22924  14.405   4.814   0.410  0.3315 -0.1670  0.1586
 7116W        W22925   6.094   4.801  10.974 -0.0525  0.1345  0.1155
 7117W        W22926   9.244  15.299  13.786 -0.3224  0.0229  0.1517
 7118W        W22927   5.480   5.909   3.921  0.1237 -0.1600 -0.2054
 7119W        W22928   0.487   7.943   1.757  0.1833  0.1942 -0.0173
 7120W        W22929  16.734   6.154  15.173  0.3652  0.0328 -0.1997
 7121W        W22930  14.785   4.483   1.825 -0.2892  0.1158  0.2331
 7122W        W22931  16.271   2.133  14.525 -0.1891  0.1938 -0.1365
 7123W        W22932   3.535   7.619  13.788  0.0508 -0.0665  0.3897
 7124W        W22933  15.606   6.738   4.197 -0.2876  0.0893 -0.1307
 7125W        W22934   0.340  10.066  13.788 -0.0145 -0.0624 -0.1329
 7126W        W22935   2.176  10.272   6.679 -0.0777 -0.0307 -0.0964
 7127W        W22936  16.857  15.086  13.134  0.1813 -0.1728  0.0812
 7128W        W22937   3.667   0.822   2.660  0.1360 -0.0669 -0.1818
 7129W        W22938   1.251   8.752   4.749 -0.1576 -0.3112  0.0039
 7130W        W22939   0.186  14.392  12.356 -0.0778 -0.0808  0.0372
 7131W        W22940  12.696   4.068   0.237 -0.3752  0.0667  0.0833
 7132W        W22941  16.279  14.046  17.001 -0.1163  0.1619 -0.1466
 7133W        W22942   9.482  11.257   2.703  0.3551  0.0106 -0.0297
 7134W        W22943  14.535  14.861   0.356  0.2096  0.3709 -0.1684
 7135W        W22944  12.848   7.299  12.110  0.2218 -0.0866 -0.1174
 7136W        W22945   1.764   1.591   5.187  0.1875  0.0044 -0.4598
 7137W        W22946  17.681  11.317   5.982  0.1094 -0.0943  0.3138
 7138W        W22947  10.477  13.016  12.179 -0.0482 -0.2088 -0.0262
 7139W        W22948  11.566  11.619  14.396 -0.0714 -0.1391  0.0559
 7140W        W22949  14.116  12.558   5.006  0.4792  0.1558  0.2875
 7141W        W22950   7.198  11.048  11.919 -0.0120  0.1729  0.1962
 7142W        W22951   2.488   5.790   5.281  0.1476 -0.1165 -0.1737
 7143W        W22952   4.088  10.356   0.512  0.0017  0.1074  0.2872
 7144W        W22953   7.654   6.686   0.738  0.0288  0.1722  0.0352
 7145W        W22954  13.136  15.697  14.548  0.0175 -0.3198  0.0174
 7146W        W22955   6.859   5.182   0.144 -0.1472 -0.2062 -0.1011
 7147W        W22956   5.650   0.037  12.401 -0.0427 -0.0380 -0.0974
 7148W        W22957   7.605   4.456   2.812 -0.1644 -0.0577 -0.2011
 7149W        W22958   5.938   6.069  16.017 -0.0036 -0.0788 -0.5906
 7150W        W22959  14.798  16.419  12.097  0.0759 -0.3349  0.1217
 7151W        W22960  13.664  11.795   0.452 -0.2182 -0.0909 -0.0383
 7152W        W22961  14.305  14.940   4.259  0.1405  0.1043  0.1966
 7153W        W22962   3.870   4.864   5.025  0.0464 -0.2295  0.0653
 7154W        W22963   6.064  13.335   2.994  0.2037  0.2468  0.0932
 7155W        W22964   6.302   4.613   3.290  0.0439 -0.1390 -0.1313
 7156W        W22965  14.165   6.420  16.595  0.0104  0.1487  0.0522
 7157W        W22966  10.852   5.412   4.606 -0.2163  0.2499  0.4513
 7158W        W22967   1.741   3.660   5.932 -0.0450 -0.2196  0.2399
 7159W        W22968  17.567   5.551  13.912  0.2911  0.3284 -0.1109
 7160W        W22969  15.300   8.792   0.082  0.1411  0.2635 -0.1435
 7161W        W22970   4.450  17.724  12.973  0.3426  0.1421 -0.1615
 7162W        W22971   4.195   7.138   5.463  0.1325  0.0012  0.0222
 7163W        W22972  10.749  11.187   5.187 -0.0247  0.1258  0.1062
 7164W        W22973   3.511   4.686   5.380 -0.0164 -0.0047 -0.3591
 7165W        W22974  15.718   8.308   5.333 -0.1049 -0.2270 -0.1535
 7166W        W22975  15.098   5.670  14.722 -0.1201 -0.1867 -0.0094
 7167W        W22976   4.624   6.075   3.594  0.0376  0.0885  0.1340
 7168W        W22977  14.166  14.652   4.656  0.0661 -0.1533 -0.1641
 7169W        W22978   1.852  13.659  11.071 -0.1398  0.0493  0.0997
 7170W        W22979  14.634  17.047  13.918  0.1932  0.0750  0.0345
 7171W        W22980  14.559  12.987   3.155  0.0279 -0.5387  0.0343
 7172W        W22981   0.268   7.535  12.602 -0.1993 -0.3653  0.1323
 7173W        W22982  13.313  11.903  13.059  0.2153 -0.1249  0.2108
 7174W        W22983   3.914  11.714   0.420 -0.1989  0.0012  0.1531
 7175W        W22984  12.574   8.087  13.765  0.2163  0.0745 -0.2857
 7176W        W22985  13.185  10.996  14.753  0.1128 -0.0176  0.0724
 7177W        W22986   7.441  12.103   2.186  0.3852  0.2437  0.1549
 7178W        W22987   4.593  10.680   3.649  0.1226 -0.3089  0.1174
 7179W        W22988   2.721   0.873   1.699  0.0752  0.0063 -0.1027
 7180W        W22989  17.641   6.104   0.028  0.0280 -0.0916 -0.1094
 7181W        W22990   6.782  16.540   1.116 -0.2179 -0.0405 -0.2535
 7182W        W22991   8.133  11.889   4.332  0.0294  0.1102  0.2507
 7183W        W22992  13.401   9.662  11.795  0.1937  0.1418  0.1560
 7184W        W22993   8.424   2.307  15.271  0.1872 -0.2727  0.4092
 7185W        W22994   3.268   1.902   5.881 -0.0049  0.1610  0.3015
 7186W        W22995   9.921   5.088   2.794  0.0383 -0.0264  0.0891
 7187W        W22996   2.874   1.767   2.149  0.1333  0.0493  0.1794
 7188W        W22997   1.935  17.021  12.866 -0.3858  0.1620 -0.0629
 7189W        W22998  10.130   2.040   4.953  0.0596  0.2466 -0.0833
 7190W        W22999   6.101  12.036   3.756 -0.1209  0.1330 -0.0974
 7191W        W23000   8.877   0.408  11.977 -0.0314  0.3491  0.0145
 7192W        W23001  10.716   4.676  12.990  0.0802 -0.0445 -0.1390
 7193W        W23002   0.926   6.649   5.065 -0.1505 -0.2392  0.0963
 7194W        W23003   8.925  17.288   0.495  0.1800  0.0600 -0.1587
 7195W        W23004  12.520  16.437   2.313 -0.1602 -0.3336 -0.0601
 7196W        W23005   9.919   1.067  11.383 -0.0058  0.0363  0.0049
 7197W        W23006   7.961   9.474   1.852 -0.0206  0.0781  0.1091
 7198W        W23007   3.712  15.450  11.966  0.0494 -0.0431  0.0531
 7199W        W23008   2.789  12.288   2.977  0.0246  0.1629 -0.4513
 7200W        W23009   3.420   6.481   3.863 -0.2704  0.1888  0.1695
 7201W        W23010   2.907   2.397   0.320  0.0939  0.1209  0.1158
 7202W        W23011   0.372  17.048  11.608  0.0429 -0.1613 -0.1394
 7203W        W23012  15.251  16.060  13.851 -0.1412  0.3150  0.1935
 7204W        W23013   9.349  10.278  11.772 -0.2910  0.0863 -0.2463
 7205W        W23014  14.377   3.552   0.189 -0.2082 -0.0749  0.0064
 7206W        W23015   5.905   4.517   3.764  0.2738  0.0870  0.1028
 7207W        W23016   7.471   8.468   3.558  0.0993 -0.2028  0.0935
 7208W        W23017  12.549   2.764  16.831 -0.0329 -0.0309  0.0954
 7209W        W23018   1.099   2.692  14.246  0.1470  0.1193 -0.0599
 7210W        W23019  17.202  16.785  14.500 -0.4295  0.0775 -0.1408
 7211W        W23020   1.281   0.549   1.332 -0.0237 -0.2647 -0.0384
 7212W        W23021  14.304   1.282   0.260 -0.0540 -0.0404 -0.3719
 7213W        W23022  16.916   1.516   5.277 -0.0566 -0.2021  0.2594
 7214W        W23023   8.144   4.722  12.688 -0.0490  0.3431  0.0785
 7215W        W23024  12.561  16.004  13.701  0.1240  0.0580 -0.0887
 7216W        W23025  14.181  11.807  14.487 -0.3040 -0.1157 -0.0148
 7217W        W23026   4.819   5.837   3.002 -0.0456  0.1789  0.0930
 7218W        W23027  10.187  12.694  13.402  0.1322 -0.0523 -0.0596
 7219W        W23028   4.418   9.111  12.256 -0.1686 -0.0369 -0.1807
 7220W        W23029   4.640   2.768   1.135 -0.2063 -0.0698 -0.1688
 7221W        W23030   3.060  16.136  13.851 -0.0805 -0.1976  0.1552
 7222W        W23031  14.355   9.471   0.269 -0.0861 -0.0008  0.5379
 7223W        W23032   0.655  14.790   4.040 -0.1089 -0.2680 -0.0148
 7224W        W23033   5.722   2.998  15.110  0.2735  0.1513 -0.2289
 7225W        W23034   4.557   4.592   3.662 -0.0259  0.3218 -0.0996
 7226W        W23035   1.819  17.247   4.328 -0.0153  0.1670  0.0811
 7227W        W23036   7.918   9.703  15.271  0.1348 -0.0522 -0.0884
 7228W        W23037  14.956  17.530  11.554 -0.2267  0.1118  0.2303
 7229W        W23038   9.563  11.218  15.892  0.0061 -0.0854 -0.2912
 7230W        W23039  12.882   2.070   2.902  0.0828  0.4170  0.0064
 7231W        W23040   0.000   2.124   0.634  0.2682 -0.0732 -0.2167
 7232W        W23041   4.936  11.486   0.144  0.1099 -0.0466  0.2570
 7233W        W23042  17.160   0.760  12.393  0.3192  0.2328  0.4629
 7234W        W23043  13.827  12.081   1.474 -0.0275  0.0572  0.0915
 7235W        W23044  12.162   4.382   4.358  0.1322  0.0149  0.1151
 7236W        W23045  13.567   5.308   0.957 -0.1531 -0.2986 -0.2342
 7237W        W23046  15.387   7.492  13.617  0.2504 -0.2372  0.0378
 7238W        W23047  14.458   7.305   1.896  0.1151 -0.0538 -0.1810
 7239W        W23048   7.277  14.838  11.511  0.2434  0.0954  0.0766
 7240W        W23049   3.113   2.137  16.838  0.3244 -0.0513  0.1242
 7241W        W23050   1.316  13.647  12.923  0.1458  0.0943  0.1254
 7242W        W23051  14.337  15.129   3.739  0.2196  0.0034  0.0144
 7243W        W23052   5.812   1.195   1.409 -0.1092 -0.2378 -0.1914
 7244W        W23053   6.468  11.301  12.012  0.1712  0.2239 -0.0568
 7245W        W23054  17.399  12.417  13.061  0.0244  0.1133 -0.1805
 7246W        W23055   2.403   4.835  11.788 -0.0227  0.0964  0.1350
 7247W        W23056   2.562   4.955   3.166  0.2464  0.3745 -0.2058
 7248W        W23057  13.941   0.378  12.349  0.0098  0.0944 -0.0676
 7249W        W23058   2.743   6.041   4.600  0.2284 -0.2521 -0.0646
 7250W        W23059  14.935  16.406   2.490  0.3041  0.1686 -0.1814
 7251W        W23060  10.719   6.147   1.136 -0.0252  0.0093  0.0707
 7252W        W23061   4.745   4.512   1.165  0.1138  0.0900 -0.2076
 7253W        W23062  16.126   0.512   1.995 -0.2412  0.1084  0.0142
 7254W        W23063  14.291   3.586  16.707  0.0495 -0.0495 -0.2369
 7255W        W23064  12.029   3.170   2.440  0.1913 -0.2703 -0.0830
 7256W        W23065   3.010  12.443  13.407  0.0907 -0.1434  0.0737
 7257W        W23066   4.098  17.479  13.425 -0.1087 -0.3623 -0.1408
 7258W        W23067  13.216   4.703  14.638  0.0145 -0.1149  0.3134
 7259W        W23068   3.809  13.590  13.929  0.3620  0.1909 -0.2551
 7260W        W23069   6.761   4.057   0.666  0.0307  0.2280 -0.2080
 7261W        W23070  11.392   7.534   0.705  0.1759 -0.0525 -0.0267
 7262W        W23071  17.390  12.268  12.584 -0.0260 -0.1676 -0.0834
 7263W        W23072  11.925   5.374   6.304 -0.1736 -0.1762 -0.2081
 7264W        W23073   6.275  11.672  11.491  0.0497  0.0565 -0.0395
 7265W        W23074   5.336  11.833   2.003 -0.4033  0.1552 -0.3958
 7266W        W23075  13.458   4.631  14.001  0.0262 -0.2816 -0.0278
 7267W        W23076  10.708   0.582   4.373  0.2686 -0.1093  0.2793
 7268W        W23077   6.960   3.467   5.750  0.3347  0.2310 -0.1030
 7269W        W23078   5.035   5.755  15.433 -0.3243 -0.1453 -0.2143
 7270W        W23079   7.688  12.725   2.669 -0.5877 -0.0181  0.1170
 7271W        W23080  11.981  11.925  11.536  0.0490  0.0115 -0.0949
 7272W        W23081   8.663  15.547   2.000  0.0072  0.2195 -0.0179
 7273W        W23082  13.499   4.612   6.613 -0.0861  0.3286 -0.0653
 7274W        W23083   0.726   9.909   4.635 -0.0886  0.0320  0.1920
 7275W        W23084   4.602   9.466  15.330  0.1952  0.0989  0.2323
 7276W        W23085  12.351   1.771  11.849 -0.3255 -0.0623  0.1136
 7277W        W23086   5.227   9.695   1.980  0.1709  0.0626 -0.0948
 7278W        W23087   4.207   4.506   6.815  0.1256  0.1433 -0.0645
 7279W        W23088   4.094   0.587  12.147 -0.1580  0.0966 -0.1464
 7280W        W23089  15.690  15.990  16.665  0.0910 -0.2189  0.0080
 7281W        W23090  10.388   1.823  15.717  0.2231 -0.2325 -0.1566
 7282W        W23091  14.184   8.288  16.181 -0.1598 -0.0774 -0.0845
 7283W        W23092  15.602   6.121  14.963  0.1128  0.1194 -0.0174
 7284W        W23093   1.693   5.646   0.529  0.0021 -0.0665 -0.1330
 7285W        W23094   4.510   5.838  13.714  0.1456 -0.0561 -0.0290
 7286W        W23095  14.018  15.346   4.380 -0.2148  0.2439 -0.2534
 7287W        W23096  10.248   9.176   0.866  0.3049 -0.0251 -0.0635
 7288W        W23097   7.018  10.067  15.532  0.1245 -0.0839 -0.1657
 7289W        W23098   1.127  17.523   2.546 -0.0953 -0.0686  0.1000
 7290W        W23099  14.565  16.442   2.986 -0.3597 -0.1230  0.4709
 7291W        W23100   7.960   1.658   5.525  0.2285 -0.0224 -0.0743
 7292W        W23101  17.550   7.427  12.664 -0.1426  0.0009 -0.0624
 7293W        W23102  10.253  10.288   3.168  0.0529 -0.2209  0.0581
 7294W        W23103  14.111  14.263   4.927 -0.1156 -0.0273 -0.0758
 7295W        W23104  17.461   4.577   3.157  0.1186 -0.0020  0.0080
 7296W        W23105   1.932  10.645   3.127 -0.0745 -0.1230 -0.1107
 7297W        W23106  17.664   3.687   4.552  0.0289 -0.1050  0.0381
 7298W        W23107   2.687  14.808  11.555  0.0992  0.1190  0.0565
 7299W        W23108  10.061   6.693   4.832 -0.1993 -0.0403  0.0499
 7300W        W23109   0.454  12.781  14.561  0.0709  0.0510 -0.1917
 7301W        W23110   5.899   2.906   5.335  0.0305 -0.3254 -0.0776
 7302W        W23111   7.039  17.242  11.006 -0.1778  0.1598 -0.0330
 7303W        W23112   0.473  10.615  13.985  0.1839 -0.3142  0.1232
 7304W        W23113  14.131  11.947  10.643  0.0079  0.1100  0.2943
 7305W        W23114   2.532   4.126   5.871 -0.0990  0.0566  0.2059
 7306W        W23115   3.170  13.167  15.772 -0.0333 -0.1362  0.0909
 7307W        W23116  11.322  11.535   4.012 -0.1588 -0.1551 -0.0276
 7308W        W23117   9.419   0.182   0.518 -0.2180 -0.1413  0.0385
 7309W        W23118  12.002   9.982  14.045  0.0749 -0.1608  0.1936
 7310W        W23119  12.748  14.569  14.843  0.1502 -0.1198  0.0184
 7311W        W23120  16.385   9.856  12.242 -0.2029  0.0170  0.0027
 7312W        W23121   0.306   9.701   1.861  0.1157 -0.0205  0.1236
 7313W        W23122  14.201  16.352  16.679  0.0703  0.0732  0.1751
 7314W        W23123  17.532  15.035  14.598  0.3575  0.0471  0.0633
 7315W        W23124  10.680  12.020  12.340 -0.1334  0.2708 -0.3887
 7316W        W23125  15.196   0.033   1.166  0.1689  0.2567  0.1150
 7317W        W23126   5.926  13.037  12.130  0.0030 -0.1615 -0.3135
 7318W        W23127  11.527   1.268   2.478  0.1205 -0.0085  0.2933
 7319W        W23128  16.881   8.362  13.744  0.1816 -0.1888  0.2821
 7320W        W23129   8.657   1.892   0.596 -0.0508  0.0558 -0.0097
 7321W        W23130   9.529  17.065  14.609  0.2327  0.2333  0.0997
 7322W        W23131   4.338   9.847  11.807 -0.3370 -0.0833  0.2754
 7323W        W23132   3.717   1.714   2.219 -0.0615 -0.2299 -0.0633
 7324W        W23133  14.932   6.167  15.943  0.2330  0.0518 -0.1556
 7325W        W23134   9.856  14.729  12.171  0.1713 -0.1046 -0.0975
 7326W        W23135   7.552   3.441  13.004  0.1203  0.1146  0.1822
 7327W        W23136  11.080  13.949  13.389 -0.0403  0.1059 -0.0630
 7328W        W23137  15.810  10.167  15.357  0.0775  0.1022 -0.0776
 7329W        W23138  14.341  14.810  13.620 -0.2338  0.2775 -0.2207
 7330W        W23139   3.518   3.947   4.237 -0.1712  0.1120 -0.1961
 7331W        W23140  17.569   2.583   0.105 -0.0040 -0.1059  0.0230
 7332W        W23141   9.847   5.936   4.251 -0.3762  0.0880 -0.2754
 7333W        W23142  11.475  15.666   1.980  0.0232  0.2079  0.3208
 7334W        W23143  11.794   9.697   3.348  0.0454  0.3588 -0.1886
 7335W        W23144  13.261   8.989   2.592  0.0154  0.1972 -0.1510
 7336W        W23145  14.409   0.471   1.306  0.0668 -0.2230 -0.0902
 7337W        W23146   8.372  16.842  11.039 -0.2603 -0.1774  0.1732
 7338W        W23147  13.765  10.315   4.865  0.2428  0.2946 -0.0831
 7339W        W23148   6.596  11.871   3.799  0.1547  0.3503 -0.4386
 7340W        W23149  14.415  15.759  14.088 -0.0119 -0.4037  0.2111
 7341W        W23150   6.026  11.431  13.096  0.1041 -0.0386  0.1202
 7342W        W23151   3.762   8.792  13.698 -0.0825  0.1035  0.0612
 7343W        W23152   2.877   0.448  16.738  0.1222 -0.0682 -0.1140
 7344W        W23153   7.679   5.282  13.600 -0.0282  0.2691  0.0178
 7345W        W23154  15.757   3.009   0.008  0.0203 -0.0904  0.2652
 7346W        W23155  17.172  10.827  14.466 -0.3451  0.0243  0.3296
 7347W        W23156   5.791  12.011  12.615 -0.0513  0.0183 -0.1771
 7348W        W23157   1.018   7.545   3.972 -0.1112 -0.1682 -0.2702
 7349W        W23158   3.182   4.292  13.462 -0.1594 -0.0257  0.1375
 7350W        W23159   2.536   7.314  12.759 -0.0656 -0.2716  0.2631
 7351W        W23160  12.344   5.979  15.459  0.0103  0.0187  0.3666
 7352W        W23161  17.547   1.036   2.948 -0.2498  0.1237 -0.2001
 7353W        W23162   4.832  17.098   2.607  0.1998  0.2381 -0.2941
 7354W        W23163   2.537  13.670   5.882  0.0502 -0.1707 -0.1696
 7355W        W23164  10.479   4.884   5.476 -0.0007 -0.1660 -0.2138
 7356W        W23165   9.101   5.920  12.602  0.0987 -0.0740 -0.0841
 7357W        W23166  17.008  12.044  16.050 -0.2440 -0.2259  0.1880
 7358W        W23167   0.552   5.210  16.283 -0.2854 -0.0125  0.0329
 7359W        W23168   5.792   8.325  13.889 -0.1911  0.0551  0.0114
 7360W        W23169   1.858   9.900   5.783  0.0269 -0.1198 -0.0584
 7361W        W23170   1.718   1.682   2.692 -0.1472 -0.1361 -0.2466
 7362W        W23171   9.242  14.278  13.717  0.0839 -0.1295  0.0244
 7363W        W23172  15.291   7.373   1.457 -0.0865  0.3144 -0.0532
 7364W        W23173  11.144   6.807  12.790 -0.0806 -0.0385  0.0301
 7365W        W23174  16.082   3.202  14.588 -0.0919 -0.0129 -0.0729
 7366W        W23175  13.277  15.590  16.014 -0.3346 -0.4573  0.0299
 7367W        W23176   8.166  10.853   1.351 -0.0564 -0.1422  0.0029
 7368W        W23177  12.560   5.942   2.941  0.0961  0.1004  0.0925
 7369W        W23178   8.896  13.775  16.778  0.1571 -0.1339  0.1269
 7370W        W23179   9.597   7.892   0.458  0.0357  0.0164 -0.3700
 7371W        W23180   0.309  11.395   3.795  0.3563 -0.0267  0.3193
 7372W        W23181  13.733  11.113  11.499 -0.0496  0.1137 -0.3000
 7373W        W23182  11.656   2.348  12.218 -0.0706 -0.2634 -0.0367
 7374W        W23183   1.030   6.147   4.461  0.2354  0.1114 -0.0066
 7375W        W23184   7.043   2.033   5.536  0.0875  0.1173  0.0412
 7376W        W23185  10.883   8.715   6.395 -0.0280  0.2426 -0.0334
 7377W        W23186   8.207  13.412  12.334  0.2321 -0.0671 -0.2912
 7378W        W23187   7.832  17.116  11.702  0.3948  0.0088  0.0723
 7379W        W23188  13.425   0.400   6.073 -0.0369  0.2308  0.3748
 7380W        W23189  15.817   2.020   1.978  0.0521  0.0290  0.2743
 7381W        W23190  14.190  11.001   3.649  0.3369 -0.0798  0.1527
 7382W        W23191   9.950   6.343  15.231  0.0959 -0.0600  0.0304
 7383W        W23192  15.710  16.412   6.073 -0.1098 -0.1341 -0.2447
 7384W        W23193   1.800   4.848  14.378  0.0250 -0.1273 -0.0912
 7385W        W23194   0.338   2.755   5.491  0.0209  0.0989 -0.2407
 7386W        W23195   9.083   3.178   0.041 -0.0905  0.1841  0.0273
 7387W        W23196   6.673   9.638  16.318 -0.2271 -0.1232  0.2310
 7388W        W23197  10.246  11.226  12.656  0.1547  0.1741 -0.3004
 7389W        W23198   8.870  14.614  14.391  0.3055 -0.2353 -0.2475
 7390W        W23199  10.241  11.802  12.726  0.0704 -0.2865  0.3036
 7391W        W23200   6.008   9.836  15.795  0.1504  0.3171 -0.2676
 7392W        W23201  11.692   4.613   0.690  0.1796 -0.1457 -0.1412
 7393W        W23202  16.958   2.517   2.535  0.0317  0.2114 -0.0155
 7394W        W23203   0.595  12.426  15.662  0.0090 -0.0595  0.0968
 7395W        W23204  11.502   9.380  15.895 -0.0661  0.1325  0.2365
 7396W        W23205  12.778   7.784   2.306 -0.2166  0.0711  0.0293
 7397W        W23206  12.746   8.986  16.524 -0.1228  0.1540 -0.1051
 7398W        W23207  11.833   2.471  13.064 -0.0549 -0.2262  0.1280
 7399W        W23208   3.689   1.720   1.700 -0.2096  0.0660  0.4435
 7400W        W23209  16.416  13.442   4.628  0.2574  0.1134 -0.1124
 7401W        W23210  14.932  15.009   0.619 -0.1400 -0.0741 -0.1215
 7402W        W23211   4.598  14.272   2.467 -0.2822 -0.3567  0.0078
 7403W        W23212   4.502   1.762   0.971 -0.0425 -0.0199 -0.0649
 7404W        W23213   8.465  12.874   5.591 -0.1207 -0.1010 -0.1477
 7405W        W23214   2.694   0.473  11.331 -0.2755  0.1661  0.3503
 7406W        W23215  12.178   0.365   4.735  0.0996 -0.3564 -0.0642
 7407W        W23216  14.415  14.452  16.624  0.0705  0.0558 -0.1755
 7408W        W23217  12.606  17.537  15.555 -0.0597  0.0106  0.0176
 7409W        W23218   3.881   4.245   0.197 -0.2275 -0.3117 -0.3733
 7410W        W23219   2.076   6.593  12.402  0.3248  0.0714  0.1421
 7411W        W23220  17.685   4.197  15.755  0.3270  0.0188 -0.3155
 7412W        W23221  15.814   6.400  11.009  0.4478  0.0216 -0.2321
 7413W        W23222  17.497  11.970  16.781 -0.0747 -0.1135 -0.0134
 7414W        W23223  17.262   0.321  12.722 -0.2935 -0.0411 -0.0862
 7415W        W23224  10.157  16.577   0.473  0.0492  0.0021  0.1951
 7416W        W23225  16.364   9.497   0.436  0.1401 -0.0751  0.2401
 7417W        W23226  14.513   4.516   4.207 -0.1266 -0.0149  0.0755
 7418W        W23227   1.353  15.806  12.905  0.2204  0.0931  0.2293
 7419W        W23228  14.820   0.104   0.803  0.0896 -0.1115  0.1971
 7420W        W23229   2.166  13.565  11.500  0.3150  0.0609  0.2768
 7421W        W23230  14.182   2.035   4.199  0.2909 -0.1145  0.3404
 7422W        W23231   8.265  16.949   3.088  0.0554 -0.2745 -0.0878
 7423W        W23232   7.829   4.956   0.860  0.0115 -0.0236  0.0448
 7424W        W23233   2.583   1.460  13.606 -0.1778 -0.0926  0.0226
 7425W        W23234   6.479   5.833   1.687  0.4859 -0.0604  0.2029
 7426W        W23235  11.853  11.013  14.052  0.2085  0.0375  0.1512
 7427W        W23236  10.721  14.922   2.156 -0.2111 -0.0758 -0.0297
 7428W        W23237  14.409   7.320   0.079 -0.3795 -0.1028  0.1580
 7429W        W23238   4.290   4.183   1.483  0.0430  0.0881  0.1191
 7430W        W23239  13.642   4.801  16.794 -0.1081  0.0369  0.0826
 7431W        W23240   3.486  13.564   3.655  0.1537  0.2163 -0.0836
 7432W        W23241  11.077  12.267  16.991 -0.5437  0.0105 -0.1406
 7433W        W23242   6.161   4.926  11.828  0.0344  0.2143 -0.1565
 7434W        W23243   5.420   9.118  12.689  0.0782  0.3124 -0.2293
 7435W        W23244   2.479   1.605  14.160  0.1376  0.1471 -0.0675
 7436W        W23245  10.190  15.614  11.340 -0.1475  0.1051  0.0395
 7437W        W23246   7.986  14.275  12.105 -0.1462 -0.0115  0.1424
 7438W        W23247   7.615  17.338  12.074  0.1048 -0.0374 -0.0286
 7439W        W23248  10.366  11.197  12.021 -0.0795 -0.0241 -0.1435
 7440W        W23249   6.157   4.537  15.078 -0.2047  0.1602  0.2279
 7441W        W23250   1.860  12.507  11.434  0.0796 -0.0845  0.1971
 7442W        W23251   6.196   2.704  11.493  0.3513  0.3033 -0.1035
 7443W        W23252   9.848   7.936   5.228 -0.3202  0.2754  0.3229
 7444W        W23253   0.006   1.178   4.603 -0.0232 -0.2409 -0.0681
 7445W        W23254   4.202  12.642  12.556  0.2856 -0.1570  0.0562
 7446W        W23255   1.965  11.208   5.728 -0.1881 -0.1865  0.0400
 7447W        W23256   8.872   3.094  15.986  0.4009 -0.1101 -0.4322
 7448W        W23257  17.505  16.604  15.250  0.3198 -0.0383  0.1101
 7449W        W23258  15.706   2.729  12.577  0.1568  0.0480  0.1202
 7450W        W23259  15.885  17.122  15.250 -0.4750 -0.6327 -0.0123
 7451W        W23260   3.069  10.181  12.220 -0.0542 -0.2166 -0.0528
 7452W        W23261  12.004  16.993   2.818  0.1077  0.3531 -0.0517
 7453W        W23262  15.557   7.133   1.781 -0.0339 -0.1164 -0.2368
 7454W        W23263  16.100  12.812  15.708  0.2919 -0.5103 -0.0708
 7455W        W23264  12.758  10.879  15.567  0.1132 -0.1252 -0.3337
 7456W        W23265   3.831  12.407   3.732  0.0247 -0.0500 -0.1028
 7457W        W23266  16.149  16.209  11.349  0.0914  0.1299  0.0079
 7458W        W23267   5.699  10.835  13.072  0.2462  0.5698  0.0026
 7459W        W23268   1.158   0.227   2.252  0.0981 -0.0776 -0.0241
 7460W        W23269   6.450  16.897   0.183  0.1004 -0.0890 -0.0864
 7461W        W23270   2.868   5.999  13.639 -0.0516 -0.2429  0.1410
 7462W        W23271   7.267   0.349  13.859  0.2225  0.1635 -0.4308
 7463W        W23272   7.832   7.587   5.822  0.3223  0.2939  0.0842
 7464W        W23273   0.422   4.270   5.670  0.0596  0.2031  0.1037
 7465W        W23274   3.647  16.248  12.381 -0.2202  0.1104 -0.1401
 7466W        W23275  11.069   3.771   3.159  0.4966 -0.0024 -0.0895
 7467W        W23276   9.666   8.414   5.079  0.0997  0.0265  0.1907
 7468W        W23277  15.207   2.957   2.871 -0.2841 -0.3059  0.1490
 7469W        W23278   9.572   6.907   3.189  0.0304  0.0614 -0.2069
 7470W        W23279  10.390   8.151   3.425 -0.2406 -0.2319  0.0148
 7471W        W23280  13.654   6.731   1.032  0.2468 -0.0230 -0.1724
 7472W        W23281   3.698   7.762   3.701  0.1429  0.1954  0.2870
 7473W        W23282   2.281   3.106   3.874 -0.2808 -0.0864  0.0673
 7474W        W23283   2.395   3.651   1.738  0.1984 -0.0077  0.0651
 7475W        W23284   2.540   7.892   1.320 -0.2145 -0.3292 -0.0341
 7476W        W23285   8.199   1.479   1.265  0.0987 -0.0762  0.0332
 7477W        W23286  12.647   0.309   3.145 -0.2275 -0.1369  0.1805
 7478W        W23287  15.866  12.920  13.597 -0.0751  0.0465 -0.3300
 7479W        W23288  10.179  14.392  15.446 -0.0649 -0.1061  0.1598
 7480W        W23289   4.433   2.901   2.003  0.4294  0.0296 -0.0108
 7481W        W23290   3.958  13.861  15.720 -0.1924  0.0961  0.1299
 7482W        W23291  15.844   3.699   5.598 -0.1589 -0.0044  0.0397
 7483W        W23292  11.318  10.973   2.601 -0.1778 -0.0177  0.0040
 7484W        W23293   4.425  11.793  14.563  0.0665 -0.3814  0.4124
 7485W        W23294  11.723  14.056  11.233 -0.1133 -0.0971 -0.3884
 7486W        W23295  17.412   4.345   4.880 -0.2504  0.2646  0.3400
 7487W        W23296   2.531  15.144  13.081 -0.0105 -0.0664  0.3378
 7488W        W23297   3.879   3.170  13.746 -0.0688  0.0494  0.1707
 7489W        W23298   6.928   2.341  16.382 -0.0715  0.0467  0.0148
 7490W        W23299  13.287   3.175  11.114 -0.2653  0.2753 -0.0679
 7491W        W23300   3.797  11.304   5.856 -0.1530  0.1807  0.0076
 7492W        W23301   1.373   9.256  14.785 -0.1833  0.1297 -0.0149
 7493W        W23302   8.134  14.265  16.069 -0.0561 -0.0633 -0.3393
 7494W        W23303  11.451   3.801   4.143 -0.0241  0.3217  0.1400
 7495W        W23304  10.392   9.406   0.454  0.0024 -0.0307 -0.0401
 7496W        W23305  14.109   1.810  11.101  0.0245  0.1034  0.0061
 7497W        W23306   0.686   1.597   0.302 -0.1384  0.0373  0.0654
 7498W        W23307  15.085  11.305   0.783 -0.1681  0.2579 -0.1357
 7499W        W23308  17.222   6.193  14.886 -0.0159  0.2998 -0.0544
 7500W        W23309  12.256  13.756   1.679 -0.0258 -0.1183  0.5100
 7501W        W23310   8.507   2.257   2.423  0.2062 -0.0283  0.2111
 7502W        W23311  15.964  16.442   4.519 -0.1398  0.0573 -0.1688
 7503W        W23312   3.279   5.367  10.867  0.1187  0.2014 -0.0256
 7504W        W23313   6.160   4.949   3.859 -0.1329 -0.1803  0.2742
 7505W        W23314   5.827   2.223  16.654 -0.0820 -0.0882 -0.2469
 7506W        W23315  16.794  15.725  13.781  0.1039 -0.2127  0.2748
 7507W        W23316   9.128  17.016  13.576 -0.3099  0.0556  0.2104
 7508W        W23317   8.721   9.393  14.840 -0.0485 -0.1312 -0.0601
 7509W        W23318   7.731   3.217   1.353 -0.1481  0.1327 -0.2486
 7510W        W23319  11.327   0.132  15.436  0.1594  0.0718  0.1129
 7511W        W23320   5.115   7.310  14.633  0.0461 -0.2131 -0.0419
 7512W        W23321  16.293   7.088   5.355 -0.1326  0.3979  0.3485
 7513W        W23322  12.174   4.419   0.706 -0.2300  0.1481  0.0931
 7514W        W23323  13.327  10.640   4.163  0.2001  0.0593  0.0128
 7515W        W23324   5.162  17.443  15.300  0.0540  0.1884 -0.0523
 7516W        W23325  13.713  10.258  16.444  0.0077  0.2521 -0.2131
 7517W        W23326  11.783   1.652   3.489  0.2009  0.0434 -0.1784
 7518W        W23327  17.526  10.213   1.065 -0.1808 -0.0358 -0.0451
 7519W        W23328  12.972  13.397  15.342  0.0762  0.0118 -0.0563
 7520W        W23329   0.497   7.910  11.855  0.3378  0.4231  0.2022
 7521W        W23330  11.373   6.141  14.964  0.0188  0.0354  0.3800
 7522W        W23331  11.851   8.851   1.550 -0.0747  0.0405 -0.2182
 7523W        W23332  16.601   6.764  16.060  0.1141  0.0422 -0.0997
 7524W        W23333  12.579  16.515  13.530 -0.0434  0.1223 -0.2292
 7525W        W23334  15.387   8.830   4.369 -0.0197  0.1207  0.0534
 7526W        W23335   2.679   5.923  15.853 -0.3467  0.0492 -0.3302
 7527W        W23336   2.939   3.164   4.491 -0.1672  0.2355 -0.1340
 7528W        W23337  12.446   6.497   2.414 -0.1992 -0.4488 -0.0627
 7529W        W23338   8.600  17.353  15.692  0.3825 -0.0762  0.1709
 7530W        W23339  16.398  16.847  11.012  0.0057  0.2601  0.1416
 7531W        W23340  16.882   6.171   2.381 -0.0240  0.1411  0.0439
 7532W        W23341   2.065  11.491   0.124 -0.2559 -0.1776 -0.1043
 7533W        W23342   6.568  16.090   0.983  0.1490  0.2238  0.2565
 7534W        W23343   0.293  11.615  13.980 -0.2707  0.2117  0.1589
 7535W        W23344   6.969   0.813  15.730  0.0724 -0.0227  0.3856
 7536W        W23345   3.435   5.073   5.721  0.0227 -0.1189 -0.0821
 7537W        W23346   0.321  17.550   3.293 -0.0405  0.0544  0.1033
 7538W        W23347  11.010   6.422  12.455  0.2411 -0.4363 -0.4044
 7539W        W23348   9.582  15.878  16.969  0.1788  0.2291 -0.0745
 7540W        W23349   8.348  13.116  14.171  0.2377  0.1058  0.0721
 7541W        W23350  11.850   4.739  13.130  0.2170  0.0719  0.2017
 7542W        W23351  11.252   3.393   4.492 -0.1155  0.0785  0.1135
 7543W        W23352   0.290   0.167   3.759 -0.4178  0.1865  0.1000
 7544W        W23353  17.533   8.691   2.928  0.1182  0.1384 -0.2298
 7545W        W23354  13.877   0.558   3.215 -0.1898 -0.0472 -0.0526
 7546W        W23355  12.737  10.963   6.061 -0.1295  0.0803  0.2883
 7547W        W23356   9.328   1.602  11.542 -0.0043 -0.0688  0.1156
 7548W        W23357  13.289  10.172   4.436 -0.0580  0.0408 -0.2747
 7549W        W23358  11.764  15.441  14.977  0.0833 -0.2353 -0.2630
 7550W        W23359  13.988  15.826  11.064 -0.0076  0.1938  0.1666
 7551W        W23360   8.773  15.059  14.166 -0.4867 -0.1166 -0.0806
 7552W        W23361   9.342   0.285   5.265  0.2641  0.2107 -0.0280
 7553W        W23362   7.676   8.788  13.016 -0.1363 -0.0310  0.1912
 7554W        W23363   8.656   7.239   4.473  0.2068  0.0711  0.0967
 7555W        W23364  17.223   1.850  16.551  0.2910  0.1380  0.3821
 7556W        W23365  11.917   1.811  14.509 -0.1162 -0.0812  0.2786
 7557W        W23366  11.133   1.648   2.323 -0.1178  0.1119  0.2143
 7558W        W23367  11.361  10.672  11.497 -0.0734 -0.2694 -0.1492
 7559W        W23368  15.833  10.325  11.891 -0.1273 -0.2408  0.2203
 7560W        W23369   8.240   3.915   1.382 -0.0800  0.0468 -0.1682
 7561W        W23370   2.609  14.796  10.695  0.2586 -0.1803 -0.0237
 7562W        W23371  14.789   4.309  13.140  0.0811 -0.0825  0.0946
 7563W        W23372   5.103   7.135   1.598 -0.0323 -0.3184  0.2063
 7564W        W23373  12.812   1.482   5.647 -0.0911 -0.2329 -0.0853
 7565W        W23374  12.671  10.937   4.950  0.0922  0.3155  0.1636
 7566W        W23375  10.560   6.756  11.521  0.0533 -0.2493  0.0109
 7567W        W23376   0.600   8.365   4.476 -0.3421  0.0545 -0.0295
 7568W        W23377   0.450   9.571   4.893  0.3581  0.1725  0.1072
 7569W        W23378  10.564   9.722   5.151  0.2008  0.1368 -0.4040
 7570W        W23379  10.559  14.365  11.986  0.1032 -0.2179 -0.1807
 7571W        W23380   6.183  12.659   0.433  0.1885  0.1571  0.3492
 7572W        W23381   6.419   1.124   0.121 -0.0173 -0.0960  0.1476
 7573W        W23382   5.994   6.899  11.827 -0.0575  0.0221 -0.0732
 7574W        W23383   3.419  11.047   0.660 -0.5112 -0.0701 -0.3825
 7575W        W23384  14.563  15.783   3.768  0.0519 -0.2704  0.0271
 7576W        W23385   9.724   8.158   0.897  0.0143  0.3741  0.2199
 7577W        W23386  14.979  10.172   4.177 -0.2156 -0.3870  0.1153
 7578W        W23387  13.483   5.592  16.146 -0.4765  0.2381 -0.2350
 7579W        W23388   5.588   7.860  13.094  0.0205  0.0743  0.1787
 7580W        W23389  10.395   1.429   5.060  0.0408  0.0104  0.3438
 7581W        W23390  15.356   8.426   5.686  0.0949  0.0153 -0.0318
 7582W        W23391   9.373  12.474  11.738  0.3177 -0.0803  0.0787
 7583W        W23392  10.657   1.018  16.256 -0.0769  0.0566  0.1032
 7584W        W23393   5.332   4.168   0.117 -0.1260 -0.2574 -0.1689
 7585W        W23394  13.687   4.201  13.989 -0.0232  0.0734 -0.0598
 7586W        W23395   3.528  15.495  14.109  0.0560  0.3935 -0.1387
 7587W        W23396  12.500   7.000  14.145  0.1543 -0.0888  0.2275
 7588W        W23397  14.906   5.681  12.836 -0.2122 -0.1149 -0.0514
 7589W        W23398  13.596   2.846   0.806  0.0346  0.3180  0.0840
 7590W        W23399  10.102   2.614  12.337 -0.1031  0.0530 -0.3108
 7591W        W23400  16.795   6.695   1.061  0.1791 -0.1763  0.2095
 7592W        W23401  12.374   5.111   6.081 -0.1134 -0.1027 -0.1063
 7593W        W23402   8.215   7.625  15.391 -0.2069  0.1573 -0.0213
 7594W        W23403   1.539   6.854   3.433  0.1156  0.0248 -0.2515
 7595W        W23404  13.232   7.734  16.368 -0.1035  0.1489  0.1475
 7596W        W23405  16.112   2.894  12.892  0.0315  0.0233  0.0179
 7597W        W23406  16.202   9.985   2.967 -0.2212  0.1598 -0.0648
 7598W        W23407  11.375  10.393   1.782  0.3452  0.2146 -0.1438
 7599W        W23408   2.560  10.034  13.368 -0.2764  0.0751 -0.3888
 7600W        W23409  16.771  12.226   4.728 -0.0632 -0.1628 -0.0365
 7601W        W23410   6.923  15.206  10.995  0.3023 -0.0344 -0.0767
 7602W        W23411   3.206  13.750   4.877 -0.2019  0.1509 -0.0863
 7603W        W23412   3.152   1.023   1.971  0.1562  0.0300 -0.0096
 7604W        W23413   8.301   1.365  16.261 -0.0571  0.1136  0.0010
 7605W        W23414   3.960  14.089   1.322 -0.0451 -0.0851 -0.0785
 7606W        W23415   7.079  15.766  15.108  0.1969  0.2335  0.2361
 7607W        W23416   8.508  13.504  13.911 -0.0541  0.1536 -0.0465
 7608W        W23417   0.850  12.562   1.611 -0.0644 -0.0621 -0.1145
 7609W        W23418  17.646  10.953  14.711  0.0203 -0.0556  0.2002
 7610W        W23419   2.008   8.689   2.889  0.0490 -0.0783  0.3160
 7611W        W23420   2.081   4.572  15.855 -0.1270  0.0294  0.1084
 7612W        W23421   2.168   0.284   5.758  0.1373 -0.0209 -0.1092
 7613W        W23422   9.169   1.913   0.847 -0.0055  0.2316 -0.0070
 7614W        W23423   2.293  12.767  15.964 -0.2896 -0.2143 -0.0625
 7615W        W23424  10.858  10.620   2.651 -0.2196  0.2139 -0.0893
 7616W        W23425   2.891   5.396  13.240 -0.1702  0.0707  0.1196
 7617W        W23426   1.041   0.500   3.089  0.1655  0.0525 -0.1603
 7618W        W23427  10.468  17.702   3.501  0.3681  0.2312  0.2157
 7619W        W23428   0.700   4.796   0.717 -0.0374  0.3521  0.0772
 7620W        W23429   6.804  10.201  14.618 -0.0910  0.1795 -0.1613
 7621W        W23430  10.735   9.214  14.174 -0.2568 -0.0957  0.2476
 7622W        W23431   1.758   1.887   1.373  0.2284  0.1209 -0.2885
 7623W        W23432   3.864   3.050  16.036  0.0535  0.2865 -0.1559
 7624W        W23433   9.814  10.710  15.273 -0.0454  0.1772 -0.2202
 7625W        W23434   4.917   4.451  16.934  0.0557 -0.2770 -0.2183
 7626W        W23435  16.395  10.945   2.861 -0.1146  0.3826  0.5247
 7627W        W23436  16.879  14.567  14.415 -0.0857  0.0114  0.1578
 7628W        W23437   8.258   1.946   1.426  0.0344  0.1022  0.1016
 7629W        W23438   0.106   1.898   3.329  0.0488  0.0636  0.0024
 7630W        W23439   1.458  14.580  12.714  0.0355 -0.1605  0.0423
 7631W        W23440   9.668  16.051  12.557 -0.2958  0.1586  0.0685
 7632W        W23441  15.664   8.366  12.423  0.0175  0.1111  0.1723
 7633W        W23442   3.338   8.498   0.369  0.0566 -0.0487 -0.0461
 7634W        W23443   5.026   2.655   5.546  0.1275 -0.0424 -0.0407
 7635W        W23444   4.532   6.526   4.477  0.0003 -0.2694 -0.1183
 7636W        W23445   5.060   3.014  16.457  0.1228 -0.0235 -0.1029
 7637W        W23446   4.152  15.487   4.711 -0.1061 -0.1966 -0.0890
 7638W        W23447   3.865   8.523   3.232 -0.1926  0.0879 -0.1360
 7639W        W23448   6.930  16.478   2.110 -0.0007  0.0283 -0.1134
 7640W        W23449  14.330   3.011  16.680 -0.1701  0.0031 -0.4745
 7641W        W23450  17.244  17.279  12.038  0.0011 -0.0022  0.2407
 7642W        W23451  15.471   2.581   2.588 -0.0518  0.0322 -0.0863
 7643W        W23452   1.343   6.270   4.947 -0.3286  0.1732 -0.4571
 7644W        W23453  10.339  15.652   0.650 -0.3597 -0.0073  0.1157
 7645W        W23454   4.281   6.351   1.086 -0.0771  0.0450  0.1525
 7646W        W23455   3.376  10.471   0.658  0.0512  0.0739  0.0856
 7647W        W23456  12.590  11.386   4.824  0.2620 -0.0467 -0.0038
 7648W        W23457  14.819  10.304  12.990  0.3381 -0.0701  0.2336
 7649W        W23458  10.021  10.363   2.204  0.3847 -0.0644  0.0175
 7650W        W23459  13.485   4.306   1.648  0.1736  0.1744  0.2864
 7651W        W23460   5.444   6.822   1.853 -0.0322 -0.0945 -0.1560
 7652W        W23461   4.371   7.181  15.500  0.2788  0.3079 -0.1915
 7653W        W23462  11.081   4.319  16.233 -0.0202  0.2202  0.0985
 7654W        W23463  16.603   0.307   4.911 -0.2300 -0.0369 -0.0311
 7655W        W23464   0.775   2.782  15.312  0.1148  0.0153  0.0304
 7656W        W23465  12.330   5.870   0.267 -0.0739  0.3505 -0.0382
 7657W        W23466  15.183   8.318  13.148  0.0891 -0.0221  0.1793
 7658W        W23467  12.530  10.293  16.382 -0.1085 -0.3157 -0.0433
 7659W        W23468   0.251  10.923  16.244 -0.1496  0.0470  0.1330
 7660W        W23469  12.291   2.472   4.114 -0.0180 -0.0559  0.3397
 7661W        W23470   5.781   7.589  12.712  0.1301  0.2193 -0.2833
 7662W        W23471   3.881   7.979   2.783 -0.0253 -0.1181  0.4254
 7663W        W23472  11.875   2.694  15.817 -0.0440  0.0019  0.1333
 7664W        W23473  12.408   4.907  13.430  0.0009  0.0980 -0.1103
 7665W        W23474   9.424   4.618   0.419  0.0276  0.2188 -0.0285
 7666W        W23475  14.232  15.350  13.924  0.0779  0.1932 -0.0058
 7667W        W23476   3.017   1.271  15.499 -0.0276  0.0079  0.4527
 7668W        W23477   1.537   3.045   3.375 -0.3786  0.0311  0.2824
 7669W        W23478   9.814  14.890   4.391 -0.0870 -0.0505 -0.0616
 7670W        W23479  11.473  13.988   0.075  0.1320  0.1465 -0.0548
 7671W        W23480  12.857   5.153  13.540  0.0884  0.0000 -0.2204
 7672W        W23481  15.534   6.667  15.083 -0.2175 -0.0397 -0.1139
 7673W        W23482  10.811  10.990  16.281 -0.0825  0.0990 -0.2372
 7674W        W23483   6.539  15.076   5.910 -0.0273 -0.1417  0.1643
 7675W        W23484  13.412  12.838  16.078  0.0893 -0.3288 -0.0498
 7676W        W23485  15.911   6.756   5.146 -0.1207  0.0022  0.0002
 7677W        W23486   3.075   8.399   1.099  0.0227 -0.0421  0.0923
 7678W        W23487   7.003  11.528   1.693  0.0088  0.4808 -0.1783
 7679W        W23488   5.517   8.704   2.568 -0.0719 -0.0701  0.0027
 7680W        W23489   1.794   3.587   4.874  0.1599 -0.1110 -0.2718
 7681W        W23490  11.982   7.968   6.548  0.2476 -0.0668 -0.1062
 7682W        W23491  14.969  14.606   2.423 -0.2275 -0.1479 -0.3316
 7683W        W23492  13.034   6.940  15.742  0.0085  0.1726 -0.1425
 7684W        W23493  17.208  17.556  11.531  0.1591  0.0713  0.2944
 7685W        W23494  15.160  10.310  12.647 -0.2536 -0.0411  0.2899
 7686W        W23495   7.331  10.811   5.678 -0.3894 -0.1940  0.2725
 7687W        W23496  12.353  12.304  12.841  0.0643  0.0553 -0.1704
 7688W        W23497   1.549  15.964  16.454  0.2110  0.3159  0.2089
 7689W        W23498   1.357  14.011   1.696 -0.4720  0.1767  0.0247
 7690W        W23499   8.415   1.479  14.209  0.2423 -0.0137 -0.1445
 7691W        W23500  15.580  14.004   4.069 -0.2215  0.0670  0.0813
 7692W        W23501   7.492   2.176   3.864 -0.2137  0.2443 -0.0139
 7693W        W23502  12.128   7.240  13.375  0.1286 -0.1996 -0.0796
 7694W        W23503   5.690  15.367  13.945 -0.0309  0.1022  0.0123
 7695W        W23504  15.173   0.818   1.397  0.0377  0.0380  0.2666
 7696W        W23505   3.708  11.205   1.762 -0.1806 -0.0065 -0.0692
 7697W        W23506  10.633   8.238  13.838 -0.1455 -0.2989 -0.0365
 7698W        W23507  11.496   9.342  15.270 -0.0271  0.3309  0.3423
 7699W        W23508   1.182  17.395  15.705  0.2329  0.1382 -0.3780
 7700W        W23509  15.806  17.113   0.085  0.0568 -0.0784 -0.3990
 7701W        W23510  17.724   3.115   2.380  0.3534  0.2263  0.2333
 7702W        W23511   1.138  12.427   5.641  0.0813  0.1514 -0.1305
 7703W        W23512   4.735  16.322   3.214 -0.0040  0.2998  0.0382
 7704W        W23513   3.328  11.452   1.480 -0.3046  0.1901  0.1260
 7705W        W23514  16.139   1.928  11.809 -0.0980  0.1131  0.2521
 7706W        W23515  16.627   1.136   3.252 -0.1619  0.1774 -0.2614
 7707W        W23516  13.883  14.471   4.258  0.1473 -0.1786  0.1705
 7708W        W23517  13.062  12.203   4.161  0.4490  0.0496  0.1093
 7709W        W23518  17.384   4.199   6.732  0.0489 -0.2156  0.0323
 7710W        W23519   9.651  16.279  14.730  0.1876  0.2253  0.2940
 7711W        W23520   6.046  14.172  16.028 -0.2109 -0.2703 -0.1836
 7712W        W23521   1.786   0.087  16.756  0.0783 -0.1771 -0.0790
 7713W        W23522   3.528  10.525  15.641 -0.0762  0.0995 -0.0017
 7714W        W23523  12.934  15.514   2.290 -0.0319  0.2084 -0.3245
 7715W        W23524  10.989   6.585  13.287  0.3541 -0.3237 -0.0931
 7716W        W23525   1.244  13.712  16.174 -0.1842  0.4621 -0.1481
 7717W        W23526   0.946   0.201  13.077 -0.3526  0.0728 -0.1345
 7718W        W23527   0.863   3.081  15.752  0.1644  0.0495 -0.2825
 7719W        W23528  16.728   1.446   5.885 -0.1375 -0.0960  0.1394
 7720W        W23529   9.105  11.560  12.541  0.1231 -0.0793 -0.2225
 7721W        W23530   6.113   5.871   3.398  0.1908 -0.1682 -0.1644
 7722W        W23531   0.783  14.001  15.561  0.3611  0.0884  0.0367
 7723W        W23532   9.028   7.712   3.104 -0.1425  0.3520  0.0970
 7724W        W23533  11.627   5.420  15.816  0.1234 -0.0182  0.4559
 7725W        W23534   1.359   9.453  11.632  0.0804  0.0559  0.0685
 7726W        W23535   0.036   8.501   0.881 -0.1667  0.0570 -0.1459
 7727W        W23536  12.482  16.248   5.398 -0.1664 -0.2812  0.0424
 7728W        W23537  10.713  16.525   1.145  0.1816 -0.3943 -0.0372
 7729W        W23538   7.811   9.016  13.509  0.0109 -0.1068 -0.1677
 7730W        W23539   8.877  11.225   4.213 -0.0329  0.0273  0.2369
 7731W        W23540   1.707   3.765  14.869 -0.0806  0.2281 -0.2832
 7732W        W23541  17.484  12.278  16.300  0.4166 -0.2463 -0.0414
 7733W        W23542   7.947  14.630   0.523 -0.1803  0.0416 -0.2802
 7734W        W23543   2.945   2.869  14.041  0.2864  0.1186 -0.2763
 7735W        W23544   7.764   6.909   1.232 -0.0155  0.2243 -0.0271
 7736W        W23545  17.067  17.659   4.916  0.0529  0.0280  0.2781
 7737W        W23546   7.840   0.757  15.258  0.0787  0.0267 -0.1534
 7738W        W23547   2.257   9.854   2.009 -0.1887 -0.1559  0.2234
 7739W        W23548  10.749   1.864  12.455  0.0264  0.1393 -0.1445
 7740W        W23549   2.879   3.097  12.211  0.0905 -0.1096 -0.0117
 7741W        W23550   2.367   5.359  16.490 -0.0041  0.1172  0.2880
 7742W        W23551   7.504  15.662   4.817  0.2142 -0.0374 -0.1216
 7743W        W23552   7.809   7.245   2.649  0.0019  0.4876  0.1598
 7744W        W23553  14.172   1.631   5.996  0.1343  0.1527 -0.4956
 7745W        W23554  15.142  14.223  12.218 -0.0154 -0.1449 -0.2028
 7746W        W23555   4.718   7.935   2.348 -0.2788  0.0295 -0.2308
 7747W        W23556   8.882   8.250   3.512 -0.1006 -0.2550  0.4642
 7748W        W23557   2.884  17.514  15.551  0.0406  0.0110 -0.0052
 7749W        W23558   8.390  11.823   4.733 -0.2158 -0.1300  0.2545
 7750W        W23559  14.705   0.360   3.564  0.0625 -0.0132  0.0326
 7751W        W23560   8.760   0.967  14.372  0.0248 -0.1346 -0.1464
 7752W        W23561   1.228   8.134  15.691 -0.1021 -0.0068  0.3095
 7753W        W23562   9.055   3.936   3.526 -0.2111  0.1368 -0.2035
 7754W        W23563   2.214   6.455   2.916 -0.0259 -0.0759 -0.0280
 7755W        W23564   1.934   6.951   1.527  0.1445  0.3411  0.2644
 7756W        W23565  13.039   7.341   4.271  0.1448 -0.0063 -0.1018
 7757W        W23566   5.908   5.719   0.834 -0.0153  0.1427  0.2189
 7758W        W23567   5.634   5.676   0.055  0.1385  0.0767 -0.2657
 7759W        W23568   3.786   0.439   0.315  0.1817 -0.1583  0.2510
 7760W        W23569  14.580   6.974   5.510  0.1498  0.0260  0.1969
 7761W        W23570  15.049   9.512   5.823 -0.1328  0.2099  0.4864
 7762W        W23571   5.805   9.485   5.440 -0.0203  0.0001  0.2153
 7763W        W23572   6.960   7.426   0.941  0.1170 -0.0073  0.2472
 7764W        W23573   7.865  15.305  14.921  0.1435  0.0167  0.2036
 7765W        W23574   8.508  14.192   2.999  0.0838  0.1168 -0.2438
 7766W        W23575   3.636  10.167  14.333 -0.2835 -0.0001  0.1174
 7767W        W23576   2.382  10.059   0.429  0.1234 -0.2639 -0.0684
 7768W        W23577  10.284   6.876   6.280  0.2914 -0.2755  0.1173
 7769W        W23578  11.287  13.000   5.286  0.3348  0.0222 -0.1140
 7770W        W23579  11.017  12.814   0.028 -0.1861 -0.1320  0.1348
 7771W        W23580  15.709  13.420   0.228  0.0419  0.0720 -0.1873
 7772W        W23581   1.971  14.468  11.261  0.0471  0.1037  0.0243
 7773W        W23582  13.855   3.400   5.314 -0.0245  0.5857 -0.0773
 7774W        W23583  10.944   9.268  16.590 -0.0379 -0.0262  0.1043
 7775W        W23584  15.602   8.818   3.278  0.2258 -0.1413  0.0175
 7776W        W23585  15.594  15.255  13.550 -0.0736  0.2336  0.0447
 7777W        W23586   2.898   0.934  12.441 -0.0796  0.0199 -0.3109
 7778W        W23587  10.190  12.343  16.771 -0.3978 -0.2632  0.0500
 7779W        W23588   6.513   8.316   1.021  0.1058 -0.1367  0.2534
 7780W        W23589   7.222   0.486   1.584 -0.3165  0.0083 -0.1110
 7781W        W23590   3.484   3.149   3.985  0.3576 -0.1123  0.0412
 7782W        W23591  16.520   3.427  12.322 -0.0850 -0.0930 -0.1104
 7783W        W23592  17.397  12.980  16.010 -0.0814 -0.1095  0.0349
 7784W        W23593  14.648   7.648  16.003 -0.0440  0.3426 -0.0832
 7785W        W23594   9.776  17.560   0.175  0.0246  0.0428  0.1093
 7786W        W23595  11.491   3.314   4.065 -0.4323 -0.2467  0.1547
 7787W        W23596  17.016   0.270  11.516 -0.0303  0.0144 -0.1071
 7788W        W23597   6.497   9.416  13.565 -0.0020 -0.1204 -0.4142
 7789W        W23598  13.951  12.052  11.561  0.1928  0.0380  0.0394
 7790W        W23599  15.354   7.387   2.558  0.3244 -0.2470  0.1198
 7791W        W23600  14.562  14.376  15.637 -0.0351  0.0574  0.3402
 7792W        W23601   5.152   3.928  13.935 -0.0979 -0.2367  0.2061
 7793W        W23602   5.801   7.326  16.136 -0.2260  0.0666  0.1126
 7794W        W23603   3.771  15.809  12.611  0.0305 -0.1786 -0.2174
 7795W        W23604  13.994   3.039   6.414  0.2210  0.0645 -0.0946
 7796W        W23605   2.519   8.370   2.227  0.1866 -0.1703 -0.2371
 7797W        W23606  16.652  17.569  13.387  0.0887  0.0809  0.0207
 7798W        W23607   4.252  10.672  15.086 -0.0490  0.0105  0.1325
 7799W        W23608  17.506   0.047   1.357  0.1140  0.2137  0.3926
 7800W        W23609   8.669   7.769   4.387  0.1074  0.1113  0.5341
 7801W        W23610   5.749  17.700  16.417 -0.0780 -0.1576 -0.1743
 7802W        W23611   8.100   4.483  14.574  0.0141  0.0354  0.3913
 7803W        W23612  17.519  13.071   0.641 -0.4212  0.1338 -0.0887
 7804W        W23613  13.407  14.149  12.166 -0.2542 -0.1426  0.0214
 7805W        W23614   2.959   8.236   2.466  0.2891  0.0980  0.0219
 7806W        W23615  16.141   3.512  11.011  0.2078 -0.0833 -0.0869
 7807W        W23616  11.658  13.547  12.286  0.1733  0.2812 -0.2430
 7808W        W23617   1.594  10.536  16.289  0.1088  0.0787  0.0013
 7809W        W23618  16.995   4.925  15.587 -0.3322  0.0741 -0.0281
 7810W        W23619   0.050  10.005  14.491 -0.2178  0.0215  0.1726
 7811W        W23620   7.718   1.514   4.455 -0.0942 -0.0045 -0.0709
 7812W        W23621   2.760   9.874   0.762 -0.0788  0.1772  0.1042
 7813W        W23622   3.760   3.574   3.854  0.1339 -0.3380  0.2494
 7814W        W23623   6.351   7.695   5.503  0.0641  0.1156  0.1249
 7815W        W23624   3.451  16.472  16.663  0.0074  0.1104  0.1247
 7816W        W23625  13.957  16.257  12.026  0.1204 -0.1917 -0.0298
 7817W        W23626   7.668   7.986   2.742  0.1003 -0.0056 -0.2484
 7818W        W23627  14.397  11.241   3.279  0.0243 -0.0353  0.0558
 7819W        W23628   1.885   8.462  14.386 -0.2230 -0.2262 -0.0884
 7820W        W23629  10.393   2.512  13.347 -0.1548  0.0831  0.0799
 7821W        W23630   2.420  13.836   1.214 -0.0600  0.1082  0.4481
 7822W        W23631  14.270  13.584   4.676 -0.0766  0.2252  0.0377
 7823W        W23632  11.367  10.167  13.211 -0.0621 -0.2271  0.0966
 7824W        W23633  10.835  10.258  13.870  0.2285  0.0257 -0.2038
 7825W        W23634   5.427  10.868  16.895 -0.0401 -0.0006  0.2092
 7826W        W23635   6.577   2.792  16.554 -0.1714 -0.0249 -0.0576
 7827W        W23636   2.223  15.900   2.421  0.0600 -0.4261  0.0793
 7828W        W23637  15.716   0.457  11.670  0.0999 -0.1288 -0.1456
 7829W        W23638   5.572   7.505  12.009  0.1963  0.0331 -0.0087
 7830W        W23639   2.824   8.259  13.545 -0.0392 -0.1294 -0.0074
 7831W        W23640   0.603  12.286   2.724  0.0657  0.1565 -0.0573
 7832W        W23641   5.718   1.633  13.739  0.0335 -0.2452 -0.1919
 7833W        W23642   6.595   5.295  15.185  0.2033 -0.2012 -0.2902
 7834W        W23643  13.108   4.516   6.040 -0.0254 -0.0625 -0.1332
 7835W        W23644  11.067   9.100   5.232  0.0821 -0.1156 -0.0592
 7836W        W23645   1.114   8.260   0.995 -0.0272 -0.1193 -0.0676
 7837W        W23646  15.528   9.740  11.792  0.3365  0.0773  0.0756
 7838W        W23647   6.879   7.843   1.938 -0.0936 -0.0949  0.1829
 7839W        W23648   0.197   2.971  14.123 -0.0056 -0.0984  0.0258
 7840W        W23649  14.064   4.250   5.506 -0.1113  0.0613  0.0094
 7841W        W23650  16.485  17.152  16.105 -0.2226 -0.3272 -0.1493
 7842W        W23651   5.157   2.491  15.571  0.2237 -0.1106  0.0188
 7843W        W23652  11.381  14.725  12.966  0.0292 -0.2503  0.0587
 7844W        W23653  16.397  15.581  11.710  0.1151  0.1113 -0.0726
 7845W        W23654   8.133   5.137  13.930  0.0027  0.0049 -0.1058
 7846W        W23655   9.500   8.316  11.679 -0.0518  0.1442  0.1741
 7847W        W23656   1.012   5.305   4.569 -0.1149 -0.0068  0.0927
 7848W        W23657  17.615   8.701  13.391  0.0004 -0.0828 -0.0398
 7849W        W23658  15.102  11.942  14.832  0.0245  0.0028  0.0073
 7850W        W23659   4.372  12.016  15.367 -0.0581 -0.0242 -0.2977
 7851W        W23660   8.327  16.508   1.808  0.0665  0.2442  0.0956
 7852W        W23661   0.150   1.353  13.080  0.3916 -0.3509  0.1260
 7853W        W23662   2.230  10.759  15.693 -0.0199  0.2633 -0.1054
 7854W        W23663   9.446  15.023  12.305 -0.1770  0.4270  0.0001
 7855W        W23664  13.158   7.319  12.553  0.2659 -0.2616  0.0682
 7856W        W23665   5.621  10.060   0.910  0.1428 -0.2489  0.0930
 7857W        W23666  10.556   0.099   1.416  0.0559 -0.0430 -0.2163
 7858W        W23667  16.794   6.961   5.282  0.1697  0.2561 -0.0563
 7859W        W23668   9.512  16.826  12.464 -0.0187  0.1050  0.2887
 7860W        W23669  10.544  14.020   3.770 -0.0849 -0.1944  0.0098
 7861W        W23670  17.050   6.374  16.908 -0.1457  0.0430  0.1695
 7862W        W23671   1.703   3.232  15.042  0.0057  0.3975  0.0085
 7863W        W23672   5.773   8.544  14.343  0.0692 -0.4314 -0.1104
 7864W        W23673   2.980   8.088   1.499  0.2317 -0.2836  0.0083
 7865W        W23674   0.506   7.884  14.294  0.4715 -0.1374  0.0509
 7866W        W23675   6.037   4.554   4.697 -0.0989 -0.3020  0.1336
 7867W        W23676  10.489   8.490  15.077  0.0048 -0.3156  0.0419
 7868W        W23677   1.123   6.707   4.577  0.3107  0.1709  0.3615
 7869W        W23678   3.107   7.741   3.169  0.4120 -0.0377 -0.1066
 7870W        W23679   5.814   4.565  13.512  0.0959 -0.0315  0.0177
 7871W        W23680   0.663  11.484  15.871  0.1131 -0.2313  0.0647
 7872W        W23681   3.802   0.739   4.617  0.1449  0.1936  0.1475
 7873W        W23682  15.301   4.623   0.760  0.0240 -0.0785  0.1789
 7874W        W23683   4.563   1.699   2.726 -0.0936  0.0878 -0.1085
 7875W        W23684  13.520  10.698   4.610 -0.0085  0.4708 -0.0194
 7876W        W23685   0.821   7.148  14.157  0.0919  0.2091 -0.0528
 7877W        W23686  10.398  10.830   5.290  0.0284 -0.1492 -0.0411
 7878W        W23687  17.448  11.046   6.341  0.0552  0.2519  0.2240
 7879W        W23688  15.790  15.598   3.850 -0.1059 -0.0418 -0.2303
 7880W        W23689  14.650   4.328   4.651  0.0447  0.1957 -0.0452
 7881W        W23690   9.541  13.533  16.792 -0.1592  0.2966 -0.0706
 7882W        W23691   3.635   5.799   6.550  0.0548  0.0314  0.0456
 7883W        W23692  15.253  10.854   4.166  0.0898 -0.0613 -0.2060
 7884W        W23693   3.366  11.403  11.922 -0.2510  0.0605  0.2167
 7885W        W23694  10.206  17.247   5.243 -0.1271 -0.0618  0.0921
 7886W        W23695  17.471   6.394   3.637  0.0996  0.1621 -0.2223
 7887W        W23696   9.525  13.557   4.459 -0.0624  0.0011 -0.0121
 7888W        W23697   9.509  13.735   1.606 -0.0995  0.0604  0.1075
 7889W        W23698  16.231  13.806  15.266  0.0482  0.1339 -0.1696
 7890W        W23699  13.566  10.864  11.926  0.0221  0.3243  0.0365
 7891W        W23700  17.038  10.250   1.277 -0.0159 -0.1218  0.1676
 7892W        W23701  10.571   1.505  12.073  0.0480  0.3224 -0.0518
 7893W        W23702   7.113   5.561  14.542  0.2706  0.0761  0.2069
 7894W        W23703  13.167  14.283  16.541  0.1358 -0.0553  0.1167
 7895W        W23704  14.542   1.887  13.804 -0.2519 -0.1058  0.0898
 7896W        W23705  14.968  15.383   4.854  0.1703 -0.0736  0.2548
 7897W        W23706  11.081   7.404  14.015 -0.0285  0.2777  0.2093
 7898W        W23707   6.473   3.314  15.136 -0.2243  0.0035 -0.0913
 7899W        W23708   0.996   1.641   2.461  0.1860 -0.0520  0.2224
 7900W        W23709   7.738  13.581   0.416  0.1053  0.0901  0.3576
 7901W        W23710   8.715  16.875   4.401  0.0423 -0.2218  0.0131
 7902W        W23711   5.637   4.893   1.211 -0.0677 -0.1180 -0.0499
 7903W        W23712  12.877   1.934  16.928 -0.0692 -0.1045  0.0873
 7904W        W23713   8.262   6.454  12.038  0.0630 -0.0084  0.1963
 7905W        W23714   5.343   7.675   3.270  0.1340 -0.0628 -0.0655
 7906W        W23715   2.841   5.947  12.136 -0.0523 -0.1195 -0.3091
 7907W        W23716  13.328   1.288   0.805  0.3029 -0.1628 -0.4038
 7908W        W23717   8.516  10.005   0.619 -0.3164 -0.2375  0.0181
 7909W        W23718   0.657   7.491   1.452 -0.3935 -0.3801  0.0809
 7910W        W23719  16.105   5.750   3.925  0.1235  0.0061 -0.2596
 7911W        W23720  17.615  10.734   3.488 -0.1456 -0.0349 -0.1390
 7912W        W23721  14.227  12.698   5.450  0.0931  0.1417 -0.0101
 7913W        W23722   7.607   3.367   4.892  0.1044  0.0541  0.0276
 7914W        W23723   3.450  13.635  14.916 -0.1056  0.1270  0.1194
 7915W        W23724  10.904   8.347  14.285  0.0305  0.0023 -0.0950
 7916W        W23725   7.734   0.890  11.890  0.2244  0.1096 -0.3856
 7917W        W23726   1.200  15.546  12.472  0.0419 -0.1987  0.0054
 7918W        W23727  16.367   1.751   1.647 -0.0369 -0.2893 -0.3112
 7919W        W23728  17.328  14.972  13.297 -0.1282 -0.0997  0.0879
 7920W        W23729  11.027   3.557   5.820 -0.0992  0.1871  0.1449
 7921W        W23730   0.921  15.445  16.889 -0.0689 -0.1611  0.0839
 7922W        W23731   6.373   8.161  13.056 -0.0113 -0.1563 -0.1891
 7923W        W23732   0.609  17.148   4.611 -0.2158 -0.1785  0.2288
 7924W        W23733  12.055   1.121   1.600  0.2015  0.1263 -0.1208
 7925W        W23734  16.948   0.979  16.330  0.0342  0.2410  0.1714
 7926W        W23735  13.143   9.724   5.903 -0.0629  0.0331  0.4175
 7927W        W23736   9.378   9.855   4.623  0.5677 -0.1479  0.1263
 7928W        W23737   2.104  11.039   1.295  0.1033  0.1776  0.0320
 7929W        W23738  14.157  11.787  13.417 -0.0482  0.0109 -0.0893
 7930W        W23739   0.430   1.266  15.472  0.3162  0.2891  0.0141
 7931W        W23740  16.633   0.114   0.896 -0.1794  0.1032  0.0672
 7932W        W23741  16.061  12.704  10.901  0.1947 -0.3046  0.0664
 7933W        W23742  12.554   8.894   3.431 -0.2662  0.1890 -0.2157
 7934W        W23743   8.010   9.471   2.825  0.2030  0.1846 -0.0770
 7935W        W23744   6.711   2.169   3.813 -0.0158  0.0138 -0.1667
 7936W        W23745  11.861   2.554   0.757  0.1890 -0.1802  0.0541
 7937W        W23746  13.810  12.520  16.956  0.2327 -0.0933  0.0704
 7938W        W23747   9.654  16.150  13.960 -0.1556 -0.1951 -0.0246
 7939W        W23748   3.338  11.895   1.717 -0.1449 -0.1144 -0.2307
 7940W        W23749  16.121   2.873   5.221 -0.1904  0.2082 -0.0580
 7941W        W23750   5.314   8.829   0.865 -0.0095  0.2896  0.2534
 7942W        W23751   9.050   1.229   1.497 -0.0927 -0.0186 -0.0691
 7943W        W23752  15.565   5.529  15.033 -0.2102  0.2134 -0.1688
 7944W        W23753   8.992   3.896  15.936 -0.0719  0.0133  0.0463
 7945W        W23754   3.118  15.406   0.337  0.0362  0.1754  0.0842
 7946W        W23755   8.759  13.712  16.280 -0.0204  0.2682 -0.0072
 7947W        W23756   1.044  16.369   3.484  0.0005  0.1618 -0.0022
 7948W        W23757  12.846  13.379  16.751  0.2299 -0.1285  0.1967
 7949W        W23758   3.746  11.438   2.693 -0.1087  0.2041 -0.2718
 7950W        W23759   9.535  13.947  14.625 -0.0112  0.1893  0.0388
 7951W        W23760  15.017   3.637  14.414 -0.1772  0.0238  0.0957
 7952W        W23761   8.991   9.198  13.873  0.3546 -0.1537 -0.2403
 7953W        W23762   1.592   9.531  12.611  0.4492  0.2574  0.2693
 7954W        W23763   6.935  16.738  13.786 -0.2614  0.3325  0.1149
 7955W        W23764   8.463   9.191   5.748 -0.2472  0.0350 -0.1484
 7956W        W23765   3.188  13.946   3.285 -0.2025 -0.0182  0.2101
 7957W        W23766   7.335   5.348   1.729 -0.0800  0.1269 -0.2814
 7958W        W23767  16.013   6.351  13.260 -0.0318  0.0807 -0.2964
 7959W        W23768  10.917   0.400  12.778  0.0148  0.1559  0.0271
 7960W        W23769  12.946   0.090  13.357  0.0292  0.0546 -0.1244
 7961W        W23770  10.359   5.855   0.873  0.0467  0.2804 -0.0900
 7962W        W23771  16.594  15.015   2.560  0.0785  0.1803 -0.0530
 7963W        W23772   2.516  17.702   3.300  0.0671  0.0536 -0.1273
 7964W        W23773   4.673  16.829   5.198 -0.2558  0.1181  0.2607
 7965W        W23774   2.069  14.321   4.231  0.0083 -0.1842 -0.0388
 7966W        W23775   0.045   9.175   0.709 -0.2510  0.0154  0.1542
 7967W        W23776   4.311  12.807  14.371 -0.2096 -0.2213 -0.0233
 7968W        W23777   5.816  15.591  16.636  0.1804 -0.3028  0.0171
 7969W        W23778   9.519  13.630   2.198 -0.0485 -0.0201  0.0523
 7970W        W23779   8.441   9.833  12.629 -0.0457 -0.3122 -0.0777
 7971W        W23780   9.455  11.988  14.897 -0.2512  0.0363  0.3101
 7972W        W23781   4.176  16.328  14.858  0.0205 -0.1210 -0.1032
 7973W        W23782   2.788   0.967  15.090  0.2228  0.1050 -0.2300
 7974W        W23783   1.945   4.274   0.845  0.0897 -0.0606  0.0764
 7975W        W23784   0.461  15.030   4.829  0.0369  0.2461  0.1417
 7976W        W23785   7.229   6.076  12.342  0.2823  0.1017  0.2631
 7977W        W23786   2.279  11.097   1.819  0.3432 -0.2986 -0.0522
 7978W        W23787   8.837  17.478  12.902 -0.0520  0.0654 -0.1529
 7979W        W23788  15.341   5.067  16.954 -0.1700 -0.0634  0.2032
 7980W        W23789   5.349   3.015  14.084 -0.0005 -0.1609  0.0301
 7981W        W23790  10.126   9.006  12.384 -0.0864 -0.1476 -0.2277
 7982W        W23791   3.658   8.380   4.889 -0.3428 -0.0388  0.2428
 7983W        W23792   2.415   5.459   1.832  0.2599 -0.2339 -0.0933
 7984W        W23793   0.835   2.906  16.465 -0.2035  0.2533 -0.2022
 7985W        W23794  12.244   7.249  16.623 -0.1489 -0.1025 -0.1912
 7986W        W23795  11.931  14.061  15.003  0.3369 -0.1091 -0.3576
 7987W        W23796   8.033   0.864  16.844 -0.1949 -0.0640 -0.0995
 7988W        W23797  11.310  14.768   4.952 -0.1112  0.0458 -0.3615
 7989W        W23798  12.747   2.492  14.988 -0.1651 -0.0966 -0.0036
 7990W        W23799   9.223  14.093   1.908 -0.1020  0.2108 -0.2380
 7991W        W23800  13.952   8.161   4.677 -0.0722 -0.1090  0.0733
 7992W        W23801  16.250   4.254   0.948  0.0060 -0.3370  0.0839
 7993W        W23802   3.744   3.049  15.140  0.1418  0.1777  0.1904
 7994W        W23803  13.281  10.694   5.408 -0.1197 -0.0565  0.2409
 7995W        W23804   5.577   5.305  15.349  0.0196 -0.1098  0.1660
 7996W        W23805   2.567   9.226   2.669 -0.1589  0.2282  0.0797
 7997W        W23806   2.076   6.781  15.676 -0.0957  0.2518  0.0032
 7998W        W23807  15.017   8.003   2.200 -0.1105  0.1868 -0.2797
 7999W        W23808   0.923   8.104   4.739  0.2644 -0.1363 -0.0448
 8000W        W23809   6.891   3.881   2.858 -0.0511  0.2949 -0.1635
 8001W        W23810   8.312   5.301   5.607  0.1007 -0.2583 -0.0224
 8002W        W23811  12.559   9.848  15.792  0.1240  0.1407  0.1450
 8003W        W23812  12.689   5.177  14.059  0.3278  0.1893 -0.0227
 8004W        W23813  10.482   9.355  15.189  0.1754  0.1051 -0.0793
 8005W        W23814   4.803   6.052  13.122 -0.1106  0.1336  0.1470
 8006W        W23815  16.823   5.921  14.722  0.1001 -0.0376  0.2175
 8007W        W23816  14.333   7.773  13.384 -0.3114  0.0994  0.1679
 8008W        W23817   9.330  16.593  13.383 -0.0822  0.1946 -0.2973
 8009W        W23818   8.610   2.359   0.352  0.1486 -0.1017 -0.0017
 8010W        W23819  11.842   0.209  15.531  0.2197  0.0775  0.2616
 8011W        W23820  10.647   9.953   3.190 -0.0039 -0.0023  0.0340
 8012W        W23821   0.457  10.447  11.743  0.0335  0.0724  0.3697
 8013W        W23822  16.595   3.744   1.709 -0.1745 -0.1865 -0.2016
 8014W        W23823   2.849   2.114  12.574 -0.1212  0.2250 -0.0749
 8015W        W23824   9.845  13.059   3.007 -0.1055 -0.0017 -0.0040
 8016W        W23825   3.419   2.654  10.843 -0.1400  0.0967  0.1172
 8017W        W23826  14.282  15.850   0.687 -0.2734  0.3996  0.0592
 8018W        W23827  15.447  15.331  15.109  0.2293 -0.1445 -0.2338
 8019W        W23828  13.266   3.437   2.520 -0.1233  0.1604 -0.0006
 8020W        W23829   2.306   4.020  12.929  0.1899  0.2936 -0.1359
 8021W        W23830  12.284   0.356  12.913 -0.0330 -0.0219  0.0853
 8022W        W23831  12.465  10.781  15.148 -0.2988  0.2828  0.1397
 8023W        W23832   3.891   4.323  12.119  0.3284  0.0012 -0.5216
 8024W        W23833   3.385  15.684   5.338 -0.1871 -0.1768  0.0597
 8025W        W23834   6.549  11.128   4.863  0.2873 -0.0042 -0.0333
 8026W        W23835  15.580   5.422   1.818 -0.1309  0.1795  0.0498
 8027W        W23836  16.064   6.696  15.472  0.1177  0.3803 -0.1345
 8028W        W23837   8.415  16.053   4.829  0.1181  0.0971 -0.0334
 8029W        W23838  12.987   7.029  13.123  0.1324  0.3511 -0.1836
 8030W        W23839   7.354   9.033  14.808  0.1753  0.0479  0.3473
 8031W        W23840   6.635  16.703  15.171  0.0878 -0.1100 -0.0232
 8032W        W23841   3.345  13.875  13.063  0.0211 -0.0991  0.0280
 8033W        W23842   0.913   5.043  13.462  0.0191  0.1887 -0.0041
 8034W        W23843   3.332  15.052   5.015  0.2308 -0.1985  0.3420
 8035W        W23844   4.302  10.778  11.848 -0.3521 -0.4441  0.2988
 8036W        W23845  13.322  16.705   4.342  0.0566  0.3119  0.0871
 8037W        W23846  12.211  15.599  12.462  0.0474 -0.0707  0.2852
 8038W        W23847   4.694   5.333   2.625  0.3787 -0.0478 -0.0177
 8039W        W23848  11.881  12.976  11.498 -0.0115  0.1045  0.0665
 8040W        W23849  11.084  17.371   4.776 -0.0912  0.1336  0.2969
 8041W        W23850   5.330  10.028  16.477  0.2832  0.3766 -0.0977
 8042W        W23851   5.477  11.893  15.617 -0.0950  0.0264  0.0825
 8043W        W23852   8.063  11.774  14.048 -0.3337  0.1017  0.0391
 8044W        W23853   3.190  11.396  13.418  0.0190  0.2823  0.1823
 8045W        W23854  16.919  12.320  13.029 -0.0691  0.2018 -0.0489
 8046W        W23855  12.387   7.685   0.450 -0.0754 -0.0608 -0.3106
 8047W        W23856   8.085   5.030  13.068  0.0413 -0.0266  0.0721
 8048W        W23857  15.322  14.471  13.644 -0.0091  0.1104  0.2549
 8049W        W23858   7.273   5.827  14.923  0.0705 -0.3297  0.2014
 8050W        W23859   9.318   0.241  12.172 -0.1410 -0.1208  0.2667
 8051W        W23860   2.579   2.558   6.519  0.1071  0.3172  0.1622
 8052W        W23861   2.889  16.825   1.804 -0.0432 -0.1167  0.1792
 8053W        W23862   6.260   9.045   2.585 -0.0734 -0.0608 -0.0474
 8054W        W23863   2.409   8.112   5.387  0.2833 -0.0427  0.1540
 8055W        W23864   6.913  17.558  15.211 -0.0462 -0.0211 -0.4381
 8056W        W23865   9.092  16.551  12.560 -0.0496 -0.0375 -0.1060
 8057W        W23866   8.591   1.471  14.707 -0.1851  0.1256  0.2644
 8058W        W23867  16.735  11.532  16.216 -0.1072 -0.4275  0.1788
 8059W        W23868   8.556  11.935   5.237 -0.1687  0.0058  0.0216
 8060W        W23869  15.625  16.771  13.257 -0.1589  0.0266 -0.0348
 8061W        W23870   8.128   5.882  15.546  0.1676  0.2984  0.0235
 8062W        W23871   4.741  10.876   3.235  0.5690  0.1383 -0.1309
 8063W        W23872   8.614  15.551  16.464  0.0200  0.0459 -0.1246
 8064W        W23873  17.254  11.477  13.599  0.1403  0.1379  0.1583
 8065W        W23874   4.267  14.890  15.027 -0.0301  0.1388 -0.2192
 8066W        W23875  17.601  10.291   2.525 -0.1886 -0.1172  0.0116
 8067W        W23876   0.128  12.076   1.898  0.0679  0.0686  0.1761
 8068W        W23877  10.268   2.919   2.626 -0.0775 -0.0495  0.2140
 8069W        W23878   7.248  14.341   4.990  0.2935 -0.1581  0.1699
 8070W        W23879  14.614   6.737  14.811  0.0652  0.1614 -0.3468
 8071W        W23880   8.752  13.759   4.727 -0.1250  0.1566  0.0510
 8072W        W23881  12.130   1.927  12.597 -0.2563  0.1711  0.2059
 8073W        W23882   3.165  12.038   3.275 -0.0971 -0.0761 -0.1006
 8074W        W23883   9.137   2.988  12.377 -0.2571 -0.2678 -0.1041
 8075W        W23884  15.588   0.229  12.835  0.1187 -0.2568  0.2627
 8076W        W23885   3.388  12.127   2.338  0.0751 -0.2145 -0.1021
 8077W        W23886  14.362  11.795   6.051 -0.0434 -0.1319 -0.2294
 8078W        W23887  13.661   2.069   2.761  0.0066 -0.0233  0.2053
 8079W        W23888   0.749  10.598  12.541  0.3279  0.1779 -0.0831
 8080W        W23889  17.600   9.525  12.638 -0.2740 -0.0380  0.1999
 8081W        W23890   7.366   5.638  14.091 -0.0475 -0.1854  0.0849
 8082W        W23891   7.630  13.003   3.689 -0.0952 -0.2297  0.1449
 8083W        W23892  16.772  11.741   3.044  0.0891 -0.1622 -0.1168
 8084W        W23893  13.847   3.840  15.683  0.1018  0.4422  0.0335
 8085W        W23894   8.937  12.261   0.688 -0.2110 -0.0294 -0.2981
 8086W        W23895   4.039  11.380   2.145  0.0653 -0.0423  0.1494
 8087W        W23896   5.448   8.780   3.328  0.0019 -0.2285  0.1026
 8088W        W23897  11.000   2.869   3.245 -0.1732 -0.1929 -0.1980
 8089W        W23898  16.416   5.330   3.995 -0.2899 -0.3002  0.0386
 8090W        W23899   6.695   1.576   3.614  0.2120 -0.0264  0.0426
 8091W        W23900  16.322   7.464   1.308 -0.1041 -0.1271 -0.3295
 8092W        W23901  12.120  14.298   2.996  0.0666  0.0720 -0.2841
 8093W        W23902   5.499  13.065  12.391  0.0679 -0.0527  0.0092
 8094W        W23903   4.377   8.596   4.127 -0.3052 -0.3912  0.2515
 8095W        W23904   1.225   8.918   2.736 -0.1152  0.0061 -0.0996
 8096W        W23905   9.548   8.145   3.939  0.2881 -0.2743 -0.0865
 8097W        W23906   1.715  17.510  13.160 -0.0471 -0.0458 -0.0306
 8098W        W23907  13.862   1.029  15.069 -0.1186  0.0464  0.0517
 8099W        W23908  13.512   9.835  10.795  0.0343 -0.1168 -0.1946
 8100W        W23909  13.316   7.720  16.931  0.0917 -0.1024  0.0172
 8101W        W23910  12.855  13.351  12.584 -0.1149 -0.2135 -0.0091
 8102W        W23911   9.786   5.965   6.549 -0.1346 -0.0948 -0.1068
 8103W        W23912  14.953  15.112   5.648 -0.2399  0.3256  0.0448
 8104W        W23913  13.165   2.513  16.362  0.1782  0.0044 -0.0828
 8105W        W23914  12.260   0.167  15.261 -0.0906  0.1343 -0.0643
 8106W        W23915   6.927  15.751  10.648 -0.0939  0.0186  0.0865
 8107W        W23916   9.784  14.235  12.083  0.0536 -0.1589  0.3466
 8108W        W23917  10.316  11.261  11.157  0.2099  0.2881  0.2637
 8109W        W23918   5.496  13.631   4.435  0.0675 -0.1201 -0.1486
 8110W        W23919  12.721  12.128   3.635 -0.0063  0.2232 -0.0017
 8111W        W23920   6.276  13.430  11.007  0.6071  0.0889  0.3050
 8112W        W23921   8.629   0.740  13.835 -0.0125  0.4632 -0.2858
 8113W        W23922  13.780  14.890   4.499  0.1810 -0.2409  0.0868
 8114W        W23923   9.009   1.577  15.772 -0.0699 -0.0288  0.1603
 8115W        W23924   9.085   1.302  13.505 -0.2906 -0.0052  0.0994
 8116W        W23925   0.078  15.386   5.110  0.2729 -0.2338  0.1112
 8117W        W23926   1.981  11.908  14.800 -0.0412  0.0758  0.0911
 8118W        W23927   2.421   2.171   4.836  0.0284  0.0819  0.0777
 8119W        W23928   5.139   5.325  11.065 -0.1279 -0.0502 -0.0510
 8120W        W23929  14.124  13.677   4.065  0.0220 -0.0898 -0.1369
 8121W        W23930   1.048  11.248  15.738  0.1159 -0.1825 -0.0028
 8122W        W23931   9.687  16.283  13.517 -0.1012  0.1815 -0.1395
 8123W        W23932   0.079   2.676   2.129 -0.0341  0.1307 -0.2007
 8124W        W23933  12.986   8.966   4.707  0.1397  0.0838  0.1368
 8125W        W23934  17.031   0.669   5.181 -0.0138 -0.4240 -0.1756
 8126W        W23935  15.161   0.031  12.148 -0.1679  0.1104  0.1779
 8127W        W23936   4.173   6.017   3.194 -0.0021  0.2836  0.0125
 8128W        W23937   9.926   0.844   2.078  0.0516  0.1363  0.0622
 8129W        W23938   6.016  13.360  11.743  0.0737  0.2429  0.1789
 8130W        W23939  14.668   1.013  13.139 -0.0124 -0.0267  0.0364
 8131W        W23940  12.238   0.931   2.443 -0.4049  0.2818  0.0329
 8132W        W23941   0.849   4.473   5.050  0.1187 -0.1618 -0.1956
 8133W        W23942   9.088  13.764  14.948 -0.1599 -0.2536  0.2287
 8134W        W23943   8.169   9.971   0.279 -0.3455  0.2471 -0.1298
 8135W        W23944  15.212  17.197  10.310  0.0148  0.0334  0.2614
 8136W        W23945  16.845  16.378  11.787 -0.0348 -0.3995 -0.2510
 8137W        W23946   0.569   9.486  11.534  0.1256 -0.2837  0.0652
 8138W        W23947   5.074   1.030  14.851 -0.4487  0.0679 -0.1655
 8139W        W23948   1.726   5.579   1.061  0.0404  0.0435 -0.1468
 8140W        W23949   9.643  10.687   2.032  0.0134 -0.0009 -0.3086
 8141W        W23950  10.226   2.282   0.907  0.0466 -0.0130  0.1581
 8142W        W23951  16.808   8.227   0.977 -0.0379 -0.3899 -0.0453
 8143W        W23952   5.125  12.334   2.127 -0.2109  0.2503  0.0931
 8144W        W23953  15.814  11.745  12.529 -0.2734  0.2546  0.4689
 8145W        W23954  13.127   6.358  14.454  0.1164 -0.1400  0.1567
 8146W        W23955  14.480   9.132  15.176  0.2776 -0.1787  0.1032
 8147W        W23956   8.214  17.369  10.939  0.1027 -0.1529  0.1577
 8148W        W23957  13.152  15.331  14.112 -0.3653 -0.2183  0.0651
 8149W        W23958  17.602   6.137   2.891 -0.1537 -0.2730 -0.0348
 8150W        W23959  15.372  16.598   5.128  0.0526  0.2151 -0.0808
 8151W        W23960   5.902   0.128   5.502  0.0728 -0.0930  0.0572
 8152W        W23961  14.737  11.662  11.608  0.0969 -0.3175  0.0914
 8153W        W23962  10.457   7.828  11.777 -0.0820 -0.1165 -0.2674
 8154W        W23963   7.034   5.567   3.997  0.1321  0.2204  0.1779
 8155W        W23964   4.037   2.522  16.658 -0.0521 -0.3652 -0.2752
 8156W        W23965   0.149  13.943   4.245  0.1292  0.0823  0.0769
 8157W        W23966   1.064  16.027   3.100 -0.0626  0.0165  0.2811
 8158W        W23967   5.733   4.223   1.060 -0.0594 -0.0930  0.0283
 8159W        W23968   1.093  10.997   2.617 -0.1531 -0.2732  0.1811
 8160W        W23969   5.476   3.397  15.429 -0.0798  0.0027  0.1208
 8161W        W23970   2.739  13.430  15.452 -0.1308  0.1161  0.1660
 8162W        W23971  11.497   4.456   1.703 -0.0085 -0.0139  0.0291
 8163W        W23972   4.278   3.523  14.810  0.1457 -0.3650  0.2044
 8164W        W23973   9.358   6.501  13.181  0.0139 -0.0627 -0.0859
 8165W        W23974   8.511  12.683   0.744 -0.1413  0.2036  0.0562
 8166W        W23975  14.271   5.817   4.465  0.1668 -0.0538  0.0713
 8167W        W23976   3.655  15.103   1.373 -0.1227  0.1294 -0.0677
 8168W        W23977  12.545  10.774   0.394 -0.1713  0.0347 -0.1656
 8169W        W23978  13.586   7.761  11.710 -0.1896  0.1589 -0.0221
 8170W        W23979  15.298   4.537   1.867 -0.4607  0.2066  0.0427
 8171W        W23980  13.730  13.016   6.210  0.0731 -0.0293 -0.2747
 8172W        W23981  10.799  15.690  13.052 -0.1221  0.1075 -0.1834
 8173W        W23982   8.876   6.197  14.639 -0.2672 -0.0282  0.0807
 8174W        W23983   3.213   8.094  15.842 -0.0160 -0.0509 -0.1415
 8175W        W23984   8.030   7.743   0.908 -0.2206  0.0739  0.1674
 8176W        W23985  16.996   3.132   5.068 -0.1778 -0.1227  0.3789
 8177W        W23986  15.802   6.520  14.140 -0.1204  0.4630 -0.2184
 8178W        W23987   8.111  13.535  14.651 -0.1552 -0.1098 -0.0208
 8179W        W23988   1.698  12.328  13.059  0.2414 -0.1673 -0.0875
 8180W        W23989   0.235   0.500  15.054 -0.2520 -0.0071  0.1449
 8181W        W23990  16.314  13.066  14.290 -0.0637 -0.0391 -0.0866
 8182W        W23991   6.828   1.376  14.738 -0.3289 -0.0771 -0.0057
 8183W        W23992   5.493  14.054  11.441  0.2194 -0.0103  0.0105
 8184W        W23993  11.811   9.932   1.137  0.1557 -0.2020 -0.0079
 8185W        W23994  12.819  11.810  11.756  0.0448  0.0572  0.1589
 8186W        W23995  13.743   8.733   2.630  0.3468 -0.0358  0.3118
 8187W        W23996   8.095  13.978   2.840 -0.0583 -0.0711  0.0234
 8188W        W23997   6.361   9.256  15.125  0.1107  0.2212 -0.2512
 8189W        W23998   2.125  11.348  14.620 -0.0539 -0.1069 -0.2104
 8190W        W23999  16.877  16.082   1.737  0.1676 -0.0190  0.3454
 8191W        W24000  11.506  16.101  13.074 -0.0916 -0.0636  0.2495
 8192W        W24001  14.844   3.141   4.189  0.2415 -0.1285 -0.0577
 8193W        W24002   8.631  10.800   3.358 -0.0267  0.0829  0.4289
 8194W        W24003   7.557   2.360  14.759 -0.3428  0.0326 -0.4200
 8195W        W24004   2.147  15.825  15.782  0.3456  0.1751 -0.0298
 8196W        W24005   1.267   1.928  14.450  0.1574 -0.1351 -0.1188
 8197W        W24006   3.029   4.210   6.022 -0.3051  0.0389  0.1244
 8198W        W24007  15.886   9.456   4.851  0.1016 -0.0805  0.0772
 8199W        W24008  17.498   3.943  13.318  0.0175 -0.0424 -0.0465
 8200W        W24009  12.347  14.961  16.409 -0.1320  0.2092  0.0046
 8201W        W24010   5.613  11.504   2.759 -0.1506  0.3761  0.1505
 8202W        W24011   9.229   5.413  13.414  0.2880  0.2439 -0.2395
 8203W        W24012  10.363  16.944  12.632 -0.0830 -0.1308  0.3272
 8204W        W24013   9.587   1.937  12.626 -0.2990 -0.3092 -0.0139
 8205W        W24014   6.268  13.018  12.549  0.0195 -0.2081  0.1119
 8206W        W24015   6.929   0.276   4.371  0.0104  0.0384 -0.1696
 8207W        W24016  14.347   6.256  14.964  0.0141 -0.0758 -0.2642
 8208W        W24017   4.040  10.356   5.416  0.0486  0.5229  0.2721
 8209W        W24018   8.723  10.076   4.952 -0.0397  0.0178 -0.2305
 8210W        W24019  12.210   9.417   1.999  0.0845 -0.1145  0.1814
 8211W        W24020  17.703   9.691   5.225  0.1057 -0.0051  0.0192
 8212W        W24021  17.055  16.487   5.941  0.2603 -0.4537  0.0018
 8213W        W24022  16.350   8.192  14.628 -0.0836  0.3582  0.4359
 8214W        W24023   1.112   0.286  16.456 -0.0219  0.1257  0.2818
 8215W        W24024  14.112  16.637   3.287  0.1354 -0.0136  0.0878
 8216W        W24025   5.931   5.838  15.099 -0.1040  0.1876 -0.1539
 8217W        W24026   5.962   4.614   0.867 -0.2562  0.2843 -0.3159
 8218W        W24027   6.501   4.535  14.702  0.1508  0.0167  0.1216
 8219W        W24028   1.728  14.918  16.475 -0.1298  0.1528  0.0266
 8220W        W24029   1.593  14.409  11.754  0.0979 -0.0153 -0.0326
 8221W        W24030  13.995  10.421   0.229  0.2970 -0.0359  0.2238
 8222W        W24031  15.422   8.605   6.179  0.2611 -0.1476  0.1222
 8223W        W24032   5.739   5.291   2.667 -0.0903 -0.2451 -0.0871
 8224W        W24033  15.243  13.206  12.544  0.0378  0.1694 -0.0622
 8225W        W24034  17.039   1.864  12.287  0.1192  0.1141 -0.0989
 8226W        W24035  10.937   1.711  16.980  0.1533  0.0471  0.0332
 8227W        W24036  12.698  16.986  14.367 -0.2665 -0.3041  0.0297
 8228W        W24037   2.849  15.197  15.562  0.1923  0.0491 -0.2670
 8229W        W24038  13.281  10.128   3.849 -0.0250 -0.0450 -0.3754
 8230W        W24039  11.284  10.648  15.647  0.1139  0.0081 -0.0391
 8231W        W24040  16.650   5.331  12.560 -0.0485 -0.0963 -0.0525
 8232W        W24041   8.926  15.408  11.571  0.1469  0.1148  0.2158
 8233W        W24042   8.907   8.231  15.043  0.0804  0.1269  0.1403
 8234W        W24043   2.116   8.931   4.243 -0.2084 -0.0044  0.2437
 8235W        W24044   0.444  13.971   1.886  0.1334  0.3498 -0.0524
 8236W        W24045   1.933  12.575   2.084  0.0808  0.0049 -0.0943
 8237W        W24046  14.627   2.401   5.875 -0.2083 -0.0381  0.1174
 8238W        W24047   8.180   6.018  14.058  0.1307  0.2404  0.1559
 8239W        W24048   6.083  15.039  11.815  0.0433 -0.0807  0.1469
 8240W        W24049   4.115   3.482   5.786 -0.0568  0.2196 -0.0429
 8241W        W24050   4.425   8.876   0.154  0.0477  0.1795  0.3046
 8242W        W24051  15.732   7.007  12.580  0.3105  0.0254 -0.0704
 8243W        W24052  13.075  13.314  12.139  0.0136  0.0854  0.1648
 8244W        W24053  16.866   4.809  11.689  0.0098 -0.1690  0.2571
 8245W        W24054  11.004  17.576  15.626  0.1875  0.1519 -0.0402
 8246W        W24055   5.440   3.423  12.985 -0.0178 -0.2012 -0.0327
 8247W        W24056   0.573   3.417  12.589  0.0495 -0.1391  0.0356
 8248W        W24057   9.087   1.769  13.225  0.1819 -0.2159  0.2570
 8249W        W24058   8.832   5.408  12.642  0.0425 -0.1141  0.2589
 8250W        W24059   2.843   8.541   5.434  0.3359 -0.2079 -0.0181
 8251W        W24060   7.202   8.352   3.091  0.0007 -0.2181 -0.3551
 8252W        W24061   1.491  15.568   1.469  0.0711 -0.1092  0.1472
 8253W        W24062   4.820  16.985  12.079 -0.3127 -0.2738 -0.2233
 8254W        W24063   6.923  13.721   0.346 -0.3393 -0.1114  0.0352
 8255W        W24064  15.145   0.040   3.610  0.2876  0.0476 -0.0043
 8256W        W24065   7.264  15.707  15.581  0.2774 -0.2140  0.0804
 8257W        W24066   0.494  13.606   0.830 -0.0560 -0.1421 -0.1066
 8258W        W24067  10.708  15.399  13.577  0.3932  0.3167  0.2038
 8259W        W24068   4.928   7.069  12.145  0.1469  0.1375 -0.0258
 8260W        W24069  15.576  16.813  15.053 -0.1244  0.0008 -0.1350
 8261W        W24070  12.575   4.594  12.694 -0.1413 -0.0957 -0.2881
 8262W        W24071   3.575  12.559   1.636 -0.0101 -0.0626 -0.1895
 8263W        W24072   9.094   4.743   0.839  0.4365  0.1337 -0.0444
 8264W        W24073  15.159   2.064   1.200  0.1202  0.0879 -0.1747
 8265W        W24074  12.995  12.198  14.056 -0.1195  0.2667  0.1007
 8266W        W24075   0.504  13.450  14.774 -0.1174  0.2630 -0.0615
 8267W        W24076   5.184   2.620  12.435 -0.3062 -0.1099  0.1093
 8268W        W24077   3.253   7.455   6.406 -0.1640  0.2077 -0.2166
 8269W        W24078   5.539  17.303   2.128 -0.2435  0.1168  0.0517
 8270W        W24079   5.589   5.161  12.949 -0.2375 -0.2666 -0.2609
 8271W        W24080   1.796  13.691  14.533 -0.0335 -0.1423 -0.1074
 8272W        W24081   2.995  12.363   0.562  0.0308  0.0403 -0.1275
 8273W        W24082   3.170  12.399  14.976  0.0318  0.3620 -0.0411
 8274W        W24083   1.178   3.599   0.601 -0.0313  0.2983  0.2501
 8275W        W24084  14.045  12.778  15.399 -0.0938  0.1080  0.2043
 8276W        W24085  17.664  10.225  12.796 -0.0495 -0.4796  0.1457
 8277W        W24086  14.924   8.104   0.950 -0.2155  0.0347  0.4847
 8278W        W24087   0.089  14.920  13.158  0.1914 -0.3497  0.0937
 8279W        W24088   3.639   2.206   1.723 -0.0638  0.0659  0.0184
 8280W        W24089   2.886   9.816   1.238 -0.3414 -0.1468 -0.1256
 8281W        W24090   3.669  16.019   0.640  0.0565 -0.0481 -0.2026
 8282W        W24091   9.197   7.512   1.464  0.1614 -0.1843 -0.1770
 8283W        W24092   2.893  12.162   6.065  0.0365 -0.1835 -0.0466
 8284W        W24093   0.890  11.947   0.049 -0.2471  0.1208 -0.0370
 8285W        W24094   7.014   5.746  13.591  0.3348 -0.1692 -0.0096
 8286W        W24095   5.974   4.228  15.444  0.2811  0.2063  0.3032
 8287W        W24096   9.597   5.254   6.044 -0.0688 -0.3334 -0.2832
 8288W        W24097  14.978  15.865  11.003 -0.2238  0.1834 -0.0865
 8289W        W24098   5.579   4.247  12.125  0.1797 -0.0168 -0.1108
 8290W        W24099   1.425  16.394  15.427  0.0909 -0.2782  0.0462
 8291W        W24100   0.185  17.661  16.218  0.0499  0.0425  0.2800
 8292W        W24101   6.649   2.516   4.814  0.1623 -0.2372 -0.0793
 8293W        W24102   6.783   9.699   2.640  0.0442 -0.4336  0.2247
 8294W        W24103   0.504   0.107  12.802 -0.0833 -0.0490 -0.1155
 8295W        W24104  15.768  16.643  13.710 -0.1008  0.1186 -0.2688
 8296W        W24105   2.359   8.489  16.333  0.0111 -0.1260  0.0463
 8297W        W24106   3.903   7.599   3.266 -0.2825  0.2951  0.1816
 8298W        W24107   1.614  10.653   4.752 -0.0196  0.0426  0.0471
 8299W        W24108   1.307   1.806  12.116  0.0854  0.1209  0.1154
 8300W        W24109  10.020  14.252   2.651 -0.2490  0.0545  0.0575
 8301W        W24110   4.292   6.149  13.187  0.0134 -0.0355  0.0280
 8302W        W24111  11.355   0.256   1.967  0.0608  0.1776 -0.1082
 8303W        W24112  10.473   7.398   4.109 -0.1657  0.0446 -0.0593
 8304W        W24113   8.691  12.463   1.286  0.0090 -0.4704  0.1934
 8305W        W24114  13.165  17.057  12.800  0.1169  0.1277 -0.0823
 8306W        W24115   9.037  16.482   3.717  0.0288  0.2210 -0.0727
 8307W        W24116  10.791  11.235  13.481  0.0859 -0.0650 -0.0439
 8308W        W24117  16.099   9.773  13.736  0.0261  0.1219 -0.0986
 8309W        W24118  10.455   2.172  15.337  0.0426 -0.1042 -0.0268
 8310W        W24119  15.968  12.905  10.406 -0.3153  0.3059  0.1105
 8311W        W24120  10.439  14.060  11.656 -0.1237 -0.1138  0.1918
 8312W        W24121   4.104   3.038  16.526  0.3928  0.2201 -0.2468
 8313W        W24122  14.431   9.732  16.403  0.1059 -0.2355  0.0970
 8314W        W24123  12.711   0.518  13.082 -0.1700  0.2039 -0.0123
 8315W        W24124   8.743  16.025  12.837  0.3959 -0.2379 -0.0836
 8316W        W24125  13.054   9.140  15.796 -0.3727  0.1612  0.1849
 8317W        W24126   0.835   9.105   0.300 -0.1055 -0.0806 -0.1368
 8318W        W24127   4.152  10.238   2.298  0.0128 -0.2427 -0.0720
 8319W        W24128   8.985   1.069   3.130  0.2638  0.0625 -0.1471
 8320W        W24129   3.819   1.512  15.286  0.1793 -0.1389 -0.0529
 8321W        W24130   0.056   1.559  14.327  0.1890  0.0767 -0.1574
 8322W        W24131  14.016  10.636  16.274  0.0754  0.2990 -0.0031
 8323W        W24132   9.733  12.407   4.202  0.0490 -0.0307 -0.2374
 8324W        W24133   3.866   1.280  13.721 -0.0436  0.0933  0.2321
 8325W        W24134  11.918  14.390  12.411  0.0401  0.2462 -0.1153
 8326W        W24135  12.321  16.296  16.602  0.5066 -0.2107  0.1114
 8327W        W24136  14.111   7.706  15.376 -0.4845  0.0838 -0.1346
 8328W        W24137   8.165   5.398   0.827 -0.0491  0.0792 -0.1313
 8329W        W24138  12.335  10.339  11.269  0.2630  0.0494 -0.0097
 8330W        W24139   9.449   9.981   3.748 -0.4748 -0.2274  0.0276
 8331W        W24140  15.990  14.250  16.613  0.1135 -0.0126  0.1922
 8332W        W24141   7.345   0.946   2.361 -0.3558 -0.2052  0.2019
 8333W        W24142  13.919   0.031  12.947  0.2696  0.1192  0.1051
 8334W        W24143  11.778   7.923   5.264 -0.1781 -0.0813 -0.1857
 8335W        W24144  13.892   3.730   3.357  0.1072 -0.1525  0.2754
 8336W        W24145   8.342  16.285  14.660 -0.1195 -0.2965 -0.0044
 8337W        W24146  14.272   9.830  12.454 -0.0231  0.0863 -0.3305
 8338W        W24147   3.174  12.474   2.010  0.3184 -0.0141 -0.0702
 8339W        W24148   7.570   0.614  12.864 -0.0358 -0.3345  0.2437
 8340W        W24149   5.348   4.763   0.139 -0.0650 -0.2909  0.4140
 8341W        W24150   0.104  13.628   6.257  0.2549 -0.0776  0.0667
 8342W        W24151   6.853   3.619  12.414 -0.1894 -0.0295  0.3251
 8343W        W24152  13.401   7.396  13.322  0.1000  0.0625  0.0597
 8344W        W24153   4.859   0.564  15.198 -0.1748  0.1811 -0.4333
 8345W        W24154   8.658  11.590  12.738 -0.2347  0.2048 -0.1547
 8346W        W24155  15.422   4.869  14.665 -0.1033 -0.0152 -0.1092
 8347W        W24156  12.647   2.515  12.104  0.0656 -0.1010  0.0779
 8348W        W24157   5.600  13.580  13.867 -0.2026 -0.0150  0.0590
 8349W        W24158  15.868   0.250  16.146  0.0817  0.3310  0.0660
 8350W        W24159   5.472  11.047   3.835 -0.0895  0.1398  0.0821
 8351W        W24160  15.188  15.519  16.524 -0.0377 -0.2189 -0.2051
 8352W        W24161   7.443   8.252  13.809 -0.0749 -0.1522 -0.1673
 8353W        W24162   8.117   8.967  15.917 -0.0116  0.3216  0.1001
 8354W        W24163  14.562  11.255   0.559  0.0831  0.0648 -0.0285
 8355W        W24164   7.382   1.971   1.514  0.0858 -0.1118  0.1101
 8356W        W24165  16.253  16.808  14.547  0.1397 -0.2840  0.0915
 8357W        W24166   5.751   2.408   1.859  0.4059  0.0646 -0.0018
 8358W        W24167   6.133  13.364   1.324  0.1464 -0.1225 -0.0388
 8359W        W24168  10.130  15.874  15.682  0.2356  0.0050 -0.1388
 8360W        W24169   0.235  14.114   1.028 -0.0828  0.0901  0.1179
 8361W        W24170   9.066  17.447   3.868 -0.2160 -0.1960  0.1319
 8362W        W24171   9.344   2.041  11.319  0.2613  0.0221  0.2883
 8363W        W24172  15.670  16.960   5.387  0.0445  0.0124  0.1496
 8364W        W24173   6.269   1.822   3.772 -0.3843 -0.0048 -0.2347
 8365W        W24174   6.642   5.803   4.286 -0.3917 -0.0350  0.0600
 8366W        W24175  10.849  12.836  14.043 -0.1173  0.3419  0.0643
 8367W        W24176   4.745   2.898   2.893 -0.0301 -0.1665  0.0570
 8368W        W24177   7.600   6.967  12.161  0.1482 -0.1586  0.0051
 8369W        W24178  16.622   6.198  12.921 -0.1625  0.0569 -0.0617
 8370W        W24179   0.883   5.235   0.389 -0.0971  0.1280 -0.1985
 8371W        W24180   2.064   5.003   3.770 -0.1976 -0.1051 -0.0427
 8372W        W24181  17.227   2.588  13.108  0.0564  0.1537 -0.3580
 8373W        W24182   8.164  11.497   2.050 -0.1726  0.1479  0.2567
 8374W        W24183   3.068   0.877  13.018  0.0326 -0.0044  0.2785
 8375W        W24184  11.989  17.148   1.760 -0.0619 -0.0393  0.1399
 8376W        W24185  14.798   9.891  15.452  0.0457 -0.1448 -0.1665
 8377W        W24186   3.071  15.613  15.423  0.3341 -0.1162  0.2495
 8378W        W24187   8.993   3.126   1.763  0.3174 -0.1379  0.0435
 8379W        W24188  11.228  16.504  12.280 -0.0808  0.0256 -0.0715
 8380W        W24189   9.648   5.818  14.577 -0.2387 -0.1614 -0.2578
 8381W        W24190  13.831   6.990  15.857  0.0155  0.0751 -0.2362
 8382W        W24191   0.075  16.786   2.834  0.0438  0.2084 -0.1700
 8383W        W24192  13.400  11.342  14.457 -0.0669 -0.0550  0.0043
 8384W        W24193   7.830   5.412  11.055 -0.1395 -0.0268 -0.0019
 8385W        W24194   1.641   6.888   5.344 -0.1493 -0.0684 -0.0415
 8386W        W24195   6.080  10.767  14.646  0.1267  0.1396 -0.0024
 8387W        W24196  14.924  15.415  15.775  0.0092 -0.0447  0.0218
 8388W        W24197   0.354   4.578   2.855  0.0440 -0.1901 -0.1653
 8389W        W24198   5.429   4.410  15.686  0.1425  0.0680 -0.0620
 8390W        W24199   3.559   0.332   4.379 -0.2171  0.0471 -0.3754
 8391W        W24200   8.312   1.884  14.569  0.0728  0.0698 -0.0951
 8392W        W24201  11.604   8.527   1.857  0.2428  0.0015  0.1932
 8393W        W24202   2.294  16.180  14.421 -0.2586 -0.2640  0.0749
 8394W        W24203   2.753   9.229  16.932  0.2451 -0.1791 -0.1938
 8395W        W24204   8.165  11.394   4.954  0.1012 -0.0086 -0.0273
 8396W        W24205  11.083   0.438   0.333 -0.0222 -0.4399  0.2938
 8397W        W24206  15.618  10.836   1.941 -0.1109  0.2276 -0.1434
 8398W        W24207  16.534  16.760  11.483 -0.1160  0.0561 -0.3102
 8399W        W24208   2.616   3.233  12.719 -0.1302  0.1567  0.1676
 8400W        W24209  15.859   6.711   0.686  0.3770 -0.1178  0.1696
 8401W        W24210   5.063  13.608   2.205 -0.2091  0.2511 -0.4583
 8402W        W24211  11.701  12.713  14.623  0.2586 -0.1058 -0.0763
 8403W        W24212   3.412  13.274   5.744 -0.0159  0.0618 -0.0728
 8404W        W24213   0.427  15.645   3.610  0.2263  0.1440 -0.0632
 8405W        W24214  12.555  13.175   2.621  0.0765 -0.1753  0.2939
 8406W        W24215  12.947  16.525   0.387  0.2481  0.2200  0.2105
 8407W        W24216   3.426  12.444  13.168  0.0060 -0.1222  0.1657
 8408W        W24217   6.902  13.885  11.229  0.1641  0.2518 -0.3194
 8409W        W24218   5.361   5.433  14.737 -0.1163 -0.0981  0.0186
 8410W        W24219  10.099  16.974  16.422  0.0377 -0.0427 -0.2996
 8411W        W24220  12.397  14.370  10.370 -0.3234  0.2698  0.0118
 8412W        W24221   7.702   3.456  11.883  0.0784 -0.1860 -0.3138
 8413W        W24222  14.656   9.950  15.969 -0.1804 -0.3797  0.4469
 8414W        W24223   2.453  11.163  15.897 -0.3546 -0.2176  0.0749
 8415W        W24224  14.834  16.188   5.578 -0.1954  0.1496  0.1520
 8416W        W24225   1.864   4.582   5.539  0.0601 -0.2148  0.0736
 8417W        W24226   6.366   3.604  16.482  0.2371 -0.0513  0.0267
 8418W        W24227   1.467  12.085  12.270 -0.1660 -0.1411 -0.3299
 8419W        W24228   2.814  13.303   2.995  0.2233 -0.1180  0.2685
 8420W        W24229   0.235   2.842   3.646  0.1560  0.1230  0.4112
 8421W        W24230  11.957   6.445  15.240 -0.2215  0.0152  0.0633
 8422W        W24231  10.635  16.676   3.430  0.3254  0.1594 -0.1999
 8423W        W24232  12.956   7.480  15.077  0.1551 -0.1536 -0.1761
 8424W        W24233   5.137  15.445  12.796  0.0971 -0.2490  0.0434
 8425W        W24234  16.603  12.320  15.336 -0.0495  0.1646 -0.0139
 8426W        W24235  12.949   3.683   0.644 -0.3573  0.0947  0.1630
 8427W        W24236   2.191   0.183  16.076  0.3674 -0.3908  0.0628
 8428W        W24237   7.430  16.624   3.254 -0.2709  0.0009 -0.0469
 8429W        W24238   0.534  17.478   1.687 -0.1387  0.2382  0.1331
 8430W        W24239  10.338   9.093   4.439  0.3616 -0.0181  0.1980
 8431W        W24240   7.235   0.947   0.150  0.3381  0.1035  0.4950
 8432W        W24241   3.660   3.801   5.587  0.0015 -0.2781 -0.1148
 8433W        W24242  13.334  11.354  11.213  0.0684 -0.0802  0.2561
 8434W        W24243   5.157   3.042  12.803 -0.0511  0.0792 -0.0229
 8435W        W24244  13.207   4.902   6.337  0.0541  0.2301 -0.1308
 8436W        W24245   5.270   1.529   0.709 -0.0078  0.1782 -0.0302
 8437W        W24246   6.778  13.398  11.184 -0.2443 -0.3289 -0.1299
 8438W        W24247  12.197   6.745   5.674  0.1379 -0.0248 -0.3107
 8439W        W24248   4.314  16.966  12.157  0.0088  0.1725  0.0430
 8440W        W24249   6.600   2.918   2.869 -0.0826  0.1564 -0.1642
 8441W        W24250   0.654   9.888  11.824 -0.3111 -0.1938  0.0332
 8442W        W24251  11.516   1.502  14.583  0.3285 -0.0577  0.0875
 8443W        W24252   0.342   0.754  15.566  0.2348 -0.2102 -0.5133
 8444W        W24253  13.713   3.988   5.215 -0.0021 -0.1893  0.1709
 8445W        W24254   1.602  12.906  14.051  0.0217 -0.1529 -0.2755
 8446W        W24255   4.359   0.271   2.101 -0.2880 -0.0175 -0.0414
 8447W        W24256   7.350   6.439   1.147  0.0317 -0.1239  0.4326
 8448W        W24257   2.080   2.826  15.188 -0.1503  0.0781 -0.1087
 8449W        W24258   1.956   7.891  13.381  0.1348 -0.0941 -0.1814
 8450W        W24259  10.553   0.563  15.271 -0.1229  0.0524  0.0654
 8451W        W24260  12.516  13.163  13.011  0.0770  0.1691 -0.0515
 8452W        W24261   7.666   6.165   0.755  0.0187 -0.3263  0.1072
 8453W        W24262  14.893   2.296  12.980  0.1040  0.1233  0.1270
 8454W        W24263   4.481   7.514   2.515 -0.0752  0.0562  0.1725
 8455W        W24264  10.464  16.131  13.936 -0.3140 -0.0613  0.4318
 8456W        W24265   8.201   5.688  15.067  0.1623 -0.0497 -0.1121
 8457W        W24266  10.010   1.918   0.071  0.2788 -0.1843  0.0203
 8458W        W24267  13.416   2.632   3.940  0.1341  0.1789 -0.1635
 8459W        W24268   6.066   9.273  13.675  0.0239  0.3584  0.3443
 8460W        W24269   3.956  12.046  14.397  0.1988 -0.0017  0.0661
 8461W        W24270   1.990  12.426  16.101 -0.1846  0.4306 -0.4754
 8462W        W24271  10.781  10.804  11.426  0.0152 -0.0640 -0.0493
 8463W        W24272   5.069  15.946  11.927  0.1921 -0.0470 -0.0031
 8464W        W24273   8.698   7.111   3.860  0.2303 -0.2527 -0.6028
 8465W        W24274   3.027   5.543  15.868  0.0852 -0.0597 -0.1045
 8466W        W24275   6.652  10.130   1.955  0.1001  0.1744 -0.3944
 8467W        W24276  10.974  15.967  16.418  0.1690 -0.1088  0.0497
 8468W        W24277  14.560   6.053   5.974 -0.2689  0.0930 -0.1044
 8469W        W24278   8.025   4.321  13.678  0.0274  0.0054  0.1679
 8470W        W24279   2.501   4.479   0.843 -0.0647 -0.1548  0.0267
 8471W        W24280   7.470  14.461  12.779  0.0017 -0.0428 -0.0660
 8472W        W24281   2.579   1.728   0.624  0.0442 -0.2579  0.3291
 8473W        W24282   0.782  15.005   0.702 -0.1006 -0.1275  0.0040
 8474W        W24283  13.790   4.071   1.964 -0.0367  0.2478 -0.4984
 8475W        W24284   7.415  12.681   5.257  0.2761  0.0800  0.2016
 8476W        W24285   5.936   1.612   6.025 -0.0113  0.0173 -0.0800
 8477W        W24286  10.294   7.947  13.006  0.1199 -0.1001 -0.2680
 8478W        W24287   3.321  15.842  11.426  0.0319  0.2522  0.0056
 8479W        W24288  15.637   2.342  12.312 -0.0738 -0.1249 -0.0666
 8480W        W24289   8.759  14.400  15.181  0.2426  0.0649  0.2279
 8481W        W24290  15.341  13.832   5.693  0.3143  0.1045  0.1405
 8482W        W24291  11.854   8.306   5.004 -0.6045  0.0295  0.0860
 8483W        W24292  17.588   6.425  13.336 -0.1463  0.1215 -0.2057
 8484W        W24293   9.269   3.126   4.594 -0.1715 -0.2080  0.1793
 8485W        W24294   0.217  11.900   5.304  0.0836  0.1980  0.2145
 8486W        W24295  14.190  16.962  14.172  0.1895  0.1703  0.2079
 8487W        W24296   2.453  11.140  11.967  0.1991 -0.1682  0.2528
 8488W        W24297  13.186  12.559   3.524 -0.3245 -0.0412  0.1499
 8489W        W24298   7.180   5.804  13.118 -0.0357 -0.1770 -0.1092
 8490W        W24299   4.835   0.081   3.012 -0.1657  0.4519 -0.2450
 8491W        W24300  15.409  11.526  14.428  0.1854  0.1098 -0.1157
 8492W        W24301  13.907   5.721   5.575 -0.1268  0.2603  0.0153
 8493W        W24302   9.378  16.231   2.929  0.3313 -0.3147  0.0710
 8494W        W24303   2.900   0.734   4.025  0.0683  0.0298 -0.0447
 8495W        W24304   3.057  10.010  11.716 -0.1087  0.0800  0.1699
 8496W        W24305   7.386  10.746  13.276  0.0283 -0.0830  0.2132
 8497W        W24306   3.934  11.829   2.935 -0.0606  0.0399 -0.0297
 8498W        W24307   2.746   5.647  15.365  0.1097  0.0045 -0.2206
 8499W        W24308   6.148   0.379  12.864  0.3944 -0.3628 -0.1739
 8500W        W24309   0.334   1.168  14.502 -0.0800 -0.0185  0.0613
 8501W        W24310  13.649   4.148   4.642  0.1645  0.1989 -0.0372
 8502W        W24311  15.433  15.643  16.987 -0.0452  0.1958  0.3227
 8503W        W24312   3.948  14.646  16.395  0.1912 -0.2184  0.1465
 8504W        W24313   5.706  12.451   2.850  0.3721  0.3056 -0.0491
 8505W        W24314  13.016  16.018  12.466 -0.1238 -0.1029 -0.1389
 8506W        W24315   4.843  11.376   1.228  0.1930  0.1646  0.0980
 8507W        W24316   9.984   8.602  12.072 -0.0189  0.0448 -0.3163
 8508W        W24317  13.324  10.678   5.933 -0.1349  0.0891 -0.2148
 8509W        W24318   5.605   0.601   1.999  0.0746 -0.0252  0.0854
 8510W        W24319  15.451   1.936   3.866 -0.0482  0.0933 -0.5708
 8511W        W24320  11.772   3.289   3.510 -0.1285  0.0687  0.0345
 8512W        W24321   5.981  13.838  12.528 -0.1131  0.1872 -0.0578
 8513W        W24322   8.732   1.830   2.788  0.0428  0.0905 -0.2071
 8514W        W24323   1.854   3.907   2.097  0.3603 -0.0928 -0.0213
 8515W        W24324  13.048  15.378   1.091 -0.0074 -0.0634  0.0290
 8516W        W24325   9.935  10.306  11.970  0.4483 -0.1856 -0.0235
 8517W        W24326  12.251  13.470  16.437  0.0812 -0.0716  0.1647
 8518W        W24327  16.863   2.188  16.726  0.1920  0.2650  0.1197
 8519W        W24328  16.348   2.122   5.456 -0.0213 -0.0009 -0.1981
 8520W        W24329  13.507  13.110   5.487 -0.0236 -0.1368  0.1453
 8521W        W24330   1.743   0.848   4.660 -0.0292 -0.0309 -0.1821
 8522W        W24331  11.394   2.351  15.836  0.1396  0.0601 -0.0598
 8523W        W24332   1.169   5.147   5.464 -0.1066  0.2128 -0.1986
 8524W        W24333  11.568   5.031   5.610 -0.0445  0.0288  0.6208
 8525W        W24334   1.615   1.493   1.087 -0.0211  0.0930 -0.0357
 8526W        W24335   4.417  10.118   0.183  0.0668 -0.0555 -0.0976
 8527W        W24336  13.683  12.363   3.459 -0.1409 -0.0634 -0.0997
 8528W        W24337  16.002  11.287  13.706 -0.0641  0.0406 -0.0720
 8529W        W24338  12.442   0.974  15.198 -0.2342  0.0370 -0.0955
 8530W        W24339   5.160  13.583   1.655 -0.0761 -0.0938 -0.1348
 8531W        W24340  15.178  15.816   5.017  0.0236  0.3608 -0.0323
 8532W        W24341  15.421   2.726  13.724  0.0029 -0.0128 -0.2785
 8533W        W24342   4.240   2.465  15.407 -0.1353 -0.1942 -0.3541
 8534W        W24343  17.112   7.544  16.266  0.0367  0.0225  0.0055
 8535W        W24344   9.517   9.130  13.465 -0.0777  0.1465  0.0437
 8536W        W24345  15.342  11.508   5.546 -0.2304  0.1055 -0.0155
 8537W        W24346  11.825   7.442  12.650 -0.0058  0.1144 -0.0721
 8538W        W24347   3.581   1.545   0.203  0.1277 -0.1456  0.0852
 8539W        W24348   6.575   3.699   3.640  0.1027 -0.2112  0.2040
 8540W        W24349  15.624   9.459   0.921 -0.0914 -0.1101 -0.1759
 8541W        W24350  16.503   2.159   3.555  0.1051  0.1984 -0.0322
 8542W        W24351  10.336   4.936   3.026  0.2154 -0.0897 -0.0599
 8543W        W24352  12.294   7.191   1.720  0.2321  0.3526  0.0267
 8544W        W24353   3.974   1.040   3.549 -0.0302 -0.0956 -0.2557
 8545W        W24354   9.016   3.106   4.029  0.1407 -0.1633  0.0219
 8546W        W24355  15.430   5.244  16.071 -0.0409  0.0375 -0.3316
 8547W        W24356   8.594  15.064  11.137 -0.0612  0.4278  0.2431
 8548W        W24357  11.428  11.209   3.120 -0.0657 -0.0363 -0.0141
 8549W        W24358   2.412  11.242  16.873 -0.0611 -0.1810 -0.0551
 8550W        W24359   8.345  11.328  14.356  0.1789  0.0817  0.1303
 8551W        W24360  16.849   5.434   3.619  0.1209  0.1409 -0.2544
 8552W        W24361   6.395   9.989   2.524  0.2596  0.1720  0.1543
 8553W        W24362   5.271   0.152  16.426  0.0488 -0.0607 -0.0264
 8554W        W24363  11.687  12.127   4.702  0.1799  0.0757  0.0714
 8555W        W24364   9.894   3.331   2.549  0.4025  0.0302  0.0698
 8556W        W24365   9.733  10.952   2.456 -0.5953 -0.1027  0.0358
 8557W        W24366   4.291   2.730  15.970  0.3401 -0.1609 -0.1480
 8558W        W24367   1.038  12.759  15.823  0.1227  0.1133  0.2387
 8559W        W24368  12.899   0.194   0.881  0.0029 -0.1515 -0.0097
 8560W        W24369  10.580   7.576  12.192 -0.2427  0.1099 -0.2525
 8561W        W24370  14.588   7.037  15.225  0.4277 -0.2128 -0.4544
 8562W        W24371  14.261   0.792   3.446 -0.1235  0.1155  0.0021
 8563W        W24372   6.872   3.032   2.430  0.1796  0.1362 -0.3928
 8564W        W24373  10.973   7.464   3.803 -0.5444 -0.0457  0.0854
 8565W        W24374  12.848   2.952   1.841 -0.2961  0.2836 -0.0453
 8566W        W24375  13.898   0.157   1.526  0.4577 -0.4157 -0.0637
 8567W        W24376  11.277  14.977   9.981 -0.2808  0.2835 -0.1088
 8568W        W24377  15.490  17.447   5.480 -0.0227 -0.2236  0.1580
 8569W        W24378   4.174  12.172   3.190  0.2940  0.1067  0.1655
 8570W        W24379  14.070   9.196  16.754  0.0488  0.3223  0.1124
 8571W        W24380   6.732   4.066  14.897  0.1509 -0.0697  0.0480
 8572W        W24381  13.673  17.619   3.964 -0.3824  0.2017 -0.1244
 8573W        W24382  14.765  15.028  10.988  0.0564 -0.1885  0.1304
 8574W        W24383  16.639  16.063   0.645  0.3778  0.2527  0.1029
 8575W        W24384  15.650   1.581   4.211 -0.3312 -0.2062 -0.0211
 8576W        W24385   4.872  16.365   3.710  0.1365  0.0074 -0.0594
 8577W        W24386  13.133   6.407   2.474 -0.2497  0.1380 -0.2927
 8578W        W24387   9.911  10.830   3.069 -0.3376  0.2779 -0.1588
 8579W        W24388  10.788   7.049  13.168  0.0227  0.1055  0.1527
 8580W        W24389   6.430   1.091   1.466  0.0977 -0.1910  0.0294
 8581W        W24390  14.132  15.431  14.382  0.0489  0.2149  0.1746
 8582W        W24391   3.002   2.743   5.653 -0.3392 -0.1064 -0.0966
 8583W        W24392  16.339  12.221   5.004 -0.1813 -0.1340 -0.0971
 8584W        W24393  15.346   0.333  15.236  0.0451  0.1689 -0.1954
 8585W        W24394   1.250  10.486   0.196 -0.0207 -0.3367  0.0665
 8586W        W24395   5.396   7.426   2.755  0.2173  0.1128  0.0450
 8587W        W24396  16.558   0.881  14.098  0.0265 -0.1881 -0.1209
 8588W        W24397  10.708   9.705  15.482 -0.0662  0.1310 -0.1693
 8589W        W24398  14.419   4.448   5.102 -0.0486  0.0994 -0.3870
 8590W        W24399  10.651  16.478  14.266 -0.1405 -0.0678  0.1885
 8591W        W24400  10.594  16.136  14.629  0.1326  0.0704 -0.0103
 8592W        W24401   3.598  12.847  11.903 -0.0908  0.0495 -0.0836
 8593W        W24402  15.674   7.144  13.452  0.0754 -0.2598 -0.0560
 8594W        W24403   2.181  14.636  15.142 -0.1425 -0.1827 -0.0059
 8595W        W24404  17.176   0.089  16.273 -0.0269 -0.0265  0.1688
 8596W        W24405   9.051   1.265  11.234 -0.1533  0.2560  0.2070
 8597W        W24406   8.688   5.727  14.618  0.0734 -0.2388 -0.0787
 8598W        W24407  14.389  12.260  13.608 -0.0577 -0.2009 -0.2328
 8599W        W24408   1.952  14.352  12.885  0.1667  0.1671 -0.2894
 8600W        W24409  11.704  14.794  15.689  0.1093 -0.0158  0.0382
 8601W        W24410  11.924   6.331   1.243  0.2152  0.3068 -0.0752
 8602W        W24411   0.734  17.282  12.395  0.0292  0.1098  0.0256
 8603W        W24412   5.302   4.028   1.196  0.2256  0.1888  0.1071
 8604W        W24413   6.658   1.510   2.540  0.1879 -0.0431 -0.0139
 8605W        W24414   6.425  17.343  12.108 -0.0888  0.2629 -0.0727
 8606W        W24415   2.068   1.338  15.253 -0.1715  0.1864 -0.1009
 8607W        W24416  16.586  17.015  13.184 -0.1220  0.0921  0.0288
 8608W        W24417  16.657  14.048   1.679 -0.1703  0.1892  0.0914
 8609W        W24418  10.588   5.290   1.745 -0.2205  0.2552  0.0247
 8610W        W24419   8.394  10.895   0.037  0.1351  0.0894 -0.4138
 8611W        W24420  10.023   1.472  15.756 -0.0229  0.1581  0.1169
 8612W        W24421   1.002  10.557   3.452 -0.1166  0.0002 -0.1107
 8613W        W24422   1.606   2.835  14.303 -0.2142  0.3710 -0.0417
 8614W        W24423  13.786  11.328  15.399 -0.2124 -0.2491 -0.1032
 8615W        W24424   3.881   0.197  16.510  0.3153  0.0350 -0.1591
 8616W        W24425  17.676   1.953   1.613 -0.0625  0.2732  0.1083
 8617W        W24426   1.201  10.135   4.321  0.2619 -0.0001  0.1499
 8618W        W24427   2.391   4.208   3.470  0.0443 -0.0139  0.3759
 8619W        W24428   5.856  12.450  16.563 -0.0575 -0.0288 -0.0840
 8620W        W24429   3.849  12.340  13.524  0.1223 -0.1232  0.0951
 8621W        W24430   5.855   2.589  14.813 -0.0565 -0.0139  0.0992
 8622W        W24431   7.257   3.667   3.109 -0.1286  0.0322  0.0288
 8623W        W24432   7.461  15.713  16.575  0.0573  0.3667  0.1075
 8624W        W24433  12.708   7.074  14.619 -0.0647 -0.1381 -0.1427
 8625W        W24434   1.014  15.492  15.238 -0.3916 -0.0156 -0.3685
 8626W        W24435   3.408   5.253  12.368 -0.1742 -0.1379  0.1257
 8627W        W24436   6.122  15.944  16.330  0.1945  0.1939 -0.1631
 8628W        W24437  10.709   8.680  14.598 -0.0702 -0.1163 -0.0603
 8629W        W24438  14.939  16.706   4.887 -0.3144 -0.1894 -0.2239
 8630W        W24439  17.548   7.509   1.076 -0.0230  0.1097 -0.3011
 8631W        W24440   7.765  10.250   0.231  0.1116  0.1251 -0.1685
 8632W        W24441   5.335  17.160   5.395 -0.0197  0.0757  0.1424
 8633W        W24442  10.531  15.460  16.893 -0.1884 -0.1355 -0.2284
 8634W        W24443   8.428  10.149   1.401  0.0251 -0.1189  0.0472
 8635W        W24444   8.320  14.613   0.860 -0.0777  0.0260 -0.1461
 8636W        W24445   7.258   2.828   5.097 -0.0029  0.1819  0.0949
 8637W        W24446   7.738  12.513   3.172  0.1035 -0.2169  0.1242
 8638W        W24447  17.317  17.265   1.324 -0.0439  0.3017 -0.2599
 8639W        W24448   2.285   0.471   5.198 -0.0066 -0.1426 -0.0204
 8640W        W24449   9.896   1.922  15.963  0.4193 -0.0202 -0.0589
 8641W        W24450   1.254   5.907  13.549  0.0247 -0.2651  0.1380
 8642W        W24451   5.352   2.978   5.306  0.5278  0.0696 -0.2961
 8643W        W24452  14.126   7.271   2.984 -0.0888  0.1110 -0.1590
 8644W        W24453   0.294  12.264  14.566  0.0867  0.1259 -0.0440
 8645W        W24454  12.833  16.179   3.082  0.0487 -0.2096 -0.2195
 8646W        W24455  14.581   6.673   1.212 -0.2604 -0.0632  0.1648
 8647W        W24456  16.114  10.634  15.196 -0.1707  0.0941  0.2485
 8648W        W24457  14.932   0.428  11.926  0.1479  0.2496 -0.2529
 8649W        W24458   1.513   8.537   3.055  0.2436 -0.1374  0.1699
 8650W        W24459   6.068   7.735   2.549 -0.0113 -0.1359  0.2876
 8651W        W24460  17.099   3.466   5.705 -0.3006 -0.2443  0.0622
 8652W        W24461   7.025   1.356   5.187  0.3303  0.0657 -0.1173
 8653W        W24462  14.029   9.302   4.650  0.0660 -0.0997  0.0719
 8654W        W24463   4.948   3.904   2.586  0.0719 -0.0928  0.3561
 8655W        W24464  16.378  14.064   1.012  0.1565  0.0195 -0.1449
 8656W        W24465   3.276  11.358   3.433 -0.0067  0.2216  0.3266
 8657W        W24466   0.571  16.136   1.104 -0.0305 -0.0188 -0.3499
 8658W        W24467  13.279  11.501  12.737  0.2797 -0.1649 -0.0533
 8659W        W24468   3.488  12.015  12.840 -0.0991  0.1818  0.1206
 8660W        W24469   2.389   6.193   4.948  0.2708  0.3036 -0.3358
 8661W        W24470   6.156   4.984   6.501 -0.2223  0.2353 -0.2926
 8662W        W24471  10.941  10.737   1.680 -0.1207  0.1912  0.1616
 8663W        W24472   7.487   0.430  15.369  0.0447  0.2843  0.0844
 8664W        W24473   2.001  16.668   3.070 -0.0833 -0.1081  0.1744
 8665W        W24474   1.105   9.413  13.775  0.0249 -0.0361 -0.0720
 8666W        W24475   3.651   3.743  10.806  0.0559 -0.0915 -0.2556
 8667W        W24476   6.773   5.771  15.054  0.0029  0.0368 -0.2158
 8668W        W24477   9.664   1.314  13.639  0.1672  0.1888  0.1184
 8669W        W24478  14.026   7.129  12.796  0.0318 -0.0893  0.0984
 8670W        W24479  17.511   3.480   4.969  0.1109 -0.1259 -0.0505
 8671W        W24480   9.730  14.948   5.699 -0.3782 -0.3158  0.3295
 8672W        W24481  17.339   3.206   5.353  0.0191 -0.0419  0.0900
 8673W        W24482   6.472   2.010   3.388  0.2594  0.0181 -0.1168
 8674W        W24483   7.813   7.261   2.046  0.1932  0.1218  0.0399
 8675W        W24484  14.925   0.898   4.159  0.0497 -0.0307 -0.2088
 8676W        W24485   6.381   5.964  15.264 -0.1014  0.0513  0.2217
 8677W        W24486  12.577   9.380  15.603  0.2964 -0.2227 -0.0257
 8678W        W24487  11.349  13.933   0.526 -0.0253 -0.3775  0.1076
 8679W        W24488   5.555  13.123  11.848  0.0177  0.6207  0.0356
 8680W        W24489   3.625  16.448   0.391 -0.0335 -0.0283  0.2567
 8681W        W24490   6.954   7.415  16.536 -0.0529  0.1752 -0.0998
 8682W        W24491  13.245   4.403  12.332  0.0049  0.3722  0.6274
 8683W        W24492   4.314  16.239   2.262  0.0666  0.2918 -0.6320
 8684W        W24493  17.650  17.392  15.626  0.2438 -0.1558  0.1206
 8685W        W24494  13.422   0.548  14.699  0.0384 -0.2959  0.0044
 8686W        W24495  17.463   5.197  16.704  0.1939 -0.0065 -0.0287
 8687W        W24496  16.800  13.834   3.419  0.1479  0.0008  0.0292
 8688W        W24497   9.988   6.125  16.405 -0.0628  0.3239  0.0350
 8689W        W24498  15.797  14.711   2.225 -0.0704  0.1445 -0.0994
 8690W        W24499  14.878   6.653   2.263 -0.0869 -0.1385  0.1061
 8691W        W24500  11.913   3.972   4.262  0.1468  0.1739  0.0031
 8692W        W24501   6.749   7.422   3.407 -0.2622  0.2873  0.0136
 8693W        W24502   8.951  11.165  11.720 -0.3406 -0.0841 -0.1406
 8694W        W24503   4.027  11.534  14.408  0.4720  0.2166 -0.0572
 8695W        W24504  10.373  13.443  14.470 -0.0861  0.1518  0.1472
 8696W        W24505   9.530  16.411  12.850  0.2723  0.0678  0.3939
 8697W        W24506  16.067   1.889   4.233  0.0734 -0.2694 -0.1521
 8698W        W24507   9.151   6.194  13.971  0.1545 -0.1067 -0.1856
 8699W        W24508  17.728   3.192   1.441  0.0512 -0.0972  0.0056
 8700W        W24509  11.725  13.778  12.728 -0.2180  0.0640  0.0335
 8701W        W24510   3.009  10.523   3.203 -0.0958 -0.1021 -0.1306
 8702W        W24511  14.154   7.122  12.291  0.1351 -0.0234 -0.0893
 8703W        W24512  16.878   0.564  10.971  0.1770 -0.1714  0.4622
 8704W        W24513   1.420   5.554   5.479 -0.0391  0.1150  0.3251
 8705W        W24514   2.673  10.739   2.807  0.2694  0.4047 -0.1493
 8706W        W24515   8.263  12.275  14.775 -0.0579  0.1868  0.2588
 8707W        W24516  16.562  16.746  13.624 -0.0099 -0.0398  0.1293
 8708W        W24517  10.448   9.704   2.739 -0.0793  0.0556 -0.1046
 8709W        W24518   3.696  16.872   1.993 -0.2686 -0.1158  0.0508
 8710W        W24519   0.526  14.275  15.978 -0.2823 -0.2335 -0.2010
 8711W        W24520   5.189   9.416  13.109  0.0797 -0.0133  0.1295
 8712W        W24521   4.027  15.003   0.276  0.0392 -0.0864 -0.0773
 8713W        W24522  16.967   5.513  16.830 -0.0822 -0.0581 -0.0833
 8714W        W24523  11.702   1.474   0.089 -0.1006  0.1514  0.1559
 8715W        W24524  16.239   9.854   0.055  0.1527 -0.2725  0.2055
 8716W        W24525  16.834  11.492   2.105  0.4691 -0.1798 -0.1888
 8717W        W24526   8.988  16.498   4.235  0.0465  0.4410 -0.0214
 8718W        W24527  15.232  10.434   3.783 -0.1486 -0.2726  0.1033
 8719W        W24528   9.732   7.419   1.166 -0.1204  0.1770  0.1197
 8720W        W24529   9.205   5.875   4.782  0.2529 -0.4189  0.1827
 8721W        W24530   0.478   9.336   3.856  0.2491 -0.0499  0.2066
 8722W        W24531   1.666   0.378  15.760  0.1859 -0.2041  0.1117
 8723W        W24532  14.760  10.662   4.148  0.0692  0.1813  0.1340
 8724W        W24533  13.668   5.105  16.341 -0.0091  0.1185  0.0735
 8725W        W24534  17.049  13.659  14.353 -0.1215  0.1348 -0.1131
 8726W        W24535  12.740   1.214   5.117  0.1221 -0.0928 -0.0078
 8727W        W24536   2.140   5.349   1.000 -0.0345 -0.0305 -0.1125
 8728W        W24537  16.825   1.415  13.079 -0.0260 -0.0148  0.0419
 8729W        W24538   1.021   9.542   5.111 -0.0597  0.3928 -0.2098
 8730W        W24539  16.113   6.538   3.419  0.0131  0.0433 -0.0626
 8731W        W24540   8.398  10.934   4.820 -0.0095 -0.2844 -0.0007
 8732W        W24541   7.631   9.852  12.769  0.1979 -0.1114 -0.0984
 8733W        W24542  15.901   8.038  16.290 -0.2805  0.0575  0.0373
 8734W        W24543  17.502  10.858   0.820 -0.0920 -0.4762 -0.0702
 8735W        W24544   5.724  13.531  12.219 -0.0061 -0.1003 -0.0748
 8736W        W24545  12.512   3.488   1.844 -0.3526  0.0718 -0.1015
 8737W        W24546  16.169  16.784   5.508 -0.1857  0.2408  0.2054
 8738W        W24547   9.291   0.464  11.591 -0.0475  0.2736 -0.1320
 8739W        W24548   9.858   1.933   1.737 -0.0155 -0.1743  0.3342
 8740W        W24549  11.587  13.556   0.330  0.1106  0.2227  0.1895
 8741W        W24550   5.046   5.506   0.710  0.0296  0.3430 -0.1324
 8742W        W24551  13.426   3.572  16.146 -0.1347 -0.1757  0.3667
 8743W        W24552  16.312  13.109   1.180  0.0914 -0.0403  0.3965
 8744W        W24553   7.250  15.251  16.570  0.0115 -0.1071 -0.4025
 8745W        W24554   6.987   7.477  16.012  0.3948 -0.1255  0.2231
 8746W        W24555   4.098  12.812  13.842  0.2654 -0.1566  0.1038
 8747W        W24556   5.749   5.894   4.393  0.1988  0.0939  0.2052
 8748W        W24557  17.381  10.627  10.877  0.0739 -0.1892 -0.1155
 8749W        W24558  14.157  16.673   0.912  0.2884  0.1365 -0.0026
 8750W        W24559   7.601  11.616   6.375 -0.1512 -0.1048 -0.3454
 8751W        W24560   8.343  10.586   0.455 -0.0141  0.0663  0.0863
 8752W        W24561   0.953  13.037  13.950 -0.0210  0.1719  0.5775
 8753W        W24562   3.469   1.927   1.268 -0.0344  0.0127 -0.1132
 8754W        W24563  14.006   4.634   5.920 -0.3117 -0.0297 -0.1378
 8755W        W24564  13.276   8.235  13.806 -0.0194 -0.0180  0.3717
 8756W        W24565   3.171  14.822   2.013 -0.1500  0.2475 -0.0587
 8757W        W24566  16.172   6.856  12.825 -0.3261  0.0187  0.1776
 8758W        W24567   8.375   2.035   4.404  0.0345  0.1613 -0.3229
 8759W        W24568   5.689   6.789  12.260 -0.1054 -0.3854 -0.2653
 8760W        W24569   9.148   6.620  14.801  0.0967 -0.0923 -0.1349
 8761W        W24570  13.028   3.121   1.340 -0.0678  0.1763 -0.0836
 8762W        W24571  17.000  16.188  12.452 -0.0700  0.0976 -0.0324
 8763W        W24572  10.668   3.425  16.258  0.0238 -0.1078 -0.1887
 8764W        W24573   7.412   5.990   1.681 -0.1490  0.2316  0.1342
 8765W        W24574   5.348  13.352   5.291  0.2390  0.2347  0.1540
 8766W        W24575   8.380   0.514  16.892  0.0638  0.0168 -0.1559
 8767W        W24576  15.743   7.184   0.629 -0.3535 -0.0660 -0.0411
 8768W        W24577  16.518  14.007  12.872  0.2064 -0.2010 -0.3269
 8769W        W24578  17.341   1.978   2.869  0.4923 -0.0559 -0.0738
 8770W        W24579   8.597  11.352   4.665 -0.2698 -0.0169 -0.4227
 8771W        W24580  10.196   6.707   0.129 -0.0009 -0.2175  0.4051
 8772W        W24581   7.010   6.925  12.149 -0.2818  0.2116  0.2845
 8773W        W24582   4.458  16.683   3.453 -0.2432 -0.2126 -0.0582
 8774W        W24583   6.818   5.787   0.904  0.1534 -0.0089  0.1581
 8775W        W24584  17.298   3.473  13.508  0.1024 -0.1646  0.1764
 8776W        W24585   8.248  11.802   2.578 -0.0312  0.2450  0.1164
 8777W        W24586   1.284  10.528  13.148  0.2543 -0.2724 -0.1149
 8778W        W24587   5.208   3.568   2.877 -0.3051 -0.0314 -0.1244
 8779W        W24588  17.095  17.162   2.202 -0.0922  0.5856 -0.4927
 8780W        W24589   3.847  11.846   2.399 -0.0814 -0.1213  0.1630
 8781W        W24590   9.221  14.975  16.596 -0.1130  0.4180  0.0966
 8782W        W24591  17.321  15.346   5.107  0.3784  0.2723  0.2742
 8783W        W24592   1.414   3.458   0.035  0.0655  0.0712 -0.0578
 8784W        W24593   0.801   8.333   1.435 -0.0303  0.1613 -0.2372
 8785W        W24594  15.370   3.726   1.259  0.0787  0.1092  0.1082
 8786W        W24595  15.374  14.233  16.417 -0.0864  0.1473 -0.0882
 8787W        W24596   1.724   4.328  16.053  0.0862 -0.2345 -0.5408
 8788W        W24597   7.241   7.061   2.711  0.0512 -0.1979  0.0141
 8789W        W24598  13.675   4.363  14.989 -0.0837 -0.0958 -0.1317
 8790W        W24599   9.700   2.845  16.969  0.2806 -0.3183  0.2205
 8791W        W24600   3.788   2.635   1.376  0.1191 -0.2023 -0.0790
 8792W        W24601  11.224  10.897  12.615 -0.0090 -0.0378  0.0178
 8793W        W24602   9.008  10.578  14.496 -0.2973 -0.1314  0.2671
 8794W        W24603   8.283   1.613   4.609  0.0002 -0.2258 -0.0271
 8795W        W24604   0.131  16.340  11.699 -0.0529  0.0571  0.1967
 8796W        W24605   7.862  10.399  15.870  0.1098  0.0582  0.0403
 8797W        W24606   8.670   1.277  13.844  0.0919  0.2411  0.3376
 8798W        W24607   1.052   8.952   5.178 -0.1146  0.1405 -0.2902
 8799W        W24608  10.319  10.581  15.441  0.1614  0.1412  0.0415
 8800W        W24609   7.523   6.909   2.310  0.0631 -0.0453 -0.1672
 8801W        W24610  14.623  15.457  14.414  0.1780 -0.0472 -0.2254
 8802W        W24611   0.343   7.276  14.298  0.2155 -0.1978  0.0097
 8803W        W24612   8.858   6.848  16.209  0.4951  0.1690  0.1157
 8804W        W24613  14.142   0.158   0.146  0.0929 -0.1071  0.2297
 8805W        W24614   3.799   0.724  16.834  0.1525 -0.0088  0.2300
 8806W        W24615   4.297   3.984  16.283 -0.0729 -0.1708  0.1130
 8807W        W24616   7.719  17.684   0.246 -0.0641  0.4778 -0.3464
 8808W        W24617  10.540  13.652   4.100 -0.1924  0.0792  0.1797
 8809W        W24618   3.703  11.805  13.422  0.0729  0.0328  0.1665
 8810W        W24619   7.792  11.010  12.287 -0.0961  0.0436  0.0209
 8811W        W24620  12.238   5.486   5.306  0.0509  0.0676  0.2750
 8812W        W24621  17.679  16.214   4.565 -0.1444  0.1990 -0.0472
 8813W        W24622   9.333   4.532  13.536 -0.1636  0.0822 -0.1087
 8814W        W24623  14.325  15.466   2.468 -0.0953 -0.0437 -0.1018
 8815W        W24624   0.012  15.443  13.100  0.0001 -0.1821  0.0594
 8816W        W24625  17.398   5.364  14.372  0.0330 -0.3030 -0.0781
 8817W        W24626   3.415   4.532  15.286 -0.0466  0.1238 -0.2527
 8818W        W24627  13.219  10.546  13.614  0.0156  0.0434 -0.0038
 8819W        W24628   8.673   7.196  15.850 -0.0919  0.0938 -0.0382
 8820W        W24629  15.913  16.451  14.237 -0.0853  0.0350 -0.3114
 8821W        W24630  10.464   9.120  16.442  0.2562  0.0960 -0.2030
 8822W        W24631  17.229   7.993  11.362 -0.1993 -0.0586  0.0938
 8823W        W24632  13.410   1.516  13.871 -0.2535  0.0040 -0.4297
 8824W        W24633   9.197  16.887  13.031  0.0083  0.0802  0.0582
 8825W        W24634   1.243  15.083   1.582  0.0313 -0.2098  0.5532
 8826W        W24635   8.233  11.437  12.511 -0.2825  0.2658  0.2151
 8827W        W24636   9.249   6.645  14.278  0.0541 -0.1851  0.1883
 8828W        W24637  10.608   7.368  14.327  0.1201  0.1165 -0.3201
 8829W        W24638   1.225   0.224   5.990 -0.0745 -0.2563 -0.1982
 8830W        W24639   4.141  17.009  16.679  0.2252  0.0245  0.0265
 8831W        W24640   2.071   4.849   0.879  0.0822  0.1964  0.0016
 8832W        W24641  13.557  16.781  12.249 -0.1399 -0.0636 -0.1369
 8833W        W24642  16.224   9.489   3.271 -0.3272  0.2432 -0.0154
 8834W        W24643  13.800   8.977   1.725 -0.0532 -0.1804 -0.4230
 8835W        W24644  10.581   1.435   1.620 -0.2778 -0.3222 -0.2398
 8836W        W24645   8.847   0.940  15.529  0.0330  0.5546 -0.0854
 8837W        W24646   0.626   2.003   2.165  0.0807 -0.0163  0.0158
 8838W        W24647   7.007  11.403   4.579 -0.2025  0.2341  0.3336
 8839W        W24648   0.660   9.684  11.078  0.0306 -0.0217  0.1130
 8840W        W24649  14.449  11.367  14.407  0.1018 -0.0630  0.0657
 8841W        W24650   5.256   6.590  15.235  0.0606 -0.2208 -0.1829
 8842W        W24651   3.800  17.456  15.323  0.0640  0.2631 -0.0081
 8843W        W24652   6.462  14.733   5.027 -0.0604 -0.0154 -0.1733
 8844W        W24653   5.377   5.001  14.992  0.0230  0.2563  0.3013
 8845W        W24654  12.606  11.005   1.235 -0.0996 -0.0361  0.2469
 8846W        W24655   4.377   2.382   1.523 -0.1624 -0.1308 -0.2128
 8847W        W24656  12.320  10.466   5.060 -0.2789 -0.2153  0.0839
 8848W        W24657  15.490   1.906  15.380  0.0223 -0.0501 -0.0455
 8849W        W24658  16.375  15.186  13.046  0.0230  0.0105  0.3706
 8850W        W24659   4.449   4.760   4.547 -0.0552  0.5021 -0.2275
 8851W        W24660   4.955   7.910   3.694  0.0502 -0.0167 -0.1423
 8852W        W24661  16.074   0.295  12.091  0.2554  0.2463  0.0200
 8853W        W24662   5.415   5.531   5.878  0.1262 -0.1215 -0.1465
 8854W        W24663  12.005  13.187   4.816  0.0970  0.5151  0.1040
 8855W        W24664   9.346  12.002   0.241 -0.2370 -0.2209  0.0112
 8856W        W24665  12.302   2.198  13.037 -0.2141 -0.0028 -0.1610
 8857W        W24666   9.767   7.374  14.538  0.0847  0.4403 -0.2171
 8858W        W24667  10.407   8.155   4.384  0.2380  0.1687  0.2652
 8859W        W24668  17.725   0.420  13.444  0.0568 -0.3712 -0.0960
 8860W        W24669   3.319   3.324   1.343 -0.0597  0.1271  0.1638
 8861W        W24670   4.297   7.658   5.637  0.2255 -0.1813 -0.1834
 8862W        W24671  11.442   2.885  13.058  0.2711  0.0335 -0.2801
 8863W        W24672  12.221  15.376   4.302  0.0607  0.1404  0.1044
 8864W        W24673  17.564   4.542   1.799 -0.0726 -0.0410 -0.0354
 8865W        W24674  15.777   2.519   1.752 -0.1384 -0.0366 -0.0509
 8866W        W24675   7.706  15.746  13.191  0.6529  0.0821 -0.0062
 8867W        W24676  11.091  11.633  15.072 -0.1180 -0.1226  0.0969
 8868W        W24677  12.314   6.043  16.010 -0.1304 -0.1525 -0.0722
 8869W        W24678   9.299  10.313  16.764  0.1505  0.1222  0.0139
 8870W        W24679  12.898   9.708  13.483 -0.0524 -0.0238  0.0802
 8871W        W24680   0.080   8.937   1.173 -0.0029  0.0445 -0.2396
 8872W        W24681   6.997  14.025   1.603 -0.3332  0.1304 -0.0779
 8873W        W24682  11.547   8.542  16.785  0.2350  0.0520  0.1272
 8874W        W24683   3.362  15.120   3.667 -0.0790 -0.0361  0.0404
 8875W        W24684   1.185  14.256  12.070 -0.0183  0.2899  0.0199
 8876W        W24685   5.546  12.037  10.497 -0.2792  0.2670  0.1271
 8877W        W24686   3.704  16.907   3.658 -0.2246 -0.1017 -0.0724
 8878W        W24687  11.513   5.888   3.400 -0.2978 -0.1456  0.0147
 8879W        W24688   3.748   7.102   5.204 -0.0232  0.0609  0.0939
 8880W        W24689   8.707   8.258  16.854 -0.3040  0.0083 -0.0536
 8881W        W24690   9.742   4.738   5.978  0.1848  0.2714  0.0434
 8882W        W24691  16.482   2.620  15.024 -0.1381  0.0506  0.0583
 8883W        W24692   6.432  11.191  11.536  0.0961 -0.1035 -0.0333
 8884W        W24693  11.462   9.474  11.546  0.1104 -0.3245  0.0292
 8885W        W24694  16.294  13.806   3.364 -0.2051 -0.1411 -0.0381
 8886W        W24695   0.130   4.570   4.870 -0.3303  0.5336 -0.3079
 8887W        W24696   5.319   4.651   4.907 -0.1414 -0.1342  0.0808
 8888W        W24697   2.865  10.921   4.848 -0.1557  0.4484 -0.1701
 8889W        W24698   8.156   3.423   4.796  0.0362  0.0140  0.2087
 8890W        W24699   8.667  12.725   2.138 -0.2397 -0.0372  0.0036
 8891W        W24700   3.275   2.594   1.947  0.0586 -0.0051  0.0740
 8892W        W24701   9.062   6.945   0.672  0.1413 -0.1009  0.0530
 8893W        W24702   3.433  12.365   0.325  0.0745  0.3985 -0.5264
 8894W        W24703  12.589   9.923  16.735  0.0858 -0.1363 -0.0315
 8895W        W24704   1.952  14.135  10.858 -0.0850 -0.1085 -0.2162
 8896W        W24705   0.775   0.555   2.136 -0.0253 -0.2234  0.1837
 8897W        W24706  15.286   6.973   2.844  0.0229  0.2603  0.2215
 8898W        W24707   9.262   6.028  13.093  0.1692  0.0111  0.1279
 8899W        W24708   0.358   7.648  13.526 -0.0762  0.0146  0.1828
 8900W        W24709   3.790  12.570   0.016 -0.0749 -0.0219 -0.0349
 8901W        W24710   6.316  16.814   6.472 -0.1427  0.1440  0.2362
 8902W        W24711   7.205  11.127  14.073 -0.2062 -0.3166  0.0776
 8903W        W24712  11.602   1.981  14.020  0.0811  0.0075  0.1540
 8904W        W24713   5.637  11.275  13.938  0.0901 -0.0418  0.1524
 8905W        W24714  11.376   3.677   2.763 -0.3144 -0.0718 -0.0788
 8906W        W24715  17.572  11.728   1.668 -0.1081 -0.0888 -0.1177
 8907W        W24716   8.733  14.326   1.357  0.2320 -0.2196  0.0811
 8908W        W24717  15.676  13.507  12.854  0.0337  0.0084  0.1107
 8909W        W24718   7.791  13.553  11.342  0.0174 -0.2205  0.1766
 8910W        W24719   0.749  15.867  16.680  0.0166 -0.0327  0.1842
 8911W        W24720   5.281  12.900   5.571  0.0719 -0.3065  0.0766
 8912W        W24721   2.443  11.593  12.193  0.1241 -0.0155  0.2494
 8913W        W24722   0.257   8.075  13.699 -0.0712 -0.1777  0.1824
 8914W        W24723  16.201   2.618   3.770 -0.0069  0.0706  0.1081
 8915W        W24724  12.210  15.613  13.540  0.3120 -0.0385  0.1196
 8916W        W24725   4.109  11.404  11.464 -0.1750  0.0912 -0.1945
 8917W        W24726   9.958  12.972  10.724 -0.0114 -0.1287  0.2507
 8918W        W24727   5.246   3.940   5.331 -0.0554  0.0930 -0.0731
 8919W        W24728  11.037  17.065   5.597  0.0670  0.0378  0.0553
 8920W        W24729  15.816   7.610   2.479  0.1454  0.0753 -0.2001
 8921W        W24730  16.410  10.386   4.543  0.0464 -0.0986 -0.3767
 8922W        W24731  10.173   3.294  13.660 -0.0100 -0.2854  0.3588
 8923W        W24732  14.606   5.602  13.220 -0.1686  0.0002  0.0500
 8924W        W24733  13.901   8.589  14.537  0.0197 -0.2239 -0.3333
 8925W        W24734   9.300   6.904  12.858  0.0550  0.0892 -0.0829
 8926W        W24735  16.634   3.496  15.198  0.0180 -0.0484  0.1574
 8927W        W24736   1.695   5.535  13.547  0.1069  0.4042  0.0906
 8928W        W24737   1.782   8.243   2.414  0.2290 -0.0118 -0.4715
 8929W        W24738   4.313  13.042   5.525  0.0748  0.0747  0.0268
 8930W        W24739   6.376   0.632   1.746  0.0488 -0.2045  0.1628
 8931W        W24740   1.544   4.274  12.385 -0.1561 -0.1190  0.1507
 8932W        W24741  15.789   4.444   3.636  0.0250  0.0204  0.0961
 8933W        W24742   3.079  11.686  12.758 -0.1709 -0.1440  0.1007
 8934W        W24743   9.868   5.583  15.901  0.2809 -0.1243 -0.1782
 8935W        W24744   5.889  12.769   0.831 -0.1490 -0.0918 -0.3313
 8936W        W24745  13.178  14.445   0.672  0.1057 -0.2824  0.0849
 8937W        W24746   3.293   9.059  14.491 -0.0214  0.1100 -0.0982
 8938W        W24747  14.349   7.401   5.754  0.0795 -0.1138  0.1249
 8939W        W24748  16.955   9.106  13.993 -0.0261  0.0190 -0.1930
 8940W        W24749  13.227  13.746  16.316  0.1688  0.1577 -0.0262
 8941W        W24750  16.326   7.901  16.462 -0.0652  0.1143 -0.2088
 8942W        W24751   5.865   7.821  13.508  0.0631 -0.3009 -0.0436
 8943W        W24752  14.974   5.196  13.419 -0.1522  0.1586  0.0338
 8944W        W24753   9.423   4.975   4.717 -0.0020  0.1953  0.2803
 8945W        W24754  17.093   8.088  14.940 -0.1614  0.0486 -0.1600
 8946W        W24755  12.310   9.093   0.244  0.0705  0.0384 -0.1731
 8947W        W24756   7.532  16.031   3.410 -0.3452  0.0742 -0.0466
 8948W        W24757   9.347  11.924   0.741  0.2208  0.1250  0.0136
 8949W        W24758  10.910   5.959  14.059  0.0516  0.0606  0.2545
 8950W        W24759  10.694   6.995  16.220 -0.1374  0.0707 -0.0347
 8951W        W24760  10.338   4.203   1.370  0.0205  0.0837  0.0401
 8952W        W24761   2.362   0.375   2.307 -0.2730 -0.3225  0.0288
 8953W        W24762   1.282  17.537  14.028 -0.2207  0.0600  0.1733
 8954W        W24763  12.786   8.129   1.702  0.0889  0.1528 -0.1748
 8955W        W24764  11.721   3.572   4.513 -0.1302 -0.2042  0.0408
 8956W        W24765   3.837   5.088   2.350 -0.1980  0.0700  0.0002
 8957W        W24766   0.485   5.640   5.042 -0.0906 -0.1047  0.0627
 8958W        W24767  12.674   0.950   4.040 -0.1379 -0.1951 -0.0107
 8959W        W24768   3.768   3.248  12.555  0.3929 -0.0618  0.2600
 8960W        W24769  16.563   8.076  16.887 -0.1706  0.2163 -0.0044
 8961W        W24770   8.979  17.141   2.821  0.1222 -0.2072 -0.0829
 8962W        W24771  12.886  12.481  12.596 -0.0117 -0.2682  0.1993
 8963W        W24772  12.098   9.216  12.218  0.1501 -0.1660 -0.0004
 8964W        W24773  17.485  13.763   4.007 -0.0299  0.0687  0.0185
 8965W        W24774   0.570   3.919   1.180 -0.0681 -0.0888 -0.0623
 8966W        W24775   9.173   2.821  16.718 -0.1871 -0.0484 -0.1554
 8967W        W24776   6.592  11.840  15.663 -0.1930 -0.0501  0.2713
 8968W        W24777   0.600  16.596  12.391 -0.2763  0.1160  0.0256
 8969W        W24778   4.551   8.722   2.901 -0.0959 -0.0592  0.1535
 8970W        W24779   8.275   3.225  15.087  0.2409  0.0780 -0.1793
 8971W        W24780   8.002   3.665  14.246  0.1136 -0.2464 -0.1039
 8972W        W24781  12.971  13.410   5.390  0.2824 -0.2775  0.0233
 8973W        W24782   1.958   7.092   3.500  0.0429  0.1611  0.1111
 8974W        W24783   8.819  14.178  11.488 -0.2133  0.1402 -0.0578
 8975W        W24784  14.470  10.111   2.110  0.0597 -0.2073  0.3487
 8976W        W24785  17.420   5.092   3.219 -0.1416  0.0255  0.1246
 8977W        W24786   2.218  14.621  16.113 -0.0896 -0.0424 -0.3152
 8978W        W24787  14.419  17.583  15.993 -0.0625  0.0260  0.0564
 8979W        W24788   3.443   3.830   0.492  0.1106 -0.2754 -0.0437
 8980W        W24789  13.456   7.830  14.610  0.2050  0.2660  0.0875
 8981W        W24790  16.228  10.076   5.380 -0.0631 -0.4767  0.3478
 8982W        W24791  10.826   2.039  11.916 -0.1842 -0.0981  0.0492
 8983W        W24792  10.721  11.937   4.605 -0.2277  0.2150  0.1602
 8984W        W24793  15.295  15.543  16.042 -0.0882  0.3236 -0.4682
 8985W        W24794   5.249   6.569  16.941 -0.0811  0.1327 -0.1883
 8986W        W24795  11.036   8.445  15.751  0.0277  0.2095 -0.0578
 8987W        W24796   0.042   1.012   5.621  0.0358  0.1011  0.0079
 8988W        W24797  17.042  14.293  14.820 -0.0352 -0.1528  0.0875
 8989W        W24798   5.949  16.012  12.828 -0.1726 -0.4838  0.1628
 8990W        W24799  16.728  11.401   6.233  0.3268 -0.1968 -0.0059
 8991W        W24800  14.557   1.347  16.094  0.3090 -0.2031 -0.1309
 8992W        W24801   7.714   2.150   0.176  0.2364  0.0107 -0.1511
 8993W        W24802   3.004  14.761  15.446  0.0755 -0.4135 -0.1650
 8994W        W24803  11.303  17.403  15.245  0.0277 -0.0350 -0.4069
 8995W        W24804   9.776   3.122   3.427  0.0536 -0.0410  0.0769
 8996W        W24805   7.608   1.078   1.904  0.0545 -0.0983 -0.4324
 8997W        W24806   1.877  10.274  15.703 -0.0258 -0.2698 -0.0064
 8998W        W24807   6.298  13.788   5.221  0.2076 -0.0564 -0.3149
 8999W        W24808   0.790   0.745  11.713 -0.1268  0.0831  0.0968
 9000W        W24809  11.221   6.850   4.479 -0.2531 -0.0904 -0.1140
 9001W        W24810   5.223   6.805  15.683  0.1357 -0.0088 -0.0937
 9002W        W24811   2.012  15.589   1.423  0.1024  0.0104 -0.2291
 9003W        W24812   9.275   9.325   2.199  0.1370 -0.0815 -0.5230
 9004W        W24813   5.918   6.787   1.663  0.0229 -0.0274 -0.0325
 9005W        W24814  13.220   5.081   2.280  0.0234 -0.1465 -0.0286
 9006W        W24815  11.461  11.004  16.682  0.1619 -0.0382 -0.2933
 9007W        W24816   7.276  12.707   3.001  0.2459  0.1236 -0.0424
 9008W        W24817   2.935   9.550   5.412  0.1880  0.0182 -0.1609
 9009W        W24818   5.328   0.287  13.658  0.0697 -0.0545  0.0279
 9010W        W24819   3.486  11.582  14.220 -0.2360  0.0851  0.4178
 9011W        W24820   4.343   4.510  16.318 -0.3402  0.0213 -0.1139
 9012W        W24821   0.066   6.599  12.287  0.1704  0.1750 -0.1139
 9013W        W24822   0.263   2.726  13.131 -0.0273  0.1328  0.1313
 9014W        W24823   2.262   2.000  11.756  0.2192  0.1654 -0.1429
 9015W        W24824  13.735   0.153   6.373 -0.0175  0.1344  0.0046
 9016W        W24825   9.083   1.995   3.980 -0.1573  0.2343  0.0543
 9017W        W24826   5.270  13.458  12.068  0.2267 -0.1351 -0.1377
 9018W        W24827  12.509  10.737  16.089 -0.1520  0.2785 -0.1503
 9019W        W24828   4.898   1.791   4.176 -0.2953  0.0361 -0.2218
 9020W        W24829   9.832   0.395  11.865  0.0351  0.1577 -0.4115
 9021W        W24830  12.027  11.497  14.198  0.2745 -0.0373 -0.1207
 9022W        W24831   4.407   2.528   2.996  0.0257 -0.2833  0.0454
 9023W        W24832  16.712   9.756   0.123  0.0883 -0.0156  0.1733
 9024W        W24833  13.810   1.897  16.834 -0.0898 -0.0477 -0.2034
 9025W        W24834  15.516  15.864   1.816 -0.1794  0.3365  0.1163
 9026W        W24835   6.671  13.551  16.443 -0.2735 -0.1445  0.0818
 9027W        W24836  16.514   5.677  16.970 -0.2151  0.2704 -0.3545
 9028W        W24837  17.270  16.572  11.539  0.0576  0.0713 -0.0323
 9029W        W24838   8.032   6.825   2.248 -0.2273 -0.0725  0.2473
 9030W        W24839  12.369   7.727   1.021 -0.0796 -0.0046  0.1299
 9031W        W24840   4.606   6.588  14.290 -0.0996  0.1817 -0.1983
 9032W        W24841  16.625   1.175  16.001  0.3417  0.0204 -0.0115
 9033W        W24842   1.616   5.875   6.141  0.0908  0.0356 -0.3344
 9034W        W24843  14.277  12.679   1.131  0.0722 -0.1678 -0.0580
 9035W        W24844   5.385  14.027   5.238  0.1252 -0.4522  0.0748
 9036W        W24845  10.304   5.549   4.885 -0.0542  0.0677  0.1994
 9037W        W24846  15.556  12.113  13.383 -0.0480  0.0321  0.2246
 9038W        W24847   1.316   2.763   4.133 -0.1112  0.0100 -0.4401
 9039W        W24848   3.695  11.871   6.612  0.0181  0.0464 -0.0512
 9040W        W24849   2.824  11.759   1.260 -0.2526 -0.0918 -0.0470
 9041W        W24850   9.222   8.652   4.334  0.0437  0.2254 -0.2452
 9042W        W24851   8.022  12.210   2.898  0.2261 -0.0761  0.1746
 9043W        W24852   9.989   1.474  14.023 -0.0844  0.1838 -0.2181
 9044W        W24853  15.369   8.047   5.026 -0.0223 -0.2376  0.0389
 9045W        W24854  10.939   7.362  13.518  0.0571 -0.3489 -0.1564
 9046W        W24855  17.160   1.949  16.045 -0.1368  0.2378 -0.1651
 9047W        W24856   7.371  13.680   0.157 -0.1049  0.0908 -0.1996
 9048W        W24857   4.559   0.284   0.802  0.0238 -0.1516  0.3385
 9049W        W24858   3.256   2.385   0.977  0.1965 -0.0216 -0.0172
 9050W        W24859   1.906   4.547   4.809 -0.1577 -0.1379 -0.0833
 9051W        W24860  11.078  13.106  15.322 -0.0759 -0.1518  0.0202
 9052W        W24861  13.349   1.745   4.340 -0.1578 -0.3654 -0.0749
 9053W        W24862  14.094  17.225   3.328  0.0229  0.0544  0.2377
 9054W        W24863  11.718   3.443   1.158 -0.1917  0.1080 -0.1468
 9055W        W24864  16.546   8.937  13.868 -0.2128  0.0468 -0.0714
 9056W        W24865   4.607   7.075  15.082  0.0521 -0.1195 -0.0676
 9057W        W24866  16.605   1.421  16.498  0.1756 -0.1375  0.2340
 9058W        W24867   1.823   4.725  13.826  0.0534 -0.0664  0.1153
 9059W        W24868  15.524  15.121   3.083 -0.1407 -0.0626 -0.2689
 9060W        W24869   2.837   4.279  13.914  0.1296 -0.0385 -0.1614
 9061W        W24870   4.876  17.613  16.554  0.2262 -0.3521 -0.0248
 9062W        W24871  14.834  16.518  15.562  0.2461 -0.1860  0.2763
 9063W        W24872  16.922   3.748  15.753 -0.0721  0.0602  0.1348
 9064W        W24873   8.411   1.408   4.012  0.0481  0.1619 -0.2332
 9065W        W24874   2.779  11.025   0.110 -0.0118  0.3920  0.0864
 9066W        W24875   1.975   5.199  16.199  0.0142  0.2120  0.1582
 9067W        W24876  14.501   5.684   0.211 -0.1141 -0.2499  0.0368
 9068W        W24877   2.882   7.655  12.583 -0.0281  0.0370  0.0184
 9069W        W24878   9.919   7.834   4.201  0.2011 -0.2555  0.2249
 9070W        W24879   6.400  13.278   5.427 -0.2182 -0.3271  0.2078
 9071W        W24880   1.457  10.669   2.996  0.1293  0.0929 -0.0349
 9072W        W24881   8.987  16.063  11.147  0.1295 -0.1565 -0.4696
 9073W        W24882   1.645  13.182   4.764 -0.0816  0.0933 -0.0045
 9074W        W24883   5.385   0.612  16.415 -0.0716  0.0005  0.0657
 9075W        W24884  15.684  10.870   0.878 -0.1183  0.0843  0.1539
 9076W        W24885   7.419  13.284  12.532 -0.2158 -0.0691 -0.1722
 9077W        W24886   5.026   8.201   4.764 -0.1469 -0.1005  0.0333
 9078W        W24887  13.199  17.285   5.039  0.2542  0.0075  0.3652
 9079W        W24888   5.804  16.792   3.731  0.0221  0.1870  0.2998
 9080W        W24889   5.930   6.468   6.015  0.0006 -0.3031  0.0700
 9081W        W24890  11.538   7.746  15.325 -0.2637 -0.3803  0.0867
 9082W        W24891   1.715   3.317  16.244  0.1215  0.0263  0.2256
 9083W        W24892   6.276   7.533  12.385  0.1114 -0.0819 -0.4021
 9084W        W24893   1.913  11.469   1.539 -0.2202 -0.1161  0.2083
 9085W        W24894   3.861   8.999  15.465 -0.1427  0.2541  0.0373
 9086W        W24895   0.612  14.028  16.876  0.1119  0.0316 -0.0110
 9087W        W24896  12.754   6.452   0.698  0.0993  0.2338 -0.0088
 9088W        W24897   6.689  11.037   3.334 -0.2004  0.0990  0.2851
 9089W        W24898   9.311  10.232  13.757 -0.1013 -0.1213 -0.2022
 9090W        W24899   4.508  10.797  16.677 -0.2701 -0.2243 -0.0531
 9091W        W24900  12.619   9.304  16.145  0.3282 -0.1422  0.0974
 9092W        W24901  14.550   3.830   4.586  0.1462 -0.0104 -0.0775
 9093W        W24902   1.007   3.194   0.235 -0.0753 -0.1270  0.1700
 9094W        W24903   3.695   9.713   1.856  0.2623 -0.0409  0.0266
 9095W        W24904  13.113  16.425  16.174 -0.2878 -0.0296  0.2275
 9096W        W24905  15.640  15.169  14.061 -0.1272 -0.2287  0.3567
 9097W        W24906   6.675  10.106  12.890  0.1652  0.0351 -0.1036
 9098W        W24907   4.100   8.384  13.682  0.0828 -0.1950 -0.0799
 9099W        W24908  16.480   1.712   2.576  0.1086  0.1673 -0.1827
 9100W        W24909   1.957  13.334   3.632  0.0872  0.0470 -0.1193
 9101W        W24910   8.652   3.079   5.760  0.2830 -0.2290 -0.2262
 9102W        W24911   5.769  11.774   2.306 -0.4353  0.2969  0.0495
 9103W        W24912  12.747  11.934   4.924 -0.3210  0.1085  0.0547
 9104W        W24913  10.438  14.871   3.706  0.1229 -0.0385 -0.0338
 9105W        W24914   7.314   5.513   0.232  0.0245  0.0116  0.3289
 9106W        W24915   8.180  16.544   5.923  0.2825  0.1183  0.0024
 9107W        W24916   3.198  10.164  15.780 -0.1838  0.5237  0.2388
 9108W        W24917   1.414   2.377  12.469  0.1856  0.2500 -0.0725
 9109W        W24918   7.618   9.942   2.628 -0.0673 -0.0836 -0.2179
 9110W        W24919  13.338   3.024  14.922 -0.1184 -0.0220 -0.1621
 9111W        W24920  10.449  15.733   1.710  0.4282  0.0403  0.3376
 9112W        W24921  16.246   5.254  16.733  0.2354 -0.2272  0.1177
 9113W        W24922   1.317  12.825  12.224 -0.3775 -0.1930  0.0765
 9114W        W24923  14.099  17.133   0.721 -0.0015  0.2302 -0.0296
 9115W        W24924   8.358  10.687  16.105 -0.1166  0.0963  0.1420
 9116W        W24925  13.888  11.347  13.551  0.1097 -0.0860  0.0620
 9117W        W24926   9.497   9.566   6.033  0.1227  0.0354 -0.0636
 9118W        W24927  12.792   0.346   1.373 -0.0137 -0.0596 -0.1753
 9119W        W24928   6.723  10.475  15.816  0.3097 -0.0665 -0.1560
 9120W        W24929  11.832   0.429   2.935 -0.1633  0.0622  0.0881
 9121W        W24930  17.160   9.031   4.753  0.2535 -0.0431  0.0481
 9122W        W24931  10.160  15.619  12.344 -0.0204  0.1312 -0.2724
 9123W        W24932   5.849   1.093   5.838  0.1184 -0.0192 -0.0668
 9124W        W24933   7.790   3.301  12.356  0.0529  0.1515  0.3065
 9125W        W24934  12.102  15.734   1.793  0.0833 -0.2779 -0.1875
 9126W        W24935   8.750  14.551   2.639 -0.0367  0.3228  0.1607
 9127W        W24936  13.379   9.342  15.147  0.1175  0.1444 -0.0209
 9128W        W24937   0.788   8.582   4.912  0.1751 -0.1293  0.2584
 9129W        W24938  11.022  16.455  15.433  0.3565 -0.2952  0.0440
 9130W        W24939   8.102   9.037  16.981  0.0830  0.2895  0.2657
 9131W        W24940  11.787  13.848   2.123 -0.0956  0.0768 -0.0719
 9132W        W24941   6.612  10.268   0.485  0.3545 -0.2480  0.3373
 9133W        W24942  10.979   1.869   2.751  0.0114 -0.0644 -0.0353
 9134W        W24943   7.426   2.905  12.449 -0.0771  0.0343 -0.1473
 9135W        W24944  13.703  10.996   6.238  0.0814  0.0650 -0.4372
 9136W        W24945   2.054   3.975   1.639 -0.0757 -0.1114 -0.0499
 9137W        W24946   5.480  10.385   2.140  0.0313 -0.0134  0.0666
 9138W        W24947   8.874   5.763   3.518 -0.1437  0.1851  0.0457
 9139W        W24948  12.800  10.526   5.211 -0.1751 -0.0099 -0.2816
 9140W        W24949  10.393  11.957  14.445  0.0956 -0.2172  0.1032
 9141W        W24950   3.693   8.435   2.812 -0.1913 -0.1921 -0.1380
 9142W        W24951   6.120   6.979   5.616  0.0005  0.1392 -0.4510
 9143W        W24952   8.299  15.442   5.925 -0.1072  0.0031  0.0278
 9144W        W24953   6.767  14.830  16.213  0.1972  0.2622  0.1683
 9145W        W24954  16.177  15.974  14.280  0.0497  0.1048 -0.1258
 9146W        W24955   6.011  15.831  13.749  0.0030 -0.1643  0.0030
 9147W        W24956   9.419   7.453  12.014 -0.0172 -0.0292  0.2889
 9148W        W24957  11.825  10.798   3.875  0.1093  0.0721 -0.1213
 9149W        W24958  17.401   0.599   4.446  0.2721  0.2600  0.0071
 9150W        W24959   5.216   4.359   2.421  0.0181  0.2468  0.2680
 9151W        W24960  10.265   7.203   2.347  0.0089  0.0330 -0.0760
 9152W        W24961   6.881  15.369   2.883 -0.3280  0.1417 -0.2918
 9153W        W24962   9.645   0.669   2.450 -0.1053 -0.2069  0.4324
 9154W        W24963   4.018  17.538   3.248 -0.0882  0.2036 -0.0732
 9155W        W24964   1.568  17.581  14.988 -0.1400 -0.4221 -0.2101
 9156W        W24965   5.654   9.506  14.552 -0.1529  0.1019 -0.0302
 9157W        W24966   8.537  16.135   1.427 -0.0120  0.2224  0.1640
 9158W        W24967   1.747   8.990  14.557  0.1495 -0.0361  0.0104
 9159W        W24968   5.608   3.115   5.849 -0.0240  0.0940  0.0011
 9160W        W24969  12.033  10.055  16.175  0.3544  0.1620  0.0996
 9161W        W24970  14.181  15.618   1.796  0.3023 -0.0274  0.2771
 9162W        W24971  14.996   6.462   1.527  0.1480  0.0721 -0.2163
 9163W        W24972   2.098  14.051   3.268  0.1527 -0.2732  0.1490
 9164W        W24973   2.288  11.768   0.463 -0.1404 -0.3387 -0.0170
 9165W        W24974   1.040   8.628  16.276  0.2139 -0.1403 -0.3415
 9166W        W24975  11.862  13.087  12.377 -0.2026 -0.0543 -0.1506
 9167W        W24976  17.384   6.632   3.099  0.0276 -0.1906 -0.0584
 9168W        W24977   3.468   8.320  11.977 -0.0016 -0.1928 -0.3670
 9169W        W24978  14.125   1.707  12.498  0.0392  0.0105  0.2945
 9170W        W24979  15.667   0.398   1.814 -0.2951  0.0325 -0.0514
 9171W        W24980  13.740   2.135  15.178 -0.0779  0.0067 -0.0525
 9172W        W24981   8.633  17.395  16.260  0.1480  0.0453 -0.4231
 9173W        W24982  16.405   9.494  13.981 -0.0301  0.1946 -0.1494
 9174W        W24983   2.241   2.598   2.809 -0.1080  0.1779 -0.1973
 9175W        W24984   3.330   1.622   4.851  0.3066  0.1237  0.0311
 9176W        W24985   2.378  13.829  13.613 -0.0299 -0.1443  0.2921
 9177W        W24986  13.164  13.948  16.879  0.0688  0.0136  0.2650
 9178W        W24987  15.684   3.070   2.611 -0.0841 -0.0147  0.1454
 9179W        W24988  14.876  11.519   1.963 -0.0775 -0.0328  0.0360
 9180W        W24989   4.756   6.934   3.324 -0.3291 -0.0745  0.0418
 9181W        W24990   6.839   0.196   3.372 -0.0834 -0.2490  0.0935
 9182W        W24991  17.086   7.070  15.407  0.1610  0.2602  0.0594
 9183W        W24992   0.268   8.896   4.225  0.2023 -0.1301 -0.3175
 9184W        W24993   0.551   1.066  13.229  0.0986 -0.1629 -0.0318
 9185W        W24994   8.647  11.127  11.262 -0.0400  0.1683  0.0966
 9186W        W24995   9.325  17.355  11.590  0.1684  0.0599  0.0209
 9187W        W24996  17.044   1.597   1.064 -0.0713  0.0071  0.2122
 9188W        W24997  11.738  16.397   4.881 -0.0344 -0.1575  0.1693
 9189W        W24998  15.709   5.046  15.617  0.1612  0.2498 -0.2060
 9190W        W24999   2.140  16.288  14.876  0.3949  0.0594  0.3117
 9191W        W25000  10.585   0.720  15.780 -0.0134 -0.3320 -0.2632
 9192W        W25001  14.365   7.310  13.565 -0.3480 -0.0604  0.0935
 9193W        W25002  10.747   2.692   5.916 -0.1633  0.1232  0.0215
 9194W        W25003  15.876   9.086   1.263  0.1768 -0.2149  0.2583
 9195W        W25004  12.863  16.632  11.306  0.2979  0.0577  0.2582
 9196W        W25005  13.232  11.976  14.809 -0.1332 -0.0887  0.1347
 9197W        W25006  17.175  11.007   3.499  0.0177  0.1060  0.0897
 9198W        W25007  10.776  15.348  14.176 -0.1738 -0.0273 -0.1674
 9199W        W25008   4.184  10.206  12.768  0.1924  0.1257 -0.1876
 9200W        W25009  13.507  16.156   2.032  0.0854  0.1352 -0.1898
 9201W        W25010   4.566   7.269   5.758 -0.0250  0.0335 -0.0945
 9202W        W25011   6.326   5.362   1.478 -0.1165 -0.0300  0.0328
 9203W        W25012  12.266   3.809   5.640 -0.0130  0.0844  0.3084
 9204W        W25013   7.346   1.627  14.628  0.2323  0.0499 -0.1353
 9205W        W25014   5.841  10.531   1.011  0.1584  0.4388 -0.2106
 9206W        W25015   3.048  16.883   3.370  0.0138  0.0389  0.1555
 9207W        W25016   8.174   3.235  14.087  0.1709  0.2580  0.2242
 9208W        W25017   7.803   9.836   3.951 -0.1986 -0.1262  0.2156
 9209W        W25018   1.892  10.198   5.364 -0.0801  0.1701 -0.1684
 9210W        W25019   5.708   8.341   0.097 -0.1070  0.0861  0.0854
 9211W        W25020  14.595   9.644  12.034 -0.3138 -0.0334 -0.0849
 9212W        W25021  11.140   1.393  10.991 -0.3638 -0.1390  0.0523
 9213W        W25022   6.193  11.330   0.305 -0.4063  0.0859  0.4273
 9214W        W25023  17.423   1.166  16.193 -0.0936 -0.5722 -0.0480
 9215W        W25024  16.265  12.189  14.094  0.1343 -0.2276 -0.1245
 9216W        W25025  13.921  14.936  13.120  0.0941 -0.3131  0.2349
 9217W        W25026  15.566   4.009   1.664 -0.0857  0.0483  0.0149
 9218W        W25027  13.512  13.597   1.299 -0.1125 -0.1590 -0.2046
 9219W        W25028   6.440   6.625  11.895  0.0486 -0.2833  0.1762
 9220W        W25029  15.114   3.151   1.882 -0.0865  0.0730  0.0570
 9221W        W25030   8.176   5.063  15.950 -0.0342 -0.0995  0.2390
 9222W        W25031  12.001  15.816  11.434  0.0390  0.2553  0.0192
 9223W        W25032  12.327  12.111   5.289 -0.0472 -0.2748  0.0447
 9224W        W25033  13.606  10.020   5.255 -0.1306  0.1043  0.1494
 9225W        W25034  10.825  15.851  11.834  0.1240  0.3911 -0.0669
 9226W        W25035  16.866   0.038  16.664 -0.1429  0.0296  0.0137
 9227W        W25036  15.966   2.089   3.724 -0.1119  0.0451 -0.1237
 9228W        W25037   2.283  15.324   3.032 -0.2893  0.1005 -0.1619
 9229W        W25038   2.849  16.860  12.652 -0.5091 -0.1058  0.0826
 9230W        W25039   2.072   2.152   3.070 -0.1032  0.1026  0.1964
 9231W        W25040   0.695   6.743   3.313  0.1143  0.2315 -0.2428
 9232W        W25041   2.826   2.660   2.885 -0.0511 -0.1318  0.0324
 9233W        W25042   1.479   2.313   4.329 -0.1721 -0.2546  0.1591
 9234W        W25043   7.951   6.472   3.859  0.2072 -0.1425  0.2427
 9235W        W25044   7.289   0.292   5.218 -0.0538 -0.3021  0.0279
 9236W        W25045   4.790  17.691   6.094  0.0186  0.2228  0.1532
 9237W        W25046  10.106   1.785   0.996 -0.2228 -0.0690  0.0258
 9238W        W25047   9.433   8.631   0.944  0.1829 -0.3001  0.0579
 9239W        W25048  15.066   0.544  12.514 -0.0625  0.3262  0.1551
 9240W        W25049  16.887  13.480   2.147 -0.1677 -0.1450 -0.1423
 9241W        W25050   0.181   0.829  16.478  0.1745 -0.2690  0.1774
 9242W        W25051   3.401   0.228  12.671  0.0195 -0.3147 -0.1745
 9243W        W25052   3.292  17.201   3.702 -0.0137 -0.1438  0.1541
 9244W        W25053  15.126  12.548   3.119  0.2607 -0.1247 -0.4396
 9245W        W25054  14.050  12.176   1.055 -0.1323 -0.1826 -0.5367
 9246W        W25055  14.249   7.358   4.599 -0.0431 -0.1147 -0.0461
 9247W        W25056  10.719  12.203   3.769 -0.1254  0.0618 -0.1070
 9248W        W25057   9.955   2.909  15.960  0.0354  0.1930 -0.1347
 9249W        W25058   7.193  13.371   3.826  0.0145 -0.0565 -0.0694
 9250W        W25059   4.197   3.930   3.719 -0.0811 -0.0289  0.0294
 9251W        W25060  14.652   9.431  15.574  0.2489  0.2361 -0.0382
 9252W        W25061   8.116   4.982   4.337 -0.1174 -0.1057 -0.1312
 9253W        W25062  16.565   8.290  16.095  0.2051  0.1088 -0.2718
 9254W        W25063   5.310   2.517   5.083  0.0638  0.0538 -0.1511
 9255W        W25064  14.188  10.386  14.974 -0.0993  0.0647 -0.0789
 9256W        W25065  12.672  13.572   3.971  0.3336 -0.2284  0.0758
 9257W        W25066   5.492   3.908   2.655 -0.2770  0.0360 -0.0593
 9258W        W25067   0.132   8.948   3.705  0.0451 -0.0788  0.3140
 9259W        W25068   7.577   5.915   2.332  0.1766  0.0858  0.0322
 9260W        W25069   1.778  12.688   4.892  0.2965 -0.0229  0.0941
 9261W        W25070   3.285   2.799   2.729 -0.2012 -0.1291  0.0382
 9262W        W25071  12.275  15.605  15.551 -0.1148  0.1606 -0.3112
 9263W        W25072  14.833   5.616  13.751 -0.3126  0.1230  0.5185
 9264W        W25073   1.984  16.880   0.480  0.1141 -0.1251 -0.1080
 9265W        W25074   6.786   0.785  15.273 -0.0530  0.2462 -0.0044
 9266W        W25075   0.716  15.429  12.544  0.1122  0.1806 -0.0487
 9267W        W25076  10.199  10.793   4.439  0.2135  0.0364 -0.2612
 9268W        W25077  10.873   5.956   6.142 -0.2425  0.0738  0.0395
 9269W        W25078  13.288  12.165  15.290  0.0787  0.2368 -0.1476
 9270W        W25079  12.760  14.096   4.120 -0.0921  0.2093 -0.2401
 9271W        W25080   8.633   7.751   3.803  0.2650 -0.1158 -0.2026
 9272W        W25081   5.551  16.003   4.709  0.0360  0.0812  0.0149
 9273W        W25082   3.568   2.046  14.537  0.2328 -0.1200 -0.1804
 9274W        W25083   1.750  10.162  15.214 -0.2030  0.0930 -0.0581
 9275W        W25084  12.658  12.251  16.199 -0.0984  0.0992  0.1654
 9276W        W25085  15.655   6.205   2.144 -0.2609 -0.1093  0.0592
 9277W        W25086   6.473   7.061  15.467  0.1002  0.0417 -0.3081
 9278W        W25087   1.664   3.546   3.999  0.2272  0.3870  0.1325
 9279W        W25088  15.524   4.244  16.686 -0.2254 -0.0638  0.0226
 9280W        W25089   5.171  10.203   3.749 -0.0861  0.2936 -0.0308
 9281W        W25090  14.166  16.046   2.560  0.0110  0.2803 -0.1721
 9282W        W25091   3.628   9.791  13.959 -0.0689  0.0092  0.0043
 9283W        W25092  16.302  14.947  14.290 -0.0539  0.0815  0.1429
 9284W        W25093   8.126   8.797  11.247  0.0019  0.1423 -0.2668
 9285W        W25094   3.396   1.664  14.000 -0.0203  0.1786 -0.2498
 9286W        W25095  10.888  16.413  13.829 -0.0541 -0.0731 -0.2841
 9287W        W25096   8.886  15.925   4.969 -0.1816 -0.2466  0.2977
 9288W        W25097  15.883   8.648  13.738 -0.1615 -0.0484  0.2072
 9289W        W25098   3.627   8.881  16.402  0.1096  0.1830  0.0479
 9290W        W25099   0.116  10.601  15.201 -0.3046  0.1437 -0.2658
 9291W        W25100   2.103   1.902  14.296 -0.1140  0.3008 -0.0460
 9292W        W25101  11.476   9.559  13.829 -0.3149  0.0642 -0.5148
 9293W        W25102   8.164   1.167   3.371  0.3417 -0.2046  0.0621
 9294W        W25103  14.693  12.663  14.260  0.1397 -0.2018  0.1136
 9295W        W25104   8.163   7.590   2.718 -0.1371 -0.0214 -0.1220
 9296W        W25105  10.770  15.781   3.278 -0.0219 -0.0766  0.0547
 9297W        W25106  14.698  12.534   1.395  0.0526  0.2250 -0.0713
 9298W        W25107  16.274  13.176  11.651 -0.2169 -0.0055 -0.3481
 9299W        W25108   0.967   1.814  14.095  0.2956  0.0646 -0.1056
 9300W        W25109   2.435   9.111  11.697  0.1943 -0.0533  0.1935
 9301W        W25110  14.951   8.919  16.739 -0.0576  0.2054  0.0397
 9302W        W25111   6.671   7.015   4.929 -0.1746 -0.1583 -0.1508
 9303W        W25112   2.158  16.304  12.512 -0.4451  0.0558 -0.1092
 9304W        W25113   1.621   1.432  14.647  0.2713  0.0707 -0.0238
 9305W        W25114   4.305  16.012  11.768  0.1391 -0.2334 -0.1308
 9306W        W25115   6.346  11.534   1.136  0.0989 -0.1930 -0.3633
 9307W        W25116  15.651   3.854  15.609 -0.1524  0.0412  0.0131
 9308W        W25117  13.590   0.781   0.734  0.0950  0.1401 -0.0131
 9309W        W25118  17.650  16.415   4.128 -0.1876  0.0337 -0.0842
 9310W        W25119  13.410  14.676  16.310  0.0750  0.2304  0.2015
 9311W        W25120   2.752   2.215  11.911  0.0840 -0.1114  0.3293
 9312W        W25121  16.884  10.618  12.914 -0.0076 -0.1458  0.1642
 9313W        W25122   8.086   5.949   3.857 -0.1297 -0.2958 -0.1049
 9314W        W25123  17.024   3.975   1.413  0.2545 -0.2983 -0.1910
 9315W        W25124   3.931   6.191   0.351  0.1559  0.0633  0.1369
 9316W        W25125  13.205  11.497   0.441 -0.3444 -0.0858 -0.1071
 9317W        W25126   7.099  14.841   2.622  0.0851 -0.0700 -0.0179
 9318W        W25127  15.831  15.202  12.835  0.0971 -0.1501 -0.0848
 9319W        W25128   7.005   7.488   2.963 -0.1089  0.2776 -0.2012
 9320W        W25129  13.309   9.865   4.841  0.2006  0.0216  0.0491
 9321W        W25130  12.131   4.027  13.224  0.1405  0.0355  0.0845
 9322W        W25131  10.323   8.807   1.531  0.0893  0.1244  0.0504
 9323W        W25132  13.008   0.248   3.565  0.0383 -0.1324 -0.0583
 9324W        W25133   7.789  11.131   4.186  0.2592 -0.1779  0.0697
 9325W        W25134  12.395  15.887  16.946 -0.0274 -0.0122  0.0734
 9326W        W25135   1.026   4.605  12.062 -0.3316  0.0593 -0.2626
 9327W        W25136  16.259   3.519   5.340  0.2066 -0.2561 -0.1746
 9328W        W25137   8.323  17.359  13.377  0.3247 -0.0682 -0.0886
 9329W        W25138  10.210   9.730  13.304 -0.1250 -0.1881  0.0779
 9330W        W25139   7.245   8.837  14.248  0.1544  0.1904  0.1084
 9331W        W25140  15.161   2.586  12.395 -0.3303  0.0003  0.0716
 9332W        W25141   8.090   2.414   3.116 -0.1483  0.3835 -0.0210
 9333W        W25142   2.617  16.294   2.671  0.0918  0.2271 -0.1857
 9334W        W25143   0.167   2.278   5.300 -0.0657  0.0258  0.1015
 9335W        W25144   4.956  12.939  11.252 -0.2249  0.1231  0.1170
 9336W        W25145   5.791  10.991   1.532 -0.1460  0.0577  0.1078
 9337W        W25146   9.996  14.104  14.829 -0.1801  0.4481 -0.3094
 9338W        W25147  10.350   3.960  15.779  0.0350  0.1295 -0.2148
 9339W        W25148  16.612   9.026  11.595  0.2049  0.4825 -0.2801
 9340W        W25149   0.012   8.690   1.636 -0.2012 -0.0419 -0.0598
 9341W        W25150   9.005  14.254  14.679  0.0259 -0.0570  0.1357
 9342W        W25151  15.953  16.515  14.797  0.2424 -0.0570 -0.3025
 9343W        W25152  12.026  15.199  13.240 -0.0008 -0.4014 -0.0404
 9344W        W25153   0.800  14.226  11.759  0.0186 -0.0483 -0.1156
 9345W        W25154   0.954   3.840   5.126  0.3179 -0.2009  0.0484
 9346W        W25155  16.499   2.540  16.293 -0.1296  0.1908 -0.0894
 9347W        W25156   5.843  16.370   4.572 -0.0832  0.1486  0.1602
 9348W        W25157  17.555  12.182   3.788 -0.0202 -0.2079 -0.0926
 9349W        W25158   9.477  16.051   1.992  0.2323 -0.2769 -0.2684
 9350W        W25159   9.825  12.206  15.974  0.0340  0.3086 -0.0760
 9351W        W25160   8.951   8.571  10.637 -0.1418  0.2240 -0.1524
 9352W        W25161  13.161   1.092   0.385 -0.0524  0.0169  0.2603
 9353W        W25162   3.436   6.530  12.902 -0.1882  0.1075 -0.0730
 9354W        W25163   7.366   6.161  15.722 -0.0600 -0.1399 -0.4353
 9355W        W25164   2.756   0.196  11.829 -0.0923 -0.3193 -0.0790
 9356W        W25165  11.374   9.850  12.785  0.1302 -0.0578  0.0414
 9357W        W25166  10.604  11.880   1.353 -0.0383  0.3958 -0.1019
 9358W        W25167  14.639  17.006  12.393  0.2829  0.1046  0.0780
 9359W        W25168   2.194   4.720   3.341  0.0682  0.1222  0.1811
 9360W        W25169   2.283  12.107   4.980 -0.1909 -0.1361  0.0412
 9361W        W25170  13.501   9.007  12.425  0.2271  0.0479  0.0295
 9362W        W25171  11.445  15.130  12.655 -0.0208  0.1247  0.2111
 9363W        W25172   2.155  12.679   0.082  0.1809 -0.2537  0.0202
 9364W        W25173  13.761   7.204   1.028 -0.0088 -0.1332  0.1394
 9365W        W25174  10.219   4.888   3.600 -0.0433  0.0922 -0.2653
 9366W        W25175   1.852  12.941   0.345  0.2920 -0.4290 -0.0480
 9367W        W25176   4.775   6.559  13.011  0.1740 -0.0921  0.2479
 9368W        W25177   6.197   2.561   5.612 -0.3249 -0.1280  0.0027
 9369W        W25178   8.392   1.445   0.723 -0.1277  0.0317 -0.0999
 9370W        W25179   7.432   2.509   2.617 -0.0231 -0.0003 -0.0324
 9371W        W25180   3.996   0.609   5.779  0.0639  0.0398  0.2207
 9372W        W25181   8.098  10.363  13.349 -0.1174  0.1359 -0.1921
 9373W        W25182   2.897  16.215   4.619  0.0905 -0.1038 -0.2438
 9374W        W25183   2.038   1.111   1.806  0.0013  0.1331 -0.1093
 9375W        W25184   4.172   5.404  13.719 -0.0452  0.0064 -0.0199
 9376W        W25185   8.809  12.188   5.865  0.5001 -0.0462  0.0396
 9377W        W25186   6.167   9.598  12.663  0.0434 -0.0534 -0.3382
 9378W        W25187   8.877   5.896   1.898 -0.3486 -0.1580 -0.1865
 9379W        W25188   9.522  13.421  11.200 -0.0807  0.0426 -0.0930
 9380W        W25189   5.968  16.184   2.479 -0.1186 -0.0486 -0.0040
 9381W        W25190   0.363  13.716  12.849  0.1240  0.1112  0.0946
 9382W        W25191  11.421   2.781   2.885  0.1422  0.0108 -0.2310
 9383W        W25192  12.730  11.813   0.540  0.3385  0.1371 -0.2024
 9384W        W25193  14.615   0.113  15.539 -0.1475  0.1486  0.2575
 9385W        W25194   6.779   3.840  16.699  0.1020 -0.1295 -0.0311
 9386W        W25195  12.787  16.600  13.017  0.3036  0.0529 -0.0007
 9387W        W25196   2.088   6.824  11.898  0.1146  0.2095 -0.2785
 9388W        W25197   8.263  10.514  11.622 -0.2221  0.3757 -0.4644
 9389W        W25198   4.893  16.377  13.084 -0.2160 -0.3444 -0.2106
 9390W        W25199   7.399   8.602  13.470 -0.0338 -0.0739 -0.0186
 9391W        W25200   1.188   2.870  16.135  0.1700 -0.1992 -0.0209
 9392W        W25201   8.784  17.690  12.194  0.0455  0.3171  0.0124
 9393W        W25202   7.365  17.286  14.817 -0.1080  0.0922 -0.0303
 9394W        W25203   9.433   6.966  16.521  0.2081  0.0102 -0.1961
 9395W        W25204   3.732   6.254   5.841  0.1241  0.0986 -0.1477
 9396W        W25205   5.634   7.471   0.441 -0.0715  0.1644  0.1340
 9397W        W25206   6.153   8.602  12.918  0.1817  0.0854 -0.0732
 9398W        W25207   3.207  15.611   5.858 -0.0258  0.2233  0.3789
 9399W        W25208  15.943  13.443   2.596  0.3026 -0.2196  0.1300
 9400W        W25209   3.652  11.270   5.280 -0.3844 -0.1651 -0.2175
 9401W        W25210   5.437   3.757  16.771 -0.0883  0.1919 -0.1983
 9402W        W25211  15.923  15.166   5.196  0.1092 -0.1767  0.0459
 9403W        W25212   0.354  14.105  16.438 -0.0657  0.3054  0.2036
 9404W        W25213   4.019   0.272  15.268 -0.1094 -0.0323 -0.0466
 9405W        W25214   3.183  10.421  14.792 -0.2822 -0.3381 -0.1505
 9406W        W25215   2.021   7.143  16.346 -0.0064  0.0832 -0.0164
 9407W        W25216   9.116   9.766   2.541  0.0128  0.0170  0.1366
 9408W        W25217  10.694   8.779  15.565  0.1691 -0.1182  0.1943
 9409W        W25218   9.828  17.407   2.840 -0.1004  0.0490 -0.1270
 9410W        W25219   7.612  13.110  11.336 -0.0719 -0.2412  0.1108
 9411W        W25220   4.545  12.899  13.594  0.2732 -0.1864 -0.5604
 9412W        W25221  13.564  12.948  12.875 -0.1011  0.0679  0.2781
 9413W        W25222   6.790   6.189  13.777 -0.0515  0.1390  0.1657
 9414W        W25223   3.554  13.649   1.856  0.1280  0.4146 -0.1098
 9415W        W25224   3.242   4.772  12.706 -0.2368 -0.0060  0.3040
 9416W        W25225   4.629  10.229  15.225 -0.0296 -0.1447  0.0333
 9417W        W25226  11.115  14.402   3.129  0.3965 -0.2028  0.2154
 9418W        W25227  13.991  13.645  10.181  0.3062 -0.2986 -0.0065
 9419W        W25228  17.546   2.129  13.544  0.0959 -0.2229 -0.0509
 9420W        W25229  12.012   2.429   1.590  0.1267  0.0674  0.1342
 9421W        W25230  17.492   9.981   4.842 -0.1634 -0.1886 -0.1206
 9422W        W25231   8.568  12.282   2.361 -0.0196  0.0885 -0.0515
 9423W        W25232  11.867   7.540  10.641  0.0083  0.0643 -0.3438
 9424W        W25233   7.393   7.971   2.284  0.0216  0.1930 -0.1041
 9425W        W25234  15.749   0.012  15.265 -0.0105 -0.0649  0.2289
 9426W        W25235  11.514  12.168   0.287  0.1673  0.0951  0.0647
 9427W        W25236   5.534  10.969   2.036 -0.0838 -0.0659 -0.1036
 9428W        W25237   2.186  14.663   5.915  0.2010  0.0614  0.2077
 9429W        W25238   4.989  15.815  11.432 -0.0517  0.0534 -0.1706
 9430W        W25239   0.796  13.642   5.432  0.2478  0.1063 -0.1977
 9431W        W25240   7.731   3.020   6.217 -0.2726  0.2440 -0.2621
 9432W        W25241  14.366  12.333  14.564  0.2575  0.0618  0.0697
 9433W        W25242  15.948  10.336   4.201 -0.0839  0.0965 -0.3860
 9434W        W25243  15.185  17.158   4.763  0.0218  0.1625  0.0685
 9435W        W25244  13.258   7.021  12.103 -0.2909 -0.1367 -0.2465
 9436W        W25245   6.859   5.462  13.232 -0.0125  0.0366 -0.0929
 9437W        W25246   8.981   2.578  16.135  0.0377  0.2807  0.1441
 9438W        W25247   6.651   4.024  14.404  0.0980  0.0074 -0.5066
 9439W        W25248   8.724   8.929   1.702 -0.0896  0.3228 -0.1847
 9440W        W25249  14.876   8.538   0.117 -0.1465 -0.0725  0.1761
 9441W        W25250   8.148   9.255  11.415  0.0621  0.0866  0.0551
 9442W        W25251  14.026   7.980   3.713 -0.0464  0.0298  0.4029
 9443W        W25252   7.530   9.170  12.061  0.3088 -0.0457 -0.0772
 9444W        W25253  11.804   3.838   5.407  0.1975  0.1088  0.0869
 9445W        W25254   0.484   6.638   0.746  0.3590 -0.0661 -0.0337
 9446W        W25255  12.715  17.113   0.977 -0.2144 -0.0955 -0.0061
 9447W        W25256   8.319   0.235   1.321  0.0898  0.1683 -0.0053
 9448W        W25257   8.060   8.632  13.345 -0.0363  0.1358 -0.1785
 9449W        W25258   0.932  14.688  15.244 -0.1184  0.3635 -0.0910
 9450W        W25259   5.156   6.167   3.242  0.1428  0.1235 -0.0720
 9451W        W25260   6.340  15.620  13.362 -0.3174 -0.0411 -0.1510
 9452W        W25261   6.968   8.422   3.579  0.1850 -0.1547  0.1309
 9453W        W25262  16.336   4.200  13.149  0.3926  0.0298 -0.2748
 9454W        W25263   2.910  17.709  12.362  0.0072 -0.1850 -0.0538
 9455W        W25264  16.908   3.639   0.399 -0.1100 -0.1067  0.0070
 9456W        W25265   9.875  13.564  13.364  0.0877 -0.1672  0.0259
 9457W        W25266   8.414   9.624  13.083  0.1501 -0.0234  0.1467
 9458W        W25267   6.033   7.619  11.916  0.1524  0.0432  0.3268
 9459W        W25268   8.842   6.627   3.716 -0.1002 -0.2146 -0.1352
 9460W        W25269  13.013   9.548  15.441 -0.1114  0.0896 -0.1197
 9461W        W25270  13.956  14.058  14.125  0.1396  0.1211 -0.2019
 9462W        W25271   7.283  11.789   5.373 -0.0187  0.1478 -0.0045
 9463W        W25272   2.032  12.002  15.300 -0.2459  0.1150  0.1857
 9464W        W25273   1.613  11.621  13.427  0.2624  0.0345  0.0294
 9465W        W25274   1.957  11.070  16.103 -0.1440 -0.1121 -0.1344
 9466W        W25275   7.428   6.591  10.811 -0.0222 -0.0558 -0.0566
 9467W        W25276   6.985  12.463  11.501  0.3108  0.0118 -0.1110
 9468W        W25277  15.747  12.865   2.532 -0.0572 -0.1756 -0.0266
 9469W        W25278   1.374   2.904  15.359  0.1672 -0.1940  0.2037
 9470W        W25279   1.772   2.026  12.006  0.2563 -0.1510 -0.2883
 9471W        W25280   7.500  11.530  16.496 -0.0747 -0.1118 -0.0168
 9472W        W25281   1.227  11.942  16.551  0.0533  0.3458  0.4741
 9473W        W25282   8.509  10.973  15.208  0.0340  0.3377 -0.1291
 9474W        W25283  14.528   3.158   0.558 -0.3281  0.3182 -0.1128
 9475W        W25284   7.248   8.196   5.394  0.2149 -0.3568  0.2893
 9476W        W25285  13.049  10.917  12.677 -0.0214  0.1930  0.3740
 9477W        W25286  13.323  12.607   0.138 -0.1720  0.1382 -0.1445
 9478W        W25287   0.113  13.130  16.975 -0.1136 -0.0169 -0.0318
 9479W        W25288  12.743   4.692   4.627  0.2824  0.1492  0.0452
 9480W        W25289  15.282   8.547  12.694  0.2212  0.1565 -0.0163
 9481W        W25290  10.184   1.629   3.274 -0.0495 -0.1620  0.2699
 9482W        W25291   6.971  11.521  12.706 -0.0939  0.2517 -0.0138
 9483W        W25292  14.777  11.630  15.332 -0.2180 -0.0255 -0.2247
 9484W        W25293  17.020   5.314   5.656 -0.4397 -0.1960  0.2134
 9485W        W25294   2.139   8.639   5.395  0.0803 -0.3397 -0.2209
 9486W        W25295   4.270   9.482  14.631  0.1114  0.2199 -0.2345
 9487W        W25296  12.276   6.531  13.229  0.1525  0.1932 -0.2391
 9488W        W25297   3.967  12.503  12.140 -0.0230  0.0652 -0.0183
 9489W        W25298   2.705  14.585   3.515 -0.1643  0.0639  0.0058
 9490W        W25299   1.082  10.051   0.415  0.0459  0.0093  0.1356
 9491W        W25300   9.283   9.390  14.377  0.1239 -0.1575  0.3450
 9492W        W25301   6.206  17.063   4.917 -0.0883 -0.1024 -0.3536
 9493W        W25302   5.436   6.592  12.646  0.0896 -0.0402 -0.0808
 9494W        W25303  11.937   5.188  13.303  0.2398 -0.0030  0.1127
 9495W        W25304  13.908   5.444  15.099  0.2381  0.4950 -0.3603
 9496W        W25305   0.773   2.892  13.192 -0.0453 -0.2627  0.2096
 9497W        W25306   7.752   8.235   0.899  0.1168 -0.0301  0.0185
 9498W        W25307   7.791   6.933  12.699 -0.0537  0.0941  0.1645
 9499W        W25308  14.581  13.929   4.022  0.2456 -0.2344 -0.0855
 9500W        W25309  17.180  16.676   3.369 -0.1098  0.2335  0.0586
 9501W        W25310   2.027  10.455  14.754  0.0184  0.0904  0.1533
 9502W        W25311   0.402  14.366   4.149 -0.1663  0.1316  0.2868
 9503W        W25312   1.283  12.152   0.461 -0.1336 -0.1469 -0.0730
 9504W        W25313  12.060  15.288   1.942 -0.0778 -0.0811 -0.0720
 9505W        W25314   7.892   0.405  16.825  0.1215  0.2326 -0.0901
 9506W        W25315  14.943   9.600   2.762  0.3468  0.0830 -0.1715
 9507W        W25316  15.102   8.533   3.408  0.1305 -0.1639  0.1345
 9508W        W25317   6.136   0.858  16.344  0.0101  0.0323 -0.2117
 9509W        W25318  13.252   0.487   5.346 -0.0232 -0.1037  0.1081
 9510W        W25319   3.613  17.161   3.218  0.2095 -0.1439  0.1569
 9511W        W25320  14.911   3.902   1.094  0.1221  0.0374 -0.0260
 9512W        W25321  13.414   8.281  15.591 -0.0307  0.1860 -0.1255
 9513W        W25322   7.186  17.465   1.097 -0.2259  0.3506 -0.1719
 9514W        W25323   5.627   7.300  16.666 -0.3206  0.0587 -0.1891
 9515W        W25324   5.078  12.511   0.772  0.0469 -0.1850 -0.1673
 9516W        W25325  11.196  12.569  15.477 -0.3014 -0.1046  0.0015
 9517W        W25326   2.236   1.203  12.826  0.1918 -0.1426 -0.0532
 9518W        W25327  10.715   8.292  16.938  0.0713 -0.2356 -0.0709
 9519W        W25328  14.976  11.307  16.119 -0.2121  0.3520 -0.0329
 9520W        W25329   0.938  16.560   0.497 -0.1963 -0.0758 -0.1282
 9521W        W25330   7.567  10.692  14.175  0.1826 -0.2063 -0.0839
 9522W        W25331   2.741   2.914   6.144  0.2514  0.0871 -0.0990
 9523W        W25332  10.843   4.105   6.412 -0.1841  0.1316  0.1100
 9524W        W25333   1.460  11.581   0.449 -0.1272 -0.1129  0.3662
 9525W        W25334   9.507   7.989   2.749 -0.1485  0.1333 -0.1386
 9526W        W25335  14.456  16.664  15.189 -0.0267  0.0449  0.0585
 9527W        W25336   7.059   5.411  11.851  0.2873  0.1513  0.0608
 9528W        W25337  16.764  14.036  14.501  0.2777 -0.0056  0.2406
 9529W        W25338   8.707   1.543   4.853  0.2610  0.2004  0.0604
 9530W        W25339   3.433   6.833   0.275  0.0409  0.0575 -0.2142
 9531W        W25340  11.004   6.895   1.278 -0.0921 -0.0997  0.1100
 9532W        W25341  11.596  16.726   3.702  0.1535 -0.1364  0.1474
 9533W        W25342  17.662  13.862   3.207  0.0175  0.0208 -0.2401
 9534W        W25343   7.597  11.161  16.897 -0.0264  0.2791  0.0474
 9535W        W25344  14.112   0.148  15.681  0.3606  0.1391 -0.1076
 9536W        W25345   0.256  12.395  13.244  0.1458  0.2224 -0.2197
 9537W        W25346   8.541   6.201   6.052 -0.0258  0.1234  0.2075
 9538W        W25347   0.628   4.952   4.273 -0.2112 -0.1648 -0.3993
 9539W        W25348   1.149  15.139   3.386 -0.1364  0.1698  0.2392
 9540W        W25349  13.955   7.593   5.883  0.4330  0.1763 -0.1007
 9541W        W25350  11.981  12.471   5.405 -0.1423  0.2666  0.3890
 9542W        W25351   7.815  11.326   5.632 -0.2421 -0.0056 -0.1269
 9543W        W25352   5.302  17.632  12.762 -0.1295  0.1107  0.0283
 9544W        W25353   9.966   4.107  11.193 -0.2840 -0.2954 -0.2119
 9545W        W25354  17.273  13.327   5.772  0.0739  0.3567  0.1560
 9546W        W25355   5.012  11.063   2.327  0.0495 -0.0997  0.0310
 9547W        W25356  10.137   0.181   0.073 -0.2173  0.0457 -0.0118
 9548W        W25357  15.372  10.668   0.244  0.0364  0.1171 -0.1602
 9549W        W25358   1.413   6.881   2.246  0.1145  0.0263  0.1195
 9550W        W25359   6.514  15.003  15.238 -0.0312  0.0842 -0.0490
 9551W        W25360   1.822  16.228  15.607  0.2284  0.0531  0.2168
 9552W        W25361   4.208  14.217  16.515 -0.1375  0.4137  0.1996
 9553W        W25362   8.073   4.487   0.219  0.0838  0.0114  0.0578
 9554W        W25363  14.584   9.779   5.073 -0.1037 -0.1090  0.2276
 9555W        W25364   2.828   3.102  16.881  0.0071  0.2291  0.0834
 9556W        W25365   6.039   8.919   5.258 -0.2220 -0.0536 -0.3870
 9557W        W25366  17.722  15.711  16.962  0.0727 -0.1299 -0.2895
 9558W        W25367   8.128   1.534  14.865 -0.0839 -0.2665 -0.1231
 9559W        W25368   4.615  15.387  12.816  0.2200 -0.3418 -0.0167
 9560W        W25369   2.249   9.881  15.952  0.0464  0.0146  0.0351
 9561W        W25370  11.327   5.442   5.549  0.1492  0.0589 -0.1450
 9562W        W25371  10.791   9.148   1.544  0.1952  0.4653 -0.4424
 9563W        W25372   8.086  15.532   0.074  0.0039 -0.1899 -0.2306
 9564W        W25373  11.342   4.542   3.474 -0.0702  0.1427 -0.0102
 9565W        W25374   3.541   0.110  15.239  0.4022 -0.1012 -0.3008
 9566W        W25375  11.102  11.684  14.524 -0.0195 -0.2701 -0.3865
 9567W        W25376  15.129   2.084   3.523 -0.0426  0.0686  0.1770
 9568W        W25377   3.377   8.434  13.571 -0.3285 -0.0630 -0.0129
 9569W        W25378  15.327  16.342  12.841 -0.1517  0.1401 -0.0664
 9570W        W25379   2.105   9.417  13.754  0.2628  0.3743 -0.1677
 9571W        W25380  12.815   5.541  15.546 -0.2761  0.0009 -0.2007
 9572W        W25381  10.278   4.573   2.117 -0.0246  0.2838 -0.0930
 9573W        W25382   2.690  16.792   1.272 -0.1467  0.1804  0.0947
 9574W        W25383   3.217  16.130   2.195 -0.0065 -0.0241  0.2269
 9575W        W25384   0.421   3.681  13.265  0.0142  0.0821  0.1176
 9576W        W25385  10.993  12.853  16.284  0.0689  0.0835 -0.2821
 9577W        W25386  10.185   4.569   5.195 -0.1725 -0.1224  0.2107
 9578W        W25387  10.289   1.410   5.552  0.1594  0.3538 -0.0873
 9579W        W25388  16.315  16.949  15.112 -0.2831 -0.0160  0.2018
 9580W        W25389   1.466  17.582   2.920 -0.2076 -0.6759  0.0008
 9581W        W25390   8.379  12.337   4.500  0.2272  0.0512 -0.0766
 9582W        W25391   5.091   4.539  12.325  0.0978  0.0498 -0.0074
 9583W        W25392   3.937   2.516  13.140 -0.0077 -0.0027 -0.2641
 9584W        W25393  10.778  13.137  10.651  0.1202 -0.0608 -0.0360
 9585W        W25394   4.616  13.459  16.868 -0.0206  0.2517 -0.3177
 9586W        W25395   8.027   0.971  16.104  0.2045 -0.0822 -0.0073
 9587W        W25396  16.485   3.533   3.648  0.0998  0.1987 -0.1366
 9588W        W25397   8.531  15.833  16.901  0.0829 -0.1015 -0.1161
 9589W        W25398  10.108   9.558   3.540 -0.3482 -0.2480  0.1696
 9590W        W25399  16.542  11.157   0.521 -0.1335  0.0958 -0.0944
 9591W        W25400  16.002  10.616   2.968 -0.2556 -0.1435  0.3045
 9592W        W25401   6.701   1.811  14.523  0.1161  0.2406 -0.0690
 9593W        W25402   3.668   9.794  15.377 -0.2116 -0.2862  0.2107
 9594W        W25403   6.923   5.399   3.367  0.2108 -0.2663  0.4085
 9595W        W25404   8.981   8.061  14.178 -0.1620 -0.0025  0.0513
 9596W        W25405  17.223   9.526   0.027 -0.0420 -0.0317 -0.0372
 9597W        W25406   1.216   1.909   1.366 -0.0427  0.1712 -0.2334
 9598W        W25407   4.307   7.123   3.588 -0.1811 -0.1415  0.2459
 9599W        W25408  12.162   6.572  14.166  0.2891 -0.2452  0.0647
 9600W        W25409   8.114  17.294   0.215 -0.0263 -0.0802 -0.4118
 9601W        W25410   1.699   4.461  13.381  0.5536  0.0405 -0.1774
 9602W        W25411  16.923   9.599   0.700  0.2813 -0.2310 -0.1100
 9603W        W25412   3.796   8.551  12.761  0.1590 -0.1620 -0.0792
 9604W        W25413   3.611   0.365  12.204 -0.0659  0.3498 -0.1562
 9605W        W25414   4.581  10.177   4.496 -0.0656  0.0239  0.0504
 9606W        W25415   3.392   8.969   1.158 -0.0358 -0.2367 -0.0844
 9607W        W25416   4.896   6.428   0.300 -0.0585  0.0740 -0.2285
 9608W        W25417   4.936   6.192   5.381  0.2660  0.1633 -0.1018
 9609W        W25418  11.400  16.447  16.098 -0.1332 -0.0285  0.0532
 9610W        W25419  10.182  13.949   3.441  0.2976 -0.0050  0.1586
 9611W        W25420  10.934  14.420   2.137 -0.0387 -0.0596 -0.2442
 9612W        W25421  13.596   8.495   1.546  0.0977 -0.1129 -0.0785
 9613W        W25422  11.667  16.244  14.084 -0.2390 -0.1517 -0.0480
 9614W        W25423   0.442  14.269  13.708  0.0492 -0.0717  0.1243
 9615W        W25424  13.224   8.577   3.856  0.3281  0.4150  0.0285
 9616W        W25425   4.248   1.586  14.440 -0.0442  0.3143  0.0238
 9617W        W25426   1.437   7.335   1.011 -0.3870  0.0512 -0.0727
 9618W        W25427   4.506   2.105  15.195  0.3303 -0.2398 -0.0396
 9619W        W25428   5.774  14.516   4.988 -0.2496  0.5723 -0.2513
 9620W        W25429   7.127   3.285   2.056 -0.0151 -0.2002  0.0633
 9621W        W25430   9.648  13.669  15.635 -0.1853 -0.0543 -0.3397
 9622W        W25431   6.231   8.819  14.343  0.1464 -0.0492 -0.0202
 9623W        W25432  13.981  15.063  16.521  0.2089  0.0421  0.0365
 9624W        W25433  16.587   4.764   1.799 -0.2285 -0.0260 -0.0831
 9625W        W25434   7.416   5.902   1.135 -0.0784 -0.1376  0.1632
 9626W        W25435   0.723  13.863  16.136 -0.0773 -0.1051  0.0419
 9627W        W25436   3.468   0.853   3.649 -0.1622  0.1424  0.1591
 9628W        W25437  13.716   0.820   2.458  0.3061  0.2234  0.0732
 9629W        W25438   5.597   5.454  16.575  0.3251  0.1084 -0.0129
 9630W        W25439   9.721   0.465   4.153 -0.0025  0.0680  0.0515
 9631W        W25440   4.712   8.433   0.064  0.2690 -0.1238 -0.0929
 9632W        W25441   2.113  17.601  14.014  0.3985  0.1733  0.0677
 9633W        W25442  10.249   4.358  15.058  0.2121 -0.1688 -0.0729
 9634W        W25443   9.833  14.995  13.967 -0.2530  0.2442 -0.0987
 9635W        W25444   4.456  13.750   3.945 -0.1361  0.1997 -0.1336
 9636W        W25445  12.947  17.364  14.508 -0.1715  0.2871  0.1325
 9637W        W25446  12.738   4.710  13.146 -0.2068  0.1312 -0.0229
 9638W        W25447  15.243   3.781   3.057  0.0198 -0.0185  0.0037
 9639W        W25448  10.389   0.209   4.477  0.2338 -0.2375  0.0718
 9640W        W25449  13.198   7.892  11.419 -0.0683  0.0711 -0.0175
 9641W        W25450  11.302   5.647  12.869 -0.1802 -0.1433 -0.0309
 9642W        W25451  12.031  16.285   4.366 -0.3287 -0.0920  0.1545
 9643W        W25452   9.098   9.545   0.117  0.0612  0.1347  0.1304
 9644W        W25453  16.488   6.519   2.179 -0.0393  0.1458 -0.1457
 9645W        W25454  11.519   8.253   2.364  0.1838  0.3790 -0.2198
 9646W        W25455  14.685  14.712  11.789 -0.1024 -0.3095 -0.0335
 9647W        W25456   6.993   5.964  14.149  0.2157 -0.2167  0.0558
 9648W        W25457   8.836   3.997   4.470 -0.0572  0.1785  0.2731
 9649W        W25458  16.771  17.547   1.917 -0.0472  0.0645 -0.0387
 9650W        W25459  10.225  13.568   3.753  0.0162 -0.0939 -0.1798
 9651W        W25460  11.990  12.833   3.473  0.1117  0.2534 -0.1206
 9652W        W25461  16.329  14.526   1.068 -0.2451 -0.1106 -0.1060
 9653W        W25462  15.028   3.097  12.057 -0.0484  0.2551 -0.0693
 9654W        W25463   6.253   0.464  15.262  0.0180 -0.0924  0.1745
 9655W        W25464  13.433   5.663   0.167  0.2238 -0.0319 -0.1981
 9656W        W25465  15.854  10.796   0.058 -0.0803 -0.1462 -0.0478
 9657W        W25466   9.948   8.199  14.766  0.0707 -0.0338 -0.1477
 9658W        W25467   9.784   0.529   0.765  0.0935 -0.1138  0.0106
 9659W        W25468   5.029   0.982   3.000 -0.0785 -0.0205 -0.3682
 9660W        W25469   6.959  11.405   3.473 -0.0133 -0.1528 -0.0512
 9661W        W25470   2.094   5.096  15.172  0.2459 -0.1669  0.1277
 9662W        W25471  15.175  17.660  16.426 -0.0300  0.0345  0.1344
 9663W        W25472   7.479  12.582   4.786 -0.0691 -0.1473  0.2144
 9664W        W25473   1.806   7.255  14.526 -0.1370  0.1032  0.0307
 9665W        W25474   2.425   0.012  12.223  0.1216 -0.0819  0.0101
 9666W        W25475   2.991   7.006   2.366 -0.1330  0.2959 -0.1448
 9667W        W25476   2.290  10.319   5.102 -0.3148 -0.0795  0.0501
 9668W        W25477  13.289  15.357  11.625  0.1924 -0.1163  0.2735
 9669W        W25478  17.534  14.345  12.011 -0.2984 -0.0362  0.2949
 9670W        W25479   0.214   4.681   0.486  0.3045  0.1287 -0.0705
 9671W        W25480   0.588   8.252  12.215  0.0606 -0.1833  0.0690
 9672W        W25481  17.030   6.168   6.041 -0.1332  0.0920 -0.0969
 9673W        W25482   1.053   6.752  14.703  0.0672  0.1244 -0.0236
 9674W        W25483   7.066   7.725  13.676 -0.2495  0.0527  0.1818
 9675W        W25484  11.430  11.799  13.587 -0.3098 -0.1051 -0.1157
 9676W        W25485   6.977   9.061  11.796  0.2672  0.0236  0.1460
 9677W        W25486   1.280   1.231   6.439  0.0843 -0.2589 -0.0761
 9678W        W25487   3.381   8.750  13.185 -0.1469  0.1030 -0.2723
 9679W        W25488   0.004   9.960  15.823  0.1148 -0.1393 -0.2635
 9680W        W25489   2.434   4.847  15.525  0.1962  0.0835 -0.1049
 9681W        W25490   7.524   5.240   1.217 -0.2159 -0.2109 -0.1509
 9682W        W25491   6.264  13.394  12.201  0.0031 -0.0582 -0.0139
 9683W        W25492   3.160  15.400  13.044 -0.3564  0.1654 -0.2543
 9684W        W25493   6.341   6.992  15.952  0.1549 -0.0113 -0.0471
 9685W        W25494  14.865   6.487  13.004  0.0845 -0.5207  0.2522
 9686W        W25495   9.468   5.688   1.195  0.0441  0.0374 -0.0363
 9687W        W25496   0.019   1.707  13.368 -0.0006  0.1657  0.1685
 9688W        W25497  15.198   1.802   4.413 -0.0172  0.0167 -0.0663
 9689W        W25498  15.868   4.243   1.340  0.0768 -0.0580  0.1311
 9690W        W25499   8.137  11.310  15.759  0.0548 -0.0685 -0.0445
 9691W        W25500   2.518   8.862  12.862 -0.0451 -0.2840  0.3815
 9692W        W25501  12.632   9.804  15.287  0.2437 -0.2606 -0.3347
 9693W        W25502  17.270  10.662   5.456 -0.1120 -0.2998  0.1300
 9694W        W25503  10.474   1.784   4.748 -0.1492 -0.2411  0.2374
 9695W        W25504  16.620  13.083  12.591  0.5461 -0.1174  0.0546
 9696W        W25505  14.371  10.316   1.190  0.0689 -0.0944 -0.0358
 9697W        W25506   0.667   6.918   1.090 -0.1440 -0.0461 -0.2328
 9698W        W25507   7.008   2.430  13.491  0.0852 -0.0451 -0.2833
 9699W        W25508  12.327  11.557   0.708 -0.0726 -0.2801  0.1794
 9700W        W25509  16.044   1.733   1.286  0.0072 -0.1311 -0.1669
 9701W        W25510  10.242   0.543   0.351  0.0775 -0.3159 -0.3557
 9702W        W25511  11.009  15.949   2.901 -0.0456 -0.2388  0.2335
 9703W        W25512  13.391  15.248   1.428 -0.1833 -0.1248  0.1493
 9704W        W25513   4.601  10.798   1.914  0.3035 -0.3512 -0.1276
 9705W        W25514   0.626   4.456  12.798 -0.0332  0.0720 -0.1149
 9706W        W25515  10.737  15.971  15.524  0.0087  0.0907  0.1082
 9707W        W25516  16.887  17.551   1.416 -0.0525 -0.0345 -0.0136
 9708W        W25517  16.695   9.362  11.975 -0.1603  0.0910  0.2114
 9709W        W25518   0.524   7.380   4.184  0.3650 -0.0749  0.1878
 9710W        W25519   5.207  16.696   5.102  0.0711  0.0716 -0.0168
 9711W        W25520   5.270   5.341   5.420  0.2612 -0.1080 -0.1068
 9712W        W25521   2.166   5.927   3.914 -0.0345 -0.1480 -0.2243
 9713W        W25522  11.950   5.501  16.630 -0.1674  0.1139 -0.2776
 9714W        W25523   8.947   3.741  12.037 -0.1985 -0.2322 -0.0554
 9715W        W25524  16.616  13.488   0.195 -0.1274 -0.0446 -0.0762
 9716W        W25525   1.085  11.827   5.658 -0.3057  0.0250  0.0605
 9717W        W25526  13.905   9.716  16.588 -0.0020  0.2306  0.3618
 9718W        W25527  16.817  16.394  16.370  0.2384 -0.0842  0.0176
 9719W        W25528  11.830   3.678   3.083 -0.0367 -0.1151 -0.0376
 9720W        W25529   3.294  13.360  11.725  0.1008  0.2304 -0.0397
 9721W        W25530   3.708  15.700   4.576  0.0981 -0.0886 -0.1525
 9722W        W25531   2.548  15.827  15.020 -0.4138  0.4603 -0.0083
 9723W        W25532  16.755  10.523  16.362  0.0936 -0.2057  0.1443
 9724W        W25533  11.082  13.933   5.426  0.0973  0.3293  0.0557
 9725W        W25534   7.940  11.964   1.139 -0.4420  0.2183  0.2447
 9726W        W25535  16.511  16.513  16.857  0.1624 -0.1667 -0.0212
 9727W        W25536  11.892   7.571  14.340  0.1177 -0.0929 -0.1988
 9728W        W25537  16.330  14.748   3.301  0.1000 -0.3428  0.2610
 9729W        W25538   9.727   3.870  12.544  0.1813 -0.0951  0.1653
 9730W        W25539  10.280   2.482   5.898 -0.1026 -0.4034  0.2408
 9731W        W25540   7.594   9.163  16.600  0.0779  0.1645  0.0279
 9732W        W25541  13.666   8.128  12.161 -0.4774 -0.0931  0.0706
 9733W        W25542  15.908  14.236   1.101  0.0113 -0.0462 -0.3072
 9734W        W25543   2.591   5.848   2.122 -0.2536  0.0650  0.0630
 9735W        W25544  14.041  12.046   1.899  0.0242 -0.0647 -0.2405
 9736W        W25545  14.173   7.660  12.485 -0.1188 -0.2418 -0.0214
 9737W        W25546  16.940   0.946   3.570 -0.1488 -0.1441 -0.1944
 9738W        W25547  13.785  10.098  16.913 -0.0653  0.2258  0.1081
 9739W        W25548   6.316  15.359  15.524  0.2843  0.1190  0.1627
 9740W        W25549  17.642  13.834  11.935 -0.3188  0.0512 -0.1128
 9741W        W25550  17.322   4.893  16.120  0.1488 -0.0824 -0.1871
 9742W        W25551   9.835  13.711  16.337  0.0804  0.0843 -0.0800
 9743W        W25552   0.322   3.564   5.765  0.0881  0.2728 -0.2400
 9744W        W25553   5.986   0.730   1.399  0.1486  0.3114 -0.1333
 9745W        W25554   4.269  13.634   0.206  0.0840 -0.5143 -0.2604
 9746W        W25555  16.733  16.087   0.059 -0.1022  0.0236  0.0499
 9747W        W25556   4.858  11.341   3.154  0.2409 -0.1277 -0.3175
 9748W        W25557   7.531   5.439  11.762 -0.0704 -0.1711 -0.2850
 9749W        W25558   6.516   1.185   5.328 -0.0778  0.2420  0.0166
 9750W        W25559  11.713   5.132   0.641  0.0137  0.0742 -0.2009
 9751W        W25560   5.830  16.649   5.071  0.1319  0.2695 -0.4202
 9752W        W25561  12.525  14.845   2.623 -0.3363  0.1141  0.1473
 9753W        W25562   6.356  16.850  16.215  0.1189  0.0540 -0.1606
 9754W        W25563  16.959   2.608  15.123  0.0147 -0.1059  0.0582
 9755W        W25564   4.162  10.750   2.211  0.1396  0.1253  0.3354
 9756W        W25565  11.007  13.874   3.087 -0.1788 -0.0167  0.0457
 9757W        W25566   4.914  12.476   4.855  0.1174 -0.0325  0.0290
 9758W        W25567   0.802   4.624   3.723 -0.0785  0.3191  0.1844
 9759W        W25568   3.587   8.705  12.306 -0.0924  0.1215 -0.4328
 9760W        W25569   1.801   3.492  14.446  0.0142  0.0270  0.3937
 9761W        W25570   6.231  11.464   3.602  0.1174 -0.0755 -0.3343
 9762W        W25571   5.898   2.643   6.010  0.3011 -0.0699 -0.1339
 9763W        W25572   6.487   7.095  11.988  0.2005  0.1011  0.0601
 9764W        W25573   2.586  16.153  12.227 -0.2916  0.1706  0.1940
 9765W        W25574   2.364  16.186   1.988 -0.0328 -0.2467 -0.0359
 9766W        W25575  14.181  15.172   1.201 -0.0371 -0.0808 -0.3207
 9767W        W25576   2.771  16.985   6.622  0.2542  0.2452  0.0706
 9768W        W25577   0.264  11.361  16.998 -0.0855  0.2827 -0.0993
 9769W        W25578  14.649  10.233   2.536 -0.2108  0.1032  0.0369
 9770W        W25579   4.966   1.416  12.691  0.0514 -0.2574  0.1229
 9771W        W25580   6.290   7.357   2.303  0.0175  0.1434 -0.1422
 9772W        W25581   5.892  17.435   4.699 -0.0736  0.0942 -0.2679
 9773W        W25582  10.602  10.507   4.428  0.2843  0.2716 -0.0704
 9774W        W25583  13.168  14.402   1.191 -0.3583  0.1186  0.0587
 9775W        W25584   1.945  11.169  13.276 -0.0196  0.1819 -0.0077
 9776W        W25585  12.553  11.612  16.762  0.3124  0.0511 -0.1192
 9777W        W25586  16.130   1.488  16.636 -0.2854  0.0907 -0.3842
 9778W        W25587   0.200   6.166   5.995  0.3788  0.2185 -0.3625
 9779W        W25588   7.377  13.552  14.205 -0.1104 -0.2092 -0.1243
 9780W        W25589   0.353  16.979   0.894 -0.1819 -0.1681  0.3682
 9781W        W25590  11.190   2.185  12.311  0.0429 -0.1036 -0.1268
 9782W        W25591   7.066   4.052  12.502 -0.2276 -0.0157  0.2019
 9783W        W25592   5.663   9.487  15.604  0.1113  0.1437 -0.1486
 9784W        W25593  11.617  10.185  14.222  0.0916  0.2112 -0.1070
 9785W        W25594   5.110   0.214  15.463  0.1928 -0.0262 -0.0427
 9786W        W25595  17.286   9.321   0.609  0.2588  0.1663 -0.0507
 9787W        W25596  11.901  12.486  11.540 -0.0011 -0.1929 -0.0203
 9788W        W25597  12.619   8.517   1.384 -0.2926  0.1943 -0.0298
 9789W        W25598  13.583  12.209  16.613 -0.1599 -0.0541  0.1979
 9790W        W25599  17.327   0.830   0.043 -0.1300  0.0896  0.0712
 9791W        W25600  11.405   6.337   4.245  0.2432 -0.3523  0.1616
 9792W        W25601  14.240   8.033  15.038 -0.0829 -0.1732  0.0920
 9793W        W25602  11.108  15.732  11.443 -0.1979  0.0767  0.0859
 9794W        W25603  16.758   6.069   4.319 -0.1361  0.0809  0.2732
 9795W        W25604  10.973   9.684   6.078  0.0826  0.1149 -0.0732
 9796W        W25605   0.211   9.265  12.963 -0.4069 -0.1106 -0.1146
 9797W        W25606  11.344  14.695  10.800 -0.0606 -0.1906 -0.1453
 9798W        W25607  14.712   9.693   4.244  0.0206 -0.1079 -0.1278
 9799W        W25608  16.512   6.823   3.215 -0.1648 -0.0658  0.1269
 9800W        W25609   2.600   5.658  14.500 -0.0478  0.0672 -0.0111
 9801W        W25610   5.943  11.394  11.813 -0.1130 -0.0655 -0.0341
 9802W        W25611   6.248  15.968   4.629  0.0320  0.0260  0.2543
 9803W        W25612   3.317   7.139   0.734 -0.0847  0.0386 -0.1268
 9804W        W25613  17.075   2.481  16.395 -0.1408  0.0544 -0.1658
 9805W        W25614  11.616  10.575  15.326 -0.0965 -0.1526 -0.0229
 9806W        W25615   5.954   7.360  15.655 -0.0781  0.2035  0.2377
 9807W        W25616  11.909   8.981   0.622 -0.2877  0.0016 -0.0772
 9808W        W25617   9.326   3.194  12.878  0.0168  0.0849  0.0093
 9809W        W25618   0.538   4.409  14.703 -0.3444 -0.1585  0.1710
 9810W        W25619  11.939   7.435   0.668  0.2745 -0.1084 -0.1304
 9811W        W25620  12.207   4.772   2.201  0.1388 -0.4251  0.0157
 9812W        W25621   2.351   2.675  14.695 -0.3144  0.0400 -0.1135
 9813W        W25622   2.425   5.026   4.150  0.0456 -0.2218  0.3249
 9814W        W25623   3.736  11.714   5.533 -0.0706 -0.1237  0.2319
 9815W        W25624  15.216  12.937  14.814  0.0188  0.0864  0.1648
 9816W        W25625   1.157  16.347   4.369 -0.1411  0.0739 -0.2291
 9817W        W25626   8.620  13.998   2.592  0.0569  0.2561 -0.1313
 9818W        W25627   6.137   9.938   5.903 -0.0924  0.2167 -0.2418
 9819W        W25628   6.452   2.597  16.984 -0.0497 -0.0199  0.1723
 9820W        W25629   0.439   7.776  15.490  0.1509  0.0408  0.4083
 9821W        W25630   8.207   3.373   1.476  0.0503  0.1104  0.3742
 9822W        W25631   8.023  13.653  10.895 -0.2734  0.1102 -0.3088
 9823W        W25632   3.277   6.271   5.530 -0.1007 -0.0688  0.0448
 9824W        W25633   0.896   7.442   0.071  0.0029 -0.0914  0.0549
 9825W        W25634  11.074  11.505  13.790 -0.2833  0.0266 -0.1821
 9826W        W25635  13.106   0.952  16.922  0.1930 -0.1472  0.0866
 9827W        W25636  12.928   0.478  15.032 -0.1160 -0.1508 -0.0637
 9828W        W25637   4.408   6.049  14.219  0.0480 -0.0238 -0.0119
 9829W        W25638   0.339   2.114  15.935 -0.3427 -0.1224  0.3038
 9830W        W25639  11.045  15.779  15.901  0.1716  0.0668  0.0275
 9831W        W25640   6.300   1.949  15.538 -0.0994  0.1950 -0.0080
 9832W        W25641   2.872  10.229   5.802  0.0685  0.3041  0.0222
 9833W        W25642   1.576   6.769  14.728  0.0179  0.3040  0.4477
 9834W        W25643  13.084   7.031   4.755 -0.1324  0.0385  0.0934
 9835W        W25644   0.786   7.385   0.928  0.3579 -0.1947 -0.0123
 9836W        W25645   3.600  14.649  14.526  0.2002 -0.0097  0.0561
 9837W        W25646   7.523   5.826   4.581 -0.0552  0.0896  0.1389
 9838W        W25647   7.635   0.904  15.750  0.1999 -0.2809 -0.1071
 9839W        W25648   6.008   7.040   1.236 -0.2620 -0.0283  0.1138
 9840W        W25649   9.308  12.110   4.168 -0.2299 -0.0822 -0.0986
 9841W        W25650   4.479  16.694   0.857 -0.4154  0.1001 -0.2682
 9842W        W25651  12.814  14.531  15.891  0.0655 -0.2360 -0.3831
 9843W        W25652   8.814  14.689   0.974 -0.0889 -0.1551 -0.2386
 9844W        W25653   2.839  17.113  16.764 -0.1270 -0.0805 -0.1608
 9845W        W25654   4.672   6.182   1.391 -0.3154  0.3757 -0.1265
 9846W        W25655   5.526   9.974  11.756 -0.1608 -0.3336 -0.0032
 9847W        W25656  17.020   1.149   4.941 -0.1302  0.1437 -0.0520
 9848W        W25657  13.945  16.603   0.475 -0.0595 -0.3167 -0.2946
 9849W        W25658  16.699  10.779   3.277 -0.1255 -0.0928 -0.1578
 9850W        W25659  13.220   6.234  14.961  0.4112 -0.0972  0.0335
 9851W        W25660  11.083  10.200  16.376 -0.1548  0.1038 -0.1145
 9852W        W25661  10.535  11.500  13.107 -0.2435  0.2151  0.0602
 9853W        W25662   2.235   7.995   3.144 -0.1120  0.0860  0.0941
 9854W        W25663   5.749   3.868  14.531  0.2147 -0.1643  0.2083
 9855W        W25664   9.044   8.967  11.841  0.1093  0.1023  0.0768
 9856W        W25665   8.532  14.640  12.755 -0.0149  0.1950 -0.1943
 9857W        W25666   0.047  14.930   3.474  0.1894 -0.1726  0.2952
 9858W        W25667   3.685   4.972  12.923  0.0275  0.0654 -0.2305
 9859W        W25668   5.578  16.062  11.668 -0.0688 -0.2756  0.1839
 9860W        W25669   7.837  15.611   3.574 -0.0824  0.2080  0.0188
 9861W        W25670  13.326   2.001  15.468 -0.3098 -0.3467  0.0676
 9862W        W25671  11.795   1.596   5.334 -0.2807 -0.0528 -0.4184
 9863W        W25672  12.049   1.470  13.395 -0.0949  0.1367 -0.1126
 9864W        W25673   8.027  13.177  13.687  0.3641 -0.0607  0.1410
 9865W        W25674   8.760   3.154  12.756  0.2308  0.0495 -0.0815
 9866W        W25675   9.173   3.607  16.601  0.1652 -0.0013 -0.2624
 9867W        W25676   3.880  13.992   0.102 -0.2121  0.1727 -0.0030
 9868W        W25677   7.733  12.580  14.567 -0.1363 -0.3799 -0.1664
 9869W        W25678   8.954   2.758   6.548 -0.0760  0.2173 -0.1686
 9870W        W25679  17.703  11.141  13.284 -0.0805 -0.0364 -0.1318
 9871W        W25680  10.734  14.033   5.852  0.0937 -0.2325  0.0639
 9872W        W25681   0.158   2.186  13.199 -0.0962 -0.3232  0.3447
 9873W        W25682  16.893   2.399  12.228 -0.3040  0.0577 -0.0259
 9874W        W25683   3.673   1.989   2.625  0.0476 -0.0907 -0.0377
 9875W        W25684   7.659   2.397   2.155  0.2866 -0.2146  0.0630
 9876W        W25685   1.612  17.360  14.408 -0.2399 -0.0442 -0.1534
 9877W        W25686  17.090   9.360   1.585  0.1086  0.2680  0.0356
 9878W        W25687  11.914   4.931  16.222 -0.0369 -0.2164  0.1229
 9879W        W25688   7.664   5.855   0.365  0.1182  0.1031  0.1172
 9880W        W25689  12.690  14.288  16.777  0.0585  0.3109 -0.0482
 9881W        W25690   9.696   9.199  12.577 -0.1063  0.0152  0.0027
 9882W        W25691  15.471  13.522   2.901  0.1503 -0.0321  0.2777
 9883W        W25692   0.655  10.388   0.713 -0.1091  0.4033 -0.0308
 9884W        W25693   0.903  16.161   2.023 -0.1673 -0.0403 -0.1022
 9885W        W25694   9.359   6.572   1.539  0.0902  0.2080 -0.1970
 9886W        W25695   6.289  15.519  16.941  0.1342  0.0226  0.2463
 9887W        W25696   6.399  17.509  13.561  0.0143  0.1761  0.1201
 9888W        W25697  11.375  17.518   3.373  0.0394  0.3174  0.1616
 9889W        W25698   5.036   7.497   2.422 -0.0155 -0.3413  0.0720
 9890W        W25699   9.929  11.228  13.935 -0.0772 -0.0339  0.0433
 9891W        W25700   7.037   6.688   5.208 -0.2160  0.1032  0.0695
 9892W        W25701  10.111   3.967   4.217  0.0235  0.0523 -0.2714
 9893W        W25702  12.444  14.138   4.790  0.0876 -0.3653  0.0072
 9894W        W25703  10.885   1.355   5.138  0.0354  0.1913  0.1534
 9895W        W25704   1.110  11.250  11.952 -0.0879 -0.0618  0.0236
 9896W        W25705   0.565   7.355  16.714  0.0979  0.2465  0.0649
 9897W        W25706   2.957   6.450   3.697  0.2033 -0.1396  0.0446
 9898W        W25707   6.581   9.833   5.204  0.1412  0.1461 -0.0863
 9899W        W25708   2.613   3.962   3.088 -0.0571 -0.1295 -0.1509
 9900W        W25709  14.738  17.093  14.383  0.0606 -0.0362 -0.0095
 9901W        W25710  12.597   3.251  15.173  0.0087  0.0807  0.3025
 9902W        W25711  12.012   9.878   1.635 -0.0725  0.3262  0.1748
 9903W        W25712  17.498  17.204  13.401 -0.0472  0.0831  0.0760
 9904W        W25713  11.888   7.234   2.181 -0.0501 -0.1444  0.0671
 9905W        W25714   0.256  10.699  12.640  0.1146  0.0525  0.3033
 9906W        W25715   1.775  16.070  12.698  0.2734  0.1623 -0.2609
 9907W        W25716  13.518  12.754  14.502 -0.1793 -0.0050  0.0583
 9908W        W25717   3.369   1.525   6.193 -0.0252 -0.0393 -0.3046
 9909W        W25718   8.171  10.125  14.883 -0.0426  0.0514 -0.0034
 9910W        W25719   1.778   5.569  15.062  0.3675 -0.1730 -0.1824
 9911W        W25720   1.199  15.566  15.852  0.0748  0.2434 -0.1250
 9912W        W25721   7.837   8.792  12.147 -0.0235 -0.1009  0.2908
 9913W        W25722  16.391   2.758  15.862  0.2274 -0.1702 -0.1117
 9914W        W25723   1.143  15.409   4.270  0.4246  0.1361  0.0059
 9915W        W25724   4.789   0.480   3.369  0.0848  0.0835 -0.1764
 9916W        W25725  11.507  14.088  12.296 -0.0612 -0.0065  0.1396
 9917W        W25726   3.927   4.108   2.574  0.0175  0.1987 -0.1561
 9918W        W25727  14.034  10.334  12.200  0.0380 -0.0276 -0.0628
 9919W        W25728  11.678   7.142  16.975  0.1921 -0.2180  0.0177
 9920W        W25729  12.074   9.447  14.015  0.5319  0.0169 -0.2823
 9921W        W25730   6.292  15.619  15.924 -0.0478  0.0481 -0.1276
 9922W        W25731   7.445   3.231   5.353  0.1134 -0.1046  0.0505
 9923W        W25732   5.631  17.649   0.734 -0.1641 -0.0412 -0.1983
 9924W        W25733  16.639   1.980  11.979  0.1813 -0.1649 -0.2719
 9925W        W25734   1.270   8.406  12.882  0.2059 -0.1578 -0.0265
 9926W        W25735   9.823   2.930   4.721 -0.2659  0.0215 -0.0524
 9927W        W25736   0.468   2.982  16.137  0.3287  0.0581 -0.2884
 9928W        W25737   5.908   8.147   4.592 -0.1920 -0.0564 -0.0628
 9929W        W25738   3.589   0.662  16.390 -0.0128  0.2484 -0.0663
 9930W        W25739   6.556  14.981   4.562 -0.0644  0.3312  0.1478
 9931W        W25740  17.544   6.901  13.141 -0.1761 -0.0451  0.2360
 9932W        W25741  10.362  16.352  13.408 -0.0489  0.0326  0.1381
 9933W        W25742   4.617  11.217   5.430 -0.0609 -0.2117 -0.2066
 9934W        W25743   0.540   3.406   0.288 -0.1752 -0.2739 -0.2536
 9935W        W25744  15.683   9.865   1.624  0.2232 -0.3658  0.1889
 9936W        W25745   7.352   2.995  12.996  0.2401 -0.0674  0.1317
 9937W        W25746  11.972   0.951  12.236  0.0364  0.0560  0.1850
 9938W        W25747  17.428  14.498  13.365  0.4027  0.2173  0.2128
 9939W        W25748   4.125  16.020  14.264  0.2158 -0.1079  0.1901
 9940W        W25749   6.356  11.165  14.491 -0.2879  0.1253  0.0757
 9941W        W25750  14.754   1.769   4.709 -0.1477 -0.2688  0.1612
 9942W        W25751   3.960  10.853  14.711 -0.1527  0.0392 -0.1774
 9943W        W25752  12.249  15.263   5.308 -0.0617 -0.0867 -0.1648
 9944W        W25753   8.933  13.915   3.110  0.4546 -0.3570 -0.0619
 9945W        W25754  17.662  16.633  14.694  0.1380 -0.3205 -0.0439
 9946W        W25755  13.099  11.185   0.927  0.1591  0.2691 -0.1229
 9947W        W25756   1.068  12.249  11.528  0.1559  0.0881 -0.1078
 9948W        W25757  11.168   5.021  12.794 -0.0330 -0.1099 -0.2158
 9949W        W25758   5.016   9.316   4.142 -0.2218 -0.0081  0.3758
 9950W        W25759   7.917  14.329  14.219  0.0024  0.1948  0.0780
 9951W        W25760   4.471   6.935  14.637  0.2902  0.2006 -0.1156
 9952W        W25761   4.900  12.759   2.877 -0.0018 -0.0728  0.1562
 9953W        W25762   4.124  14.547   3.232 -0.0263  0.0584 -0.0315
 9954W        W25763   1.669  10.474   0.916 -0.3521  0.2773  0.1760
 9955W        W25764   7.949   8.332  13.795 -0.1033 -0.4602 -0.1444
 9956W        W25765   0.468  12.970   0.395  0.3065 -0.1279 -0.3645
 9957W        W25766   3.974  10.858   5.677 -0.2064  0.2769 -0.0245
 9958W        W25767   1.109  10.355   4.749  0.1952  0.2036  0.2056
 9959W        W25768   4.699   6.231  10.671  0.2241 -0.0971  0.0112
 9960W        W25769  10.857  12.521  14.575  0.1426 -0.1119  0.1514
 9961W        W25770   2.518   4.433   2.989  0.0764 -0.3986  0.0593
 9962W        W25771   8.631   6.787  12.034  0.0042  0.0071  0.2118
 9963W        W25772  17.613  17.193  16.938 -0.0775 -0.2723 -0.0423
 9964W        W25773  17.173   4.503   1.521 -0.2051  0.0290 -0.3928
 9965W        W25774   3.280   2.746   1.307 -0.0028  0.2698 -0.2057
 9966W        W25775   6.923   6.137   1.868 -0.0075 -0.2312 -0.1095
 9967W        W25776   6.303  10.363   5.441  0.1215  0.1365  0.2280
 9968W        W25777   6.872  12.952   2.956  0.0339 -0.0606 -0.0393
 9969W        W25778  13.510  13.507  12.898 -0.0144 -0.2297 -0.0318
 9970W        W25779   7.908   8.371  14.748  0.1875 -0.1437  0.2128
 9971W        W25780  14.402   8.017  11.767  0.0290  0.1449 -0.1092
 9972W        W25781   1.786   7.161  12.172  0.1040  0.2116 -0.0852
 9973W        W25782   7.096  15.612   1.588  0.1861  0.1817 -0.0192
 9974W        W25783   7.199  11.917   4.002  0.1201  0.1191  0.0314
 9975W        W25784   7.367   3.388  16.808  0.2991  0.1406  0.1281
 9976W        W25785  16.216  14.834   4.857  0.0866  0.2539 -0.0769
 9977W        W25786   8.879   9.315   2.626 -0.1651 -0.1195 -0.1085
 9978W        W25787  16.298   0.478   0.602  0.0730 -0.0917  0.1190
 9979W        W25788   5.584   3.061  16.752  0.0589  0.1846 -0.0108
 9980W        W25789  11.416  16.538   2.342  0.0164 -0.1638  0.1775
 9981W        W25790   5.985  13.282   4.592  0.2358 -0.3537 -0.3240
 9982W        W25791  13.049   5.686   3.116  0.2324  0.1285 -0.1295
 9983W        W25792   9.457   0.941   3.324  0.1734  0.2656 -0.0902
 9984W        W25793  10.712   3.141   2.431  0.3842 -0.2907 -0.3474
 9985W        W25794  12.160   4.668  15.555 -0.0680  0.0463 -0.2125
 9986W        W25795   9.848  11.954  13.038  0.1390  0.0297  0.0176
 9987W        W25796  16.147   2.784  16.663 -0.1387  0.1638  0.0357
 9988W        W25797   5.455  17.134   3.417  0.0493 -0.0221  0.0508
 9989W        W25798   3.635   4.831   4.591  0.1031  0.0789  0.3828
 9990W        W25799  16.723   9.139  16.812  0.4575  0.1779  0.0606
 9991W        W25800  13.556   5.902  16.744  0.1604  0.0226 -0.0773
 9992W        W25801   1.242  11.946   0.952  0.1987 -0.0687 -0.0675
 9993W        W25802   3.140  16.539   0.037  0.0666  0.0651 -0.1580
 9994W        W25803  17.721  12.671  14.737 -0.1719 -0.0065 -0.0880
 9995W        W25804   6.018   3.947   2.886 -0.0045 -0.2494 -0.1411
 9996W        W25805   1.009   4.083   0.464 -0.1369 -0.1061 -0.0013
 9997W        W25806   6.054   4.839  12.365  0.1698 -0.1665  0.2485
 9998W        W25807   0.648   6.416   5.931 -0.1949  0.0316  0.2702
 9999W        W25808   5.870   0.443   6.272 -0.1719 -0.1301  0.0950
10000W        W25809  13.368   5.025   3.083  0.1156 -0.0898 -0.1753
10001W        W25810  13.675  13.961  16.863  0.1229 -0.0003  0.1954
10002W        W25811   6.119  13.851   3.007  0.0341  0.3656 -0.3940
10003W        W25812  14.266  16.513  16.091 -0.1468 -0.1805 -0.4128
10004W        W25813   5.787   1.740  14.260 -0.0754  0.1745  0.0251
10005W        W25814   4.932   8.526   5.570  0.3016  0.0262 -0.1456
10006W        W25815   2.461  13.495   4.983  0.1868 -0.0586 -0.1656
10007W        W25816  11.009  15.377   5.976 -0.2885  0.2436 -0.2490
10008W        W25817   0.307   0.888   1.278 -0.0055 -0.0622 -0.0605
10009W        W25818  13.336   5.338   4.370  0.0389  0.3802 -0.2611
10010W        W25819   3.892  16.383  16.422 -0.1010 -0.2589 -0.0511
10011W        W25820   1.582  15.109   3.704  0.3978 -0.2111 -0.0107
10012W        W25821  12.479  14.506   4.348  0.0395  0.2852 -0.1460
10013W        W25822  16.412   3.344   2.642 -0.1546  0.0280 -0.0153
10014W        W25823   7.557  10.736   2.827 -0.1149 -0.1012 -0.0921
10015W        W25824  17.707   9.757  16.247 -0.1216 -0.1716 -0.1044
10016W        W25825  12.915   5.213  12.692 -0.2586  0.0202 -0.0938
10017W        W25826   9.078  16.066  11.924 -0.0450 -0.2231  0.1437
10018W        W25827   3.799   8.258   0.106  0.2179 -0.0387  0.2325
10019W        W25828   4.304  10.330  16.678  0.0616 -0.2169 -0.0519
10020W        W25829   0.795   2.487  16.115 -0.2082 -0.0257 -0.1067
10021W        W25830   0.237  13.225   2.685 -0.0292 -0.0453  0.0611
10022W        W25831   6.517  10.076  14.195  0.1623 -0.0209 -0.2294
10023W        W25832  13.141   5.451   0.521  0.0487  0.0024 -0.1689
10024W        W25833  16.013   4.327   5.705 -0.0621  0.0466 -0.3072
10025W        W25834  12.594  10.257  14.515 -0.1414 -0.0767  0.2726
10026W        W25835   5.792   1.927  16.230 -0.0931 -0.0882  0.3480
10027W        W25836  12.500   7.448   3.294  0.0473 -0.1899 -0.0030
10028W        W25837  16.671   4.611  16.483  0.0335 -0.0861  0.3140
10029W        W25838  16.364   3.212   0.868  0.3121 -0.2688  0.1465
10030W        W25839  11.630  13.307  11.867 -0.0754  0.1306  0.1454
10031W        W25840   5.696  11.113   0.299 -0.2427  0.1558  0.0246
10032W        W25841  15.042  11.688  13.902  0.2527  0.1009  0.1582
10033W        W25842   3.618   2.838  12.849  0.1063  0.1827  0.0584
10034W        W25843  11.558   6.582  14.924  0.3607 -0.0994  0.3523
10035W        W25844  16.782   4.063  13.052 -0.2819 -0.0289  0.0905
10036W        W25845   0.280   7.973   3.380  0.2006 -0.2151 -0.1363
10037W        W25846   5.390   0.368   6.535 -0.0075  0.1869 -0.0117
10038W        W25847   2.345   9.625  13.277  0.1479 -0.0533  0.0786
10039W        W25848  14.603  15.461   1.508 -0.2330 -0.2470  0.1960
10040W        W25849  16.903  16.043   3.601 -0.0416  0.2866  0.0997
10041W        W25850  10.197   3.030  12.050 -0.1443  0.0692 -0.0036
10042W        W25851   1.355   9.109  12.661 -0.2510  0.0798 -0.0480
10043W        W25852  14.383   9.583  13.247 -0.0096 -0.0087  0.0992
10044W        W25853   8.315   4.113   2.205  0.0556 -0.2031  0.1564
10045W        W25854   4.326  13.743  15.274  0.3588  0.4229 -0.1941
10046W        W25855  16.916  11.026   1.928 -0.1352  0.3712 -0.2771
10047W        W25856   5.341   2.216   2.771  0.2040 -0.0823 -0.1503
10048W        W25857  11.815   4.189   3.351  0.1394 -0.3242 -0.1065
10049W        W25858  15.126  13.997   2.328 -0.0839  0.2162  0.0192
10050W        W25859  11.842   0.318  15.035 -0.0516  0.2348  0.1422
10051W        W25860   4.237  16.507   0.496 -0.0578  0.0341 -0.1686
10052W        W25861   3.927   6.741   0.131  0.0931 -0.0851  0.1439
10053W        W25862  11.243   5.066   2.228 -0.0117 -0.2601 -0.3242
10054W        W25863  12.691   5.486   0.362 -0.3676 -0.2280  0.3370
10055W        W25864   8.934  10.364   3.100 -0.2524  0.4662  0.0391
10056W        W25865   2.221  15.306  11.758 -0.1992 -0.0513  0.0197
10057W        W25866  11.193  12.512   3.935  0.0347 -0.2006 -0.1756
10058W        W25867  14.359   8.843   3.145  0.0156  0.0111 -0.0099
10059W        W25868   6.996   4.731   5.364  0.0516  0.1187  0.0973
10060W        W25869  14.787   7.182   5.102 -0.1566 -0.2196 -0.0820
10061W        W25870   0.969   5.529  16.357 -0.2833 -0.2105 -0.2319
10062W        W25871   6.840   5.018   0.625 -0.1365  0.1486  0.1779
10063W        W25872   8.667   5.597  16.823 -0.2253 -0.0938  0.0937
10064W        W25873  12.752   4.946   1.330 -0.0414  0.0843 -0.1795
10065W        W25874   5.784   9.320  15.140  0.0022 -0.1205 -0.0751
10066W        W25875  12.161   7.594  16.291 -0.2260  0.1464 -0.1302
10067W        W25876   7.098   5.280   6.579  0.2274 -0.0756 -0.2828
10068W        W25877   8.762   5.428  13.639  0.0626  0.1207  0.1219
10069W        W25878  17.255   0.951   2.164  0.2131  0.2440 -0.2948
10070W        W25879   5.409  14.804   3.911 -0.1917 -0.1095  0.0674
10071W        W25880  15.545  15.926  11.970  0.1494 -0.1850  0.0312
10072W        W25881  13.785  11.628   4.453  0.1747 -0.0468  0.1504
10073W        W25882   3.728  11.008   2.236 -0.0349 -0.0250 -0.0675
10074W        W25883  15.187  10.704   1.392 -0.1190  0.1480 -0.0715
10075W        W25884  16.154  13.309   3.849 -0.3979  0.2568 -0.0053
10076W        W25885  13.754  12.706  13.289 -0.0276  0.0034  0.2601
10077W        W25886   9.039   4.890  16.469 -0.1936  0.3666 -0.0665
10078W        W25887   4.168   6.239   4.747 -0.0396 -0.2362 -0.0641
10079W        W25888  11.144  16.206   0.864 -0.0046 -0.0412  0.0424
10080W        W25889  16.235   8.340  12.641 -0.0174  0.0983  0.4150
10081W        W25890   9.494   8.764   1.459 -0.2386 -0.0275  0.3737
10082W        W25891   1.747   9.666  16.764  0.0898  0.0084 -0.0325
10083W        W25892   3.722  13.166  16.699  0.3889  0.0006 -0.2869
10084W        W25893  10.203  17.081  11.272 -0.3269 -0.1294  0.2235
10085W        W25894  17.087  14.779   1.888  0.1095 -0.3667 -0.0460
10086W        W25895  12.354   6.339   1.001 -0.0298  0.2182 -0.2646
10087W        W25896   5.975  13.966   2.083  0.1053  0.1461  0.1024
10088W        W25897   8.297  10.116   5.868 -0.0129 -0.1199  0.2071
10089W        W25898  10.338  13.144  11.036  0.1277  0.2596 -0.0923
10090W        W25899   7.050  12.293   1.317  0.0513 -0.2062 -0.1094
10091W        W25900  10.814  13.327   3.729  0.2149  0.0558  0.5014
10092W        W25901  11.843  10.291  15.742 -0.1430  0.4323  0.0437
10093W        W25902   0.963   9.448  15.573  0.1429 -0.1059 -0.0558
10094W        W25903   9.838   3.961   6.467  0.0690  0.1415  0.2696
10095W        W25904  14.417  13.094   2.270  0.2432  0.3038  0.2096
10096W        W25905   7.382   2.657   3.510 -0.1128  0.2196  0.1048
10097W        W25906   2.064   4.001  15.229 -0.0392  0.0422 -0.1500
10098W        W25907   7.438   1.877   4.608  0.2764  0.1815 -0.2854
10099W        W25908  13.467  15.542   5.249  0.0636 -0.0315 -0.2031
10100W        W25909   3.289   0.739  11.165 -0.1739 -0.1233  0.2205
10101W        W25910   3.800   2.190   2.166  0.1781  0.1692  0.1433
10102W        W25911   8.258  12.358   3.324  0.2078 -0.1832 -0.2275
10103W        W25912  16.380  10.850   0.175 -0.1067  0.1020 -0.2473
10104W        W25913  11.901   3.583  13.982  0.3361  0.2184  0.1139
10105W        W25914  14.958  17.042  11.608 -0.0088  0.0989  0.0159
10106W        W25915   5.354   7.713  12.503  0.0419  0.2816 -0.2237
10107W        W25916   0.115  12.541  11.778  0.1628 -0.1017 -0.0122
10108W        W25917   8.571   4.327   4.725 -0.1821 -0.1032  0.0443
10109W        W25918  11.460  16.943  12.305  0.0104 -0.0794 -0.2081
10110W        W25919  13.278  15.750   4.225 -0.2722 -0.1108  0.0570
10111W        W25920  13.815  12.705  16.428 -0.1769  0.2038  0.2810
10112W        W25921  12.791  13.653  13.921  0.0073 -0.3080 -0.0378
10113W        W25922   7.648  17.544  15.946 -0.1623 -0.0412  0.2617
10114W        W25923   3.377   9.955   1.469 -0.1601  0.1048 -0.0073
10115W        W25924   5.771  14.784   1.962  0.0989  0.0424 -0.1371
10116W        W25925   4.515   5.689   6.791  0.1765  0.0399  0.3180
10117W        W25926  14.847   6.820  13.955 -0.0441 -0.0592  0.1078
10118W        W25927   1.141   4.982   3.584  0.0104  0.2423 -0.0210
10119W        W25928   3.336  12.757  15.426 -0.0904  0.0112  0.0826
10120W        W25929   0.269  15.291  13.907 -0.0642  0.0772  0.3180
10121W        W25930   7.958   6.146  11.745  0.1681  0.2391  0.1273
10122W        W25931   5.030   3.510  12.648 -0.1614 -0.2323  0.0618
10123W        W25932   0.370   2.416  12.763  0.2953  0.0045 -0.3487
10124W        W25933   8.165  17.010   1.084  0.0082  0.4225  0.1945
10125W        W25934   9.515   7.067  13.284 -0.2192 -0.2958 -0.0573
10126W        W25935  12.094  11.261  11.018  0.0778 -0.1078 -0.1251
10127W        W25936  10.895  12.715  13.556 -0.1195 -0.0890  0.4363
10128W        W25937   0.311  12.672  15.301 -0.1705 -0.0036 -0.1602
10129W        W25938   7.891   2.759  12.326  0.1637 -0.0268  0.2187
10130W        W25939   7.027   8.700  12.221  0.3407  0.0952 -0.1779
10131W        W25940   3.698   7.596   5.221  0.0338  0.2343  0.0581
10132W        W25941  12.924  12.809   2.411 -0.0442 -0.0250 -0.0630
10133W        W25942   5.706  12.693  14.291  0.3025  0.0757  0.1118
10134W        W25943   0.887  15.899  16.043  0.3634 -0.0136  0.2457
10135W        W25944  14.692   4.812   1.407 -0.0150  0.0120 -0.2687
10136W        W25945  11.267   4.616  15.396  0.4159  0.2719 -0.2681
10137W        W25946   5.227  17.374   0.905  0.1482  0.0718  0.2020
10138W        W25947   8.602   5.361  14.944 -0.0866 -0.1942  0.0742
10139W        W25948  11.334   1.881   0.205 -0.2037  0.0188  0.2345
10140W        W25949  14.103   2.992   5.710 -0.2131 -0.0721 -0.0925
10141W        W25950   3.861  12.770   1.999 -0.0728 -0.2857 -0.0952
10142W        W25951  13.707  14.602  11.942 -0.1228  0.0852  0.1459
10143W        W25952   9.146  11.991   2.891  0.0347 -0.0302  0.1120
10144W        W25953  17.286   2.044   4.609  0.1595 -0.0197  0.0559
10145W        W25954   4.501  17.723  12.428 -0.0003 -0.0744  0.2929
10146W        W25955  15.779  16.767  11.843  0.4188 -0.1717 -0.2201
10147W        W25956  13.752   0.571  13.758  0.1183  0.0294 -0.0743
10148W        W25957   9.554   2.588   1.420 -0.0049  0.1293  0.0051
10149W        W25958  10.703   1.503  15.004 -0.1657 -0.3499 -0.1900
10150W        W25959  13.439   0.201   0.851  0.0561  0.1009 -0.1085
10151W        W25960   2.164   5.259   3.325 -0.0680  0.2710  0.0609
10152W        W25961  14.563  12.724  12.675  0.0927 -0.1524 -0.1023
10153W        W25962  14.487   2.523  13.915  0.0523  0.0961  0.1617
10154W        W25963   7.007   9.787   5.506 -0.0578 -0.2115 -0.1249
10155W        W25964   7.055   0.093  16.387 -0.1182  0.1768  0.1751
10156W        W25965  15.824  16.432   3.279  0.0816 -0.2145 -0.1064
10157W        W25966   0.058  14.661  12.734  0.0441  0.1753  0.0643
10158W        W25967   0.536   9.670  12.774  0.1444 -0.1989 -0.0331
10159W        W25968  16.366   1.985   4.600 -0.2904 -0.0278 -0.0005
10160W        W25969   8.134   8.402   0.570  0.3319  0.0002 -0.0480
10161W        W25970   7.345  10.029   5.211 -0.0906 -0.0128  0.2239
10162W        W25971   5.087  16.072   1.035  0.4786  0.0689  0.1191
10163W        W25972  14.756  14.763   3.973  0.2283  0.0071 -0.0799
10164W        W25973   5.542   1.297  15.863  0.1033  0.3769  0.0983
10165W        W25974   4.134   4.253  15.905 -0.0162 -0.1803 -0.0709
10166W        W25975  15.937   1.934  15.685  0.0757  0.2133  0.0169
10167W        W25976  12.599  14.562   0.252 -0.0947  0.1119 -0.0265
10168W        W25977  16.785   0.040   4.115 -0.4352 -0.0104 -0.0679
10169W        W25978   1.292   9.929  15.393  0.0533  0.2735  0.1292
10170W        W25979  13.330   7.238  14.281  0.0279  0.2457 -0.0783
10171W        W25980   4.915   5.427   5.835  0.0324  0.0431 -0.0076
10172W        W25981  11.789   7.780   3.217  0.0836  0.1262 -0.1481
10173W        W25982  10.874   2.710  15.534 -0.1391 -0.0937 -0.0316
10174W        W25983   4.985   8.886  15.151 -0.0969  0.3152  0.0942
10175W        W25984   3.484   3.855  14.234 -0.0035  0.1941  0.0344
10176W        W25985   0.995   0.812  14.354 -0.0565 -0.2100  0.0464
10177W        W25986   2.741  16.607  16.074  0.0481 -0.1956  0.0972
10178W        W25987  17.214  16.238   2.061 -0.3372 -0.1852  0.1776
10179W        W25988   7.744   0.612   0.732 -0.0494  0.1148 -0.2332
10180W        W25989   0.860   8.212  13.796 -0.0352  0.0227  0.1679
10181W        W25990  16.880   4.283  15.494 -0.1157  0.0954  0.2636
10182W        W25991  16.144  10.317  16.364 -0.0002  0.2860  0.0215
10183W        W25992   9.392   5.807   3.495  0.0187  0.2358  0.0630
10184W        W25993  10.626   4.067   4.123  0.1234  0.0699  0.2146
10185W        W25994   9.885   7.731   2.493 -0.3615 -0.1165  0.0858
10186W        W25995  10.241   5.072   5.066 -0.0697  0.3872  0.2294
10187W        W25996  11.897   2.195  14.848  0.1653 -0.2734  0.0775
10188W        W25997   2.962   0.335   0.522  0.0556 -0.2429 -0.0370
10189W        W25998   3.603   6.376  12.430  0.1625  0.0986 -0.0214
10190W        W25999   1.898  12.030  15.780  0.0712  0.2596  0.2586
10191W        W26000   0.530  14.791  13.919  0.0172 -0.0746  0.0601
10192W        W26001  11.833  11.024  13.492  0.1206 -0.2087 -0.1026
10193W        W26002   3.220   6.997  14.377  0.0026 -0.0901 -0.2392
10194W        W26003  11.189   6.145   0.833  0.2160 -0.0521 -0.2140
10195W        W26004   6.897   2.187  14.018 -0.1353  0.0043  0.1325
10196W        W26005   0.275   5.641  15.018  0.1389 -0.0349 -0.1112
10197W        W26006   3.529   2.340   3.631 -0.1165  0.1286  0.0621
10198W        W26007  13.890  14.978   0.830 -0.0585  0.0017  0.1185
10199W        W26008  15.382   2.089  16.529  0.1672 -0.3472  0.2656
10200W        W26009   1.517   5.316  16.327  0.0939 -0.1421 -0.0593
10201W        W26010   3.512  14.195  12.282  0.1626 -0.1325 -0.0148
10202W        W26011  14.175  11.282  15.771  0.0853  0.0424 -0.2039
10203W        W26012   1.897  11.978  14.306 -0.0198 -0.1443  0.1534
10204W        W26013  13.218  15.068  16.038  0.0095 -0.2064  0.2566
10205W        W26014  13.349  16.690   2.917 -0.0695 -0.5269  0.0388
10206W        W26015   6.077   4.269  14.465 -0.1900 -0.1032  0.1885
10207W        W26016  14.505   7.452  15.526 -0.0127  0.0201  0.0294
10208W        W26017   5.527  17.197  15.750  0.2899 -0.0389 -0.2778
10209W        W26018   5.297  16.987   1.273 -0.2739 -0.0261  0.0319
10210W        W26019  10.159  12.358  12.877  0.4294  0.2291  0.0300
10211W        W26020   9.763   6.178   2.775  0.1981 -0.0471  0.0009
10212W        W26021  12.075  12.578   0.374 -0.2282 -0.1963  0.0188
10213W        W26022   0.488   3.439  15.891 -0.2986 -0.0077 -0.0006
10214W        W26023   2.973   8.966  15.787  0.0081 -0.2048 -0.0381
10215W        W26024  11.452  11.310  15.715  0.1305  0.0596  0.3197
10216W        W26025   5.651  11.234  16.539  0.1321  0.1917 -0.2401
10217W        W26026   0.216  10.825   3.870 -0.3073 -0.0463 -0.1063
10218W        W26027   7.378  13.114   5.089  0.2922  0.0122  0.2453
10219W        W26028   7.466   2.831   0.642 -0.0855 -0.3806 -0.1921
10220W        W26029   4.956   6.848  13.433 -0.2734 -0.2041 -0.0083
10221W        W26030   4.620  14.082  11.943  0.0300  0.1726  0.2039
10222W        W26031  12.921   3.651   0.113  0.3452  0.4340  0.1011
10223W        W26032   9.293   5.424   6.397  0.1286 -0.3222  0.0453
10224W        W26033  15.841  12.158   4.958 -0.1616 -0.1715  0.1145
10225W        W26034   9.264   5.444   2.094  0.0584 -0.1622  0.2334
10226W        W26035   3.587   1.509  16.132 -0.0497 -0.1318  0.0040
10227W        W26036  11.412   2.102   2.208 -0.3340 -0.0228 -0.1262
10228W        W26037  14.436   6.853   4.997 -0.0694 -0.1631  0.1401
10229W        W26038  13.427  12.425   1.580  0.0254 -0.1012 -0.2349
10230W        W26039  14.874   2.991   0.909  0.0196  0.1818  0.1876
10231W        W26040   9.136   2.137  13.616 -0.0054  0.1470 -0.1060
10232W        W26041   4.051  13.898   5.213 -0.0657 -0.1633  0.2730
10233W        W26042   2.205  10.444  15.316  0.2137 -0.0837 -0.1285
10234W        W26043  15.675   8.041  15.837 -0.1005  0.0974 -0.1933
10235W        W26044  12.346  11.575  11.690  0.1199 -0.1542 -0.1285
10236W        W26045  17.600  13.037   1.719  0.1626 -0.1159  0.0375
10237W        W26046  17.105   1.248   4.010  0.2829  0.4541  0.2768
10238W        W26047   1.754   4.485   3.964 -0.0170 -0.1981  0.3175
10239W        W26048   8.184  14.746  11.898 -0.3653 -0.1398  0.1922
10240W        W26049   9.450  13.621  13.120  0.2258 -0.0166 -0.0518
10241W        W26050   6.553  15.130  16.788 -0.1314 -0.2026 -0.1331
10242W        W26051   4.824  11.071   5.918 -0.0648 -0.0611 -0.0826
10243W        W26052   3.120   8.078   0.246 -0.4710  0.0226  0.0590
10244W        W26053   9.579  13.162  13.973  0.1884 -0.0868 -0.3005
10245W        W26054  16.454   8.974   0.304 -0.0366 -0.1678 -0.2286
10246W        W26055  14.449  13.376  11.623  0.2118  0.0067  0.0373
10247W        W26056  14.400  11.684  12.022  0.0905  0.1891 -0.4477
10248W        W26057   7.230  13.200   3.260  0.0140  0.0003 -0.2433
10249W        W26058  11.727   3.513  12.851  0.0542 -0.0812  0.1606
10250W        W26059  11.245   4.617   0.446  0.1580 -0.1196  0.1567
10251W        W26060   6.315  15.770  10.378  0.2070 -0.0584 -0.2175
10252W        W26061  13.560   5.208  13.420  0.0258  0.4537  0.3685
10253W        W26062   0.232   8.742  12.163 -0.0326  0.2196  0.0120
10254W        W26063   8.995   9.262  15.710  0.1692 -0.2171 -0.1835
10255W        W26064  12.703   7.851  14.205 -0.3506  0.1348  0.0332
10256W        W26065   5.308   5.961  14.574  0.4265  0.0016  0.0505
10257W        W26066   4.023   1.398   0.374  0.1135 -0.1104 -0.0034
10258W        W26067   9.581   4.019  16.866 -0.1723  0.1082 -0.1991
10259W        W26068   4.281  10.860   0.527  0.1726  0.0995 -0.2572
10260W        W26069  10.971  13.965   4.087  0.0028  0.3260  0.1182
10261W        W26070  15.443  17.410  15.453  0.0202  0.0988 -0.0619
10262W        W26071   4.809  13.410  12.541  0.0894 -0.1226 -0.1271
10263W        W26072  16.068   5.985  12.036 -0.1912 -0.2836 -0.0257
10264W        W26073  10.987   9.887   4.859 -0.2570  0.1100 -0.1683
10265W        W26074   8.815  17.112  16.907  0.1683 -0.1514  0.2321
10266W        W26075  14.540  10.528  16.474  0.0544 -0.0137 -0.0457
10267W        W26076   5.015  11.671  16.587  0.3295  0.1230  0.2627
10268W        W26077   2.157   7.399   4.595  0.1390 -0.4192 -0.0950
10269W        W26078   0.831  17.656  15.319  0.1491 -0.1085  0.1313
10270W        W26079  15.641  11.527  12.036 -0.1406  0.0182  0.3064
10271W        W26080   7.604  14.114  16.291 -0.0284 -0.0508 -0.1061
10272W        W26081  14.446   8.023   4.815 -0.2380 -0.3674 -0.2805
10273W        W26082  16.790   1.422  11.974  0.1238 -0.3532  0.1280
10274W        W26083   6.704   1.841  12.288 -0.2190 -0.1101  0.1529
10275W        W26084   7.580   3.146  13.381 -0.0708  0.1779 -0.4017
10276W        W26085  16.637   9.845   3.318 -0.1994  0.0806  0.2122
10277W        W26086   5.086   6.636   4.023  0.1125  0.1348 -0.3602
10278W        W26087  11.524  13.360   4.937 -0.0761 -0.4861 -0.1376
10279W        W26088  14.797   6.324  13.917  0.1144 -0.1649  0.1456
10280W        W26089   8.596  17.572   5.747  0.1436  0.2515 -0.1606
10281W        W26090   9.006   5.806  14.223  0.2326 -0.0305 -0.1575
10282W        W26091  12.831  14.203  12.903  0.2364 -0.2321  0.0857
10283W        W26092  14.534   2.368   4.148  0.2021  0.1915  0.2276
10284W        W26093   4.714  17.514   0.750 -0.3176 -0.1728  0.1513
10285W        W26094  12.418   1.351  16.899  0.1976 -0.1626 -0.2397
10286W        W26095  11.338  14.905   4.502  0.0549  0.0587  0.1235
10287W        W26096   0.646   2.077   2.679  0.3828 -0.3279 -0.1709
10288W        W26097  14.363  13.811   1.760 -0.0602  0.4823  0.0950
10289W        W26098  14.099   3.084  12.888 -0.1350  0.3554  0.2760
10290W        W26099   1.112  10.623   2.055  0.3177  0.1057 -0.0617
10291W        W26100   0.767   8.520  12.941 -0.0355  0.2821  0.0251
10292W        W26101  17.375  13.580   0.585 -0.2584 -0.2634 -0.0727
10293W        W26102  10.759  16.990   3.941 -0.3315  0.1986 -0.0065
10294W        W26103   8.542   1.471  13.302  0.0500 -0.0129 -0.0003
10295W        W26104  15.758  15.466  14.645  0.0306  0.1216 -0.0879
10296W        W26105  13.198   8.686  16.487  0.1458 -0.2672 -0.0708
10297W        W26106   2.990  10.106  13.565 -0.1328  0.0191 -0.1851
10298W        W26107   3.457  14.128   1.477  0.1926  0.1413  0.2928
10299W        W26108  14.498   1.769   0.375  0.1926  0.0572 -0.1039
10300W        W26109  11.290   7.315  12.833  0.0473  0.0210 -0.1010
10301W        W26110  11.447  16.588  15.576 -0.4551 -0.1539 -0.0025
10302W        W26111   6.952  13.328   2.389 -0.0422  0.3088  0.0092
10303W        W26112   4.285  11.522   2.540 -0.3279 -0.3220 -0.0449
10304W        W26113   4.542   6.719  11.501 -0.1127 -0.0579 -0.1422
10305W        W26114  16.418   4.429  15.683  0.1843  0.3246 -0.2960
10306W        W26115   5.227   6.919   3.565 -0.1771  0.0057  0.1892
10307W        W26116   0.962   5.954  16.128 -0.1786  0.2000  0.2545
10308W        W26117   4.925  17.051  16.501  0.1574 -0.2790 -0.0367
10309W        W26118  12.859  14.371   5.649  0.0127 -0.0290 -0.3340
10310W        W26119  16.859   0.839  15.698  0.0423 -0.0842  0.0289
10311W        W26120  10.981   2.278   0.076 -0.2182 -0.0364 -0.1523
10312W        W26121  15.566   9.437   1.403 -0.4089 -0.1467 -0.1966
10313W        W26122  17.325  12.595  11.809 -0.3575 -0.1728  0.3514
10314W        W26123  11.288   9.000  16.349 -0.1419 -0.0704  0.1172
10315W        W26124   6.730   7.082   0.041 -0.1299 -0.0393 -0.1925
10316W        W26125  13.580   2.061  14.696 -0.2707 -0.1448 -0.1718
10317W        W26126  11.994   9.228  11.703 -0.1047  0.3933  0.2148
10318W        W26127  10.681  12.736  15.499 -0.1044 -0.0865 -0.0509
10319W        W26128   6.329  17.251  15.175  0.2401 -0.0489 -0.1889
10320W        W26129  13.313   2.589  13.603 -0.3242  0.2140  0.0056
10321W        W26130   5.432   6.942  14.872  0.0878  0.3084  0.1053
10322W        W26131   8.961   1.473   0.583  0.1057  0.3554 -0.1647
10323W        W26132  17.578   6.331  12.863  0.2167 -0.1398  0.2148
10324W        W26133   2.718  14.657  13.290  0.0102  0.0720  0.0141
10325W        W26134   0.514  13.180  12.474 -0.0165 -0.0396 -0.3118
10326W        W26135   3.638  14.177  13.861  0.3207 -0.0139  0.0898
10327W        W26136   8.216   0.022   3.247 -0.1988 -0.1214  0.0515
10328W        W26137  12.194  16.260   0.865 -0.2788 -0.1588 -0.3931
10329W        W26138  11.880  14.113   1.587  0.0169 -0.0988  0.0401
10330W        W26139  15.032   1.448  11.525  0.1793 -0.0890  0.0876
10331W        W26140   1.268   0.560  16.020 -0.0656 -0.1525 -0.1127
10332W        W26141   2.033  13.888  15.126  0.3501 -0.2737  0.1535
10333W        W26142  17.727   7.498   0.537 -0.0456 -0.1773  0.1774
10334W        W26143  14.538  13.622  16.298 -0.0465 -0.1208 -0.0808
10335W        W26144  16.799  15.562   2.379 -0.1278 -0.1315 -0.0204
10336W        W26145  13.685   7.714  12.524  0.4422 -0.3036  0.2607
10337W        W26146  14.492  17.643  14.958  0.2103 -0.0947 -0.0003
10338W        W26147  16.090   8.478   4.706  0.0808 -0.0854 -0.1835
10339W        W26148  11.175   5.042   5.998 -0.0580  0.2102 -0.2474
10340W        W26149  17.458  15.111   2.773 -0.3926  0.1857 -0.0721
10341W        W26150  11.760   7.764   2.657  0.0182  0.2283 -0.0192
10342W        W26151   9.419   6.520   4.277 -0.1090  0.0898 -0.0126
10343W        W26152  11.978   7.580  15.623  0.1823  0.2191  0.0073
10344W        W26153   5.268   2.440  13.431 -0.0242  0.2088  0.1543
10345W        W26154   4.080   9.480  12.105 -0.0178  0.1567 -0.0062
10346W        W26155   7.866   3.013  12.890 -0.0073 -0.2403  0.1526
10347W        W26156  15.091  11.350  11.803  0.1286  0.1146  0.2022
10348W        W26157   0.374   0.593   1.666  0.1398  0.2530  0.0618
10349W        W26158  16.278   1.209  12.518  0.2067 -0.0588  0.1430
10350W        W26159  15.642   2.683   0.398  0.2752 -0.0312 -0.1974
10351W        W26160   1.176   5.922   5.221 -0.0977  0.0458 -0.1228
10352W        W26161  15.858   5.626  15.873 -0.0613  0.0831  0.2173
10353W        W26162   3.344   9.686   4.602 -0.0654 -0.2202  0.1256
10354W        W26163  16.821   1.279  11.412  0.3467 -0.0164 -0.0316
10355W        W26164   1.942   8.363   0.072 -0.1748  0.0598 -0.1170
10356W        W26165   5.878   9.209  16.561  0.0308  0.4213 -0.0070
10357W        W26166  15.972   7.451   5.107 -0.2001 -0.1322  0.0529
10358W        W26167   1.037   0.773  14.868 -0.0718 -0.0788  0.3481
10359W        W26168   1.727  14.291  15.194  0.1815 -0.1136 -0.1762
10360W        W26169   7.723  15.123  13.241 -0.3476 -0.2347 -0.2899
10361W        W26170  12.768  10.202  12.305 -0.0267  0.1030  0.1467
10362W        W26171  15.498  16.415  16.531  0.0310 -0.2744  0.0790
10363W        W26172   3.944  16.431  12.857  0.1162  0.0416  0.0003
10364W        W26173  14.997  16.743  15.024 -0.1704  0.2947  0.2560
10365W        W26174  12.600  15.501   4.694  0.2211 -0.1542  0.1045
10366W        W26175   5.161  11.313   5.327  0.3642 -0.3472 -0.1298
10367W        W26176  14.603   9.804   3.744  0.0388 -0.1040 -0.3836
10368W        W26177   2.449   6.589  15.398  0.3578 -0.1882  0.0792
10369W        W26178  13.196  13.893  15.148  0.1570  0.0468  0.2028
10370W        W26179   0.592  13.374   4.967 -0.0436 -0.0511  0.1280
10371W        W26180  11.175  16.007   5.419  0.2396  0.0701  0.0857
10372W        W26181   7.363  16.181  16.396  0.1924  0.2568  0.1180
10373W        W26182   5.093  13.464  13.843  0.0296 -0.2923 -0.2141
10374W        W26183  12.131   3.052  13.254  0.0830  0.2200 -0.1395
10375W        W26184  17.650  15.192  15.860 -0.5255 -0.2357  0.2787
10376W        W26185   6.518  11.072   5.349  0.2608  0.0616 -0.1596
10377W        W26186   7.823  16.963   1.939  0.2130 -0.0612 -0.0866
10378W        W26187  14.349  15.874  16.742 -0.2946  0.0650 -0.1718
10379W        W26188   9.108  12.074   1.567 -0.1045 -0.2192 -0.1918
10380W        W26189   3.822   7.728   5.724  0.2093  0.3063 -0.1791
10381W        W26190  14.244   3.114  14.826 -0.2626 -0.1783 -0.2454
10382W        W26191   5.830   0.570   5.117 -0.2166  0.1324  0.1307
10383W        W26192   6.163   2.750   3.298  0.1523  0.1507  0.0729
10384W        W26193   6.984  15.341  14.223 -0.1054  0.0635  0.0184
10385W        W26194  12.698   2.644   2.273 -0.4001 -0.0010 -0.0759
10386W        W26195   4.606  11.670  15.005  0.1495  0.2450 -0.2747
10387W        W26196  10.533  16.955   1.326  0.2167 -0.1534  0.0254
10388W        W26197  11.839   2.693  15.067 -0.0942 -0.1958  0.0595
10389W        W26198  17.158   1.626  12.704  0.0339 -0.0216 -0.2287
10390W        W26199   7.323  13.896  16.698 -0.2277 -0.1171 -0.0520
10391W        W26200  13.210   5.924   2.227  0.1384 -0.1204 -0.0354
10392W        W26201   7.541   1.650  16.030 -0.0050  0.0294 -0.0422
10393W        W26202  10.144   7.519   1.474 -0.1705  0.0262  0.0701
10394W        W26203  15.224  11.009  12.683 -0.2686  0.1120  0.1970
10395W        W26204   8.439  14.761   3.004  0.0151 -0.2416  0.2534
10396W        W26205   4.963   6.835  14.698  0.2039 -0.0327 -0.0514
10397W        W26206  10.226  15.610  11.818  0.0753  0.4705  0.0337
10398W        W26207   2.568  15.686  11.773  0.0666 -0.0924 -0.2726
10399W        W26208   3.343   1.265  13.216  0.1388  0.1850  0.0021
10400W        W26209  11.782  14.562  10.971 -0.2163  0.0783  0.1147
10401W        W26210   8.488   3.236   5.228 -0.2681 -0.2051 -0.0121
10402W        W26211   8.515   3.564   2.872 -0.1488  0.2618  0.0743
10403W        W26212   9.164   6.149  15.077 -0.1228  0.0373 -0.0033
10404W        W26213   9.355  11.690  15.257 -0.0446  0.0183 -0.0792
10405W        W26214   7.494   6.965  11.127  0.2871 -0.0284  0.1720
10406W        W26215   0.636   7.659   5.021  0.0904  0.1890  0.0726
10407W        W26216  10.587   2.957   0.567  0.2517  0.2717 -0.0077
10408W        W26217  11.794   3.940   3.738  0.2861 -0.1487  0.0196
10409W        W26218  12.242  16.818  14.457 -0.2149 -0.1035  0.5243
10410W        W26219   8.143   2.293  12.531 -0.1348 -0.0673 -0.0835
10411W        W26220   4.416   3.202   5.469 -0.3041 -0.1509 -0.2533
10412W        W26221   0.149   3.509   2.895 -0.1301  0.0136 -0.1473
10413W        W26222  15.104  10.245  13.986 -0.3471  0.0742  0.2456
10414W        W26223  10.016   0.247  10.989 -0.2155 -0.0469 -0.0071
10415W        W26224   6.041   6.006  12.623  0.2606  0.1266 -0.0436
10416W        W26225  17.087  14.768   2.914  0.2044  0.1555  0.2671
10417W        W26226  13.865  12.273  12.354 -0.0711 -0.0234 -0.2345
10418W        W26227  10.629   7.482  15.508  0.2064  0.0971  0.0100
10419W        W26228   5.528  14.253   3.256 -0.3084  0.3306 -0.1949
10420W        W26229   6.256  13.056  15.777 -0.0758 -0.3652 -0.0901
10421W        W26230   3.913  16.293  13.836 -0.3510  0.2230 -0.0085
10422W        W26231  14.670   7.590   4.840 -0.2254  0.0476 -0.2144
10423W        W26232  16.895  17.089  14.751 -0.0459  0.0249  0.2361
10424W        W26233  13.081   7.657   4.939 -0.0461  0.0265 -0.2936
10425W        W26234   9.163  14.643   3.664  0.3289  0.0182 -0.0865
10426W        W26235   0.667  10.380  14.511 -0.1165  0.0177 -0.2558
10427W        W26236   3.748   1.422   3.810 -0.0197  0.0570  0.1082
10428W        W26237  16.102   6.010   3.480  0.0091 -0.1041  0.2150
10429W        W26238  15.033  15.095   6.255  0.1406 -0.2215 -0.0273
10430W        W26239   9.910   1.735  12.190  0.0024  0.1374 -0.1250
10431W        W26240  14.071  14.301  14.927  0.2029  0.1427 -0.2441
10432W        W26241  11.127  17.259   0.926 -0.2170 -0.1840 -0.2146
10433W        W26242   5.254   3.139  15.945 -0.4771 -0.0949 -0.0418
10434W        W26243   4.277  15.563  15.995  0.0983 -0.0721  0.1485
10435W        W26244  11.559   1.755  16.692 -0.1503 -0.0280 -0.2347
10436W        W26245   9.065  10.616  13.479  0.0543 -0.0400 -0.0678
10437W        W26246  14.762   7.011  13.462  0.0579  0.4772  0.0328
10438W        W26247   7.911  16.540  14.371 -0.3418  0.0784  0.0170
10439W        W26248  11.380   8.583   5.322 -0.0319 -0.0518  0.0374
10440W        W26249   3.905  14.201  15.326 -0.1200  0.1699 -0.0473
10441W        W26250   3.988   6.175   5.374 -0.1512  0.0725  0.0364
10442W        W26251  11.380   0.902  12.127  0.1596  0.1093  0.2527
10443W        W26252  15.352   3.059   1.424  0.0498  0.0199  0.1288
10444W        W26253   8.263   0.402   0.732 -0.0331  0.1897  0.1867
10445W        W26254   9.904   8.814  13.476  0.2568 -0.0216 -0.0162
10446W        W26255  15.659   9.839   4.518  0.1624 -0.0219  0.2716
10447W        W26256   1.290  15.114   5.058  0.0396 -0.1013 -0.0185
10448W        W26257   5.275   1.612  15.444  0.2000 -0.1045 -0.1369
10449W        W26258   0.172   7.085   4.383 -0.2353  0.0221  0.0982
10450W        W26259   0.686  16.191   4.465  0.1296  0.3220 -0.0938
10451W        W26260   3.976   7.593  16.244  0.0890 -0.0123  0.0192
10452W        W26261   1.366  15.724  12.043 -0.0195 -0.0976  0.0291
10453W        W26262  13.253   2.098  12.713  0.3295 -0.0146  0.1078
10454W        W26263   3.480   5.507   5.924  0.1616  0.0842 -0.0061
10455W        W26264  15.718  11.504   5.240 -0.1417  0.0100  0.1658
10456W        W26265   9.943   2.336  13.177  0.1024 -0.0680 -0.2840
10457W        W26266  14.339  17.136  16.331 -0.3089 -0.1362  0.1769
10458W        W26267  16.561  10.089  16.733  0.1114 -0.0090  0.4298
10459W        W26268   4.200  13.906   3.527 -0.2921 -0.0072 -0.0483
10460W        W26269  14.764  10.767   2.186  0.2242  0.0676 -0.5239
10461W        W26270  11.062   2.262  15.363 -0.2732  0.1314 -0.1053
10462W        W26271  12.975  16.676  15.128 -0.2127 -0.2429  0.2142
10463W        W26272   1.307  13.625  14.687 -0.2270  0.1327 -0.1423
10464W        W26273  13.416   8.849  12.879 -0.3963 -0.1972 -0.2187
10465W        W26274  10.684  10.795   1.262 -0.0774 -0.1917  0.1143
10466W        W26275   6.630  16.525  13.448 -0.0502 -0.0831  0.0909
10467W        W26276   6.333   2.707  14.690 -0.1272  0.2978 -0.0356
10468W        W26277  16.953   8.003   4.249 -0.1873  0.0116 -0.1864
10469W        W26278  12.335  11.103  14.326 -0.1743  0.1544  0.0670
10470W        W26279  16.029   8.765  14.236  0.0451  0.2368  0.3612
10471W        W26280   2.332  13.896   2.364 -0.2838  0.2158  0.0553
10472W        W26281   0.422   1.405  16.696  0.0743 -0.3883 -0.0203
10473W        W26282  13.932  14.893  12.505  0.2663  0.1642  0.2503
10474W        W26283   3.686  14.930  11.853  0.0160  0.0366  0.0275
10475W        W26284  14.139   9.939  11.925  0.1530  0.3449  0.1899
10476W        W26285  13.605   1.214   2.730 -0.0946  0.0048 -0.3314
10477W        W26286   8.495   0.908  15.981  0.1961 -0.2091  0.1445
10478W        W26287  11.966   6.166  13.249 -0.0029 -0.2160  0.2587
10479W        W26288   3.127   0.357   2.500 -0.0084  0.0532  0.0079
10480W        W26289   3.866  13.661  12.996  0.1627  0.0163  0.1101
10481W        W26290   8.646  12.291   1.858 -0.3168  0.0793 -0.2615
10482W        W26291  13.906  17.527  14.921 -0.0482  0.0817 -0.2914
10483W        W26292  10.874   6.613   6.257  0.2157  0.0632  0.0609
10484W        W26293   7.382   1.149  11.696  0.1757  0.1024 -0.3504
10485W        W26294   4.054  15.361  12.396  0.0207 -0.0571 -0.1908
10486W        W26295  13.978   3.234  11.905 -0.1836  0.2327 -0.1233
10487W        W26296   0.145  14.004  15.495 -0.1075 -0.0909  0.0696
10488W        W26297   8.759   9.223   4.927 -0.0545  0.1253  0.0772
10489W        W26298   7.073  16.667   5.808 -0.1461 -0.1242  0.0783
10490W        W26299  14.295   9.830  16.912 -0.3712 -0.2170 -0.2204
10491W        W26300  15.745   3.076   4.892 -0.0949 -0.1807  0.2515
10492W        W26301   7.389   8.112  12.962 -0.3054  0.0664 -0.0131
10493W        W26302  13.381   9.595   0.352  0.0064  0.1937 -0.0062
10494W        W26303   5.663   6.757   3.834  0.0394  0.1190 -0.3314
10495W        W26304  15.422   7.679   0.220 -0.1394 -0.2451 -0.0075
10496W        W26305  15.994  17.605  12.372  0.2041 -0.0030 -0.1342
10497W        W26306   4.125  11.281   5.470 -0.0829  0.0130 -0.0602
10498W        W26307  10.722   5.201   5.033  0.2813  0.2085 -0.0191
10499W        W26308   5.329  16.649  12.951 -0.2620  0.1404 -0.1889
10500W        W26309   3.513  13.280  14.197 -0.3448  0.1706 -0.1033
10501W        W26310  10.896  13.987   1.422 -0.0300  0.2244 -0.3344
10502W        W26311  15.232  14.742  16.116  0.1107 -0.2708 -0.1974
10503W        W26312   6.147  16.398  16.042 -0.0079  0.1993  0.3203
10504W        W26313   4.714  11.819  13.356  0.0246  0.1442 -0.2058
10505W        W26314   0.553   9.033   1.984  0.2147  0.2416 -0.0363
10506W        W26315   9.938  13.155  11.656  0.2845 -0.0100  0.1035
10507W        W26316   1.169   4.396   3.126 -0.1271  0.0700  0.1098
10508W        W26317   2.826  16.170   0.863  0.1531 -0.3082 -0.1727
10509W        W26318  15.517   0.234   0.760  0.0574  0.0051  0.0357
10510W        W26319  12.928   2.473   3.279  0.0847  0.0182 -0.1247
10511W        W26320  16.594   9.273   1.871 -0.2848 -0.0411 -0.1102
10512W        W26321   5.234  14.688  15.801 -0.2493 -0.1565 -0.1614
10513W        W26322   2.764   1.770   3.793  0.5892  0.1279 -0.0795
10514W        W26323  14.217  16.119   1.071 -0.0655  0.1119 -0.2580
10515W        W26324   2.985   7.477   4.222  0.0065 -0.0012 -0.0460
10516W        W26325   2.150   1.761   4.610  0.4951  0.0261 -0.1728
10517W        W26326  14.273  15.460   5.150 -0.0322 -0.0909  0.0606
10518W        W26327   5.189   0.929  16.773 -0.1038 -0.1003  0.0605
10519W        W26328  15.972  10.471  12.895 -0.0973 -0.4179 -0.0922
10520W        W26329   9.469   9.785  13.234 -0.4708  0.0183 -0.0124
10521W        W26330  16.128   1.261  15.718  0.0110  0.1015 -0.0769
10522W        W26331  10.980   2.123   3.652  0.1000  0.1362 -0.0792
10523W        W26332   1.955  12.437   3.364 -0.1600 -0.0982 -0.0671
10524W        W26333   1.708   4.228   2.674  0.0286  0.2041  0.1614
10525W        W26334   4.368  13.279  12.253 -0.0264 -0.0646  0.0577
10526W        W26335  16.535  12.353  13.370  0.2696 -0.1526  0.0148
10527W        W26336  14.060  14.831   1.795  0.0383  0.0531  0.0975
10528W        W26337   0.360   5.468   2.040 -0.3661 -0.2369 -0.0195
10529W        W26338   6.142   9.503   2.434 -0.0461  0.1724 -0.0842
10530W        W26339   3.244   3.513   5.491 -0.1378  0.1384  0.1723
10531W        W26340   2.651  13.945  16.224 -0.0032 -0.1332 -0.1362
10532W        W26341  15.655   1.443   1.044  0.1158 -0.0200 -0.0676
10533W        W26342   0.381  12.857  11.461 -0.0772 -0.0039 -0.3934
10534W        W26343   7.637   8.352  15.399 -0.0567 -0.0989 -0.0779
10535W        W26344  16.625   0.782  15.118  0.1687  0.0941 -0.1343
10536W        W26345  17.712  12.653   3.567 -0.0940 -0.2944 -0.1847
10537W        W26346   5.645   2.054   0.094  0.0421 -0.1197 -0.3968
10538W        W26347  17.620   4.647   5.306 -0.1195  0.0163  0.0512
10539W        W26348   3.462  11.054   1.158 -0.1013  0.0636  0.0023
10540W        W26349  11.707  17.626   1.716 -0.2295  0.0735 -0.0681
10541W        W26350  15.431  11.936   5.273 -0.2276 -0.1062 -0.4543
10542W        W26351  14.842  14.712   2.922 -0.0898  0.2582  0.0073
10543W        W26352   5.035  15.368  15.564 -0.1435 -0.0259  0.4314
10544W        W26353  13.958   3.281   0.265  0.2970 -0.2381 -0.1830
10545W        W26354   8.671  13.555  15.684  0.1015  0.2337 -0.0484
10546W        W26355   3.841   5.937  13.955  0.2579 -0.2350 -0.2601
10547W        W26356  12.857   8.404  14.051 -0.2109  0.0614 -0.1459
10548W        W26357  12.805   6.669   5.065  0.1558 -0.0422  0.2083
10549W        W26358  16.468   9.990  14.002  0.1052 -0.3370 -0.2718
10550W        W26359  16.146   6.424  11.786  0.1037  0.0539  0.1042
10551W        W26360  17.658  16.788  16.248 -0.1139 -0.2353  0.0524
10552W        W26361   1.624   1.265  13.789  0.2448  0.1940  0.2027
10553W        W26362   1.788   9.520   3.788 -0.1657  0.0041  0.1362
10554W        W26363  15.811   4.434  12.998 -0.1568 -0.0206 -0.2307
10555W        W26364  14.264  16.130  12.358 -0.0974  0.1064 -0.0790
10556W        W26365  10.108   6.723   2.306 -0.0758 -0.0575 -0.0029
10557W        W26366   4.766   8.286  10.646  0.5203  0.0393  0.1179
10558W        W26367   8.000  11.421  16.441 -0.0089 -0.1146  0.1192
10559W        W26368   6.166  16.646   2.452  0.0588  0.0308  0.0022
10560W        W26369  14.753  10.330  13.646  0.2140  0.0075 -0.0420
10561W        W26370  11.928   6.236   0.232 -0.1492  0.2964 -0.1950
10562W        W26371   7.478  11.291   4.661 -0.3973  0.2353  0.1042
10563W        W26372  15.554   7.746   3.233 -0.1457  0.2807  0.1674
10564W        W26373   9.546  13.514   3.136 -0.0969  0.1320  0.0658
10565W        W26374   1.601  11.432  14.696 -0.1849 -0.0436 -0.0427
10566W        W26375   2.661  15.632   3.262 -0.0507 -0.3189  0.3061
10567W        W26376   2.414   3.942  15.591 -0.1591 -0.0960  0.0626
10568W        W26377   5.610   8.707   4.876  0.0039 -0.2621 -0.3635
10569W        W26378   3.957   6.165  14.997 -0.6036  0.1965  0.1302
10570W        W26379   5.686   7.143   4.906  0.1946  0.0790  0.0582
10571W        W26380   5.041  17.265  12.452 -0.1498 -0.0704 -0.2624
10572W        W26381   9.139  14.562   5.193 -0.0920  0.0974 -0.0795
10573W        W26382  15.956   9.273   5.756 -0.1434  0.1840  0.0854
10574W        W26383  14.127   2.369   1.298  0.0773 -0.0835  0.3086
10575W        W26384   3.726  10.508   2.348  0.0092  0.2089  0.2968
10576W        W26385   9.981  15.690   3.995  0.2522 -0.0934 -0.0031
10577W        W26386   5.779   3.833   5.220 -0.0794  0.0221 -0.2794
10578W        W26387   9.595   3.187  13.369 -0.3273 -0.0745 -0.0124
10579W        W26388  17.109  17.280  14.231 -0.1599 -0.1238  0.1679
10580W        W26389   2.390  11.281   0.430 -0.1705  0.2298 -0.1041
10581W        W26390  11.068   8.703  16.881 -0.3859  0.1281  0.0221
10582W        W26391   2.532   2.752   4.770 -0.2060  0.1362  0.2049
10583W        W26392  17.578   9.227  16.264 -0.0981  0.0257  0.0697
10584W        W26393  11.412   4.526  13.677  0.2417 -0.0360  0.0362
10585W        W26394   7.877  11.681  14.984  0.5268  0.2517  0.1182
10586W        W26395   3.920   4.249   5.888 -0.0888  0.1275 -0.3317
10587W        W26396  13.274  15.197   3.671  0.1939 -0.1875 -0.0173
10588W        W26397  10.595  13.670   3.306 -0.1721  0.2769 -0.0403
10589W        W26398  13.854  16.009  16.792  0.1497  0.1171  0.0222
10590W        W26399  11.661   6.232   0.811  0.0786 -0.3384 -0.3191
10591W        W26400   2.862  14.941   4.273  0.0034  0.1171 -0.0450
10592W        W26401   6.006  12.413   4.046 -0.0546 -0.1577  0.0070
10593W        W26402  16.003  10.812   4.875 -0.2497  0.1595  0.1286
10594W        W26403   9.454   3.175   2.596  0.1880 -0.0661  0.0267
10595W        W26404   0.954  13.586   3.641 -0.1121  0.0255 -0.0609
10596W        W26405   5.086  10.139   1.166  0.0382  0.0030 -0.1203
10597W        W26406  10.213   5.227  16.762 -0.1800  0.4576  0.0067
10598W        W26407  14.079   9.310  13.936  0.0138 -0.4074  0.1189
10599W        W26408  10.082   6.737   1.498  0.1771 -0.0762 -0.2470
10600W        W26409  16.995  14.937  16.482 -0.2921 -0.0056  0.1394
10601W        W26410  10.383   5.724  14.183 -0.1443  0.2455 -0.0370
10602W        W26411   6.202   8.700   1.871  0.0320 -0.0128  0.4164
10603W        W26412   8.557   1.962   3.243  0.0513  0.1822  0.0025
10604W        W26413  16.066   5.417   2.516  0.1539 -0.0128  0.0008
10605W        W26414   7.522   1.311   0.609 -0.3681 -0.0399  0.0982
10606W        W26415  11.124  11.657   1.503 -0.1058 -0.5558 -0.2726
10607W        W26416  11.207  11.044   5.066  0.1160  0.1380  0.1836
10608W        W26417  12.852   7.599   0.931 -0.0700 -0.1268  0.1798
10609W        W26418  16.344   9.229   4.824 -0.0848  0.2341  0.0032
10610W        W26419  10.295  12.717  13.919  0.1634 -0.2296 -0.0031
10611W        W26420  10.351   1.969  16.213 -0.0295  0.0781  0.3282
10612W        W26421   6.095  11.713  12.176  0.1553  0.2545 -0.1504
10613W        W26422   3.437  10.332  12.850 -0.1555 -0.0174  0.0196
10614W        W26423  15.520   5.593   0.063 -0.0622  0.2212  0.0294
10615W        W26424  11.062  15.598   3.674  0.2224 -0.2816 -0.0764
10616W        W26425   8.219   0.614   4.948 -0.1662 -0.2439 -0.0334
10617W        W26426  17.568  12.490  13.686  0.1001  0.2298 -0.0363
10618W        W26427   6.685   9.573  14.001  0.4011  0.1132  0.2046
10619W        W26428  14.962  15.917  14.808 -0.2546  0.1536  0.2367
10620W        W26429   6.661  16.526  16.045 -0.2056 -0.0804  0.1611
10621W        W26430   7.456   8.989   2.130  0.0501 -0.1410  0.1156
10622W        W26431  14.274   4.861   2.120  0.1334  0.2968  0.2180
10623W        W26432   0.319   7.883   2.909 -0.1089 -0.0050 -0.3169
10624W        W26433   1.202  17.216   3.759 -0.0834 -0.1922  0.0917
10625W        W26434  12.256  11.075   5.172 -0.0158 -0.1464  0.1810
10626W        W26435   3.958   1.592   3.340  0.2957  0.1769  0.1833
10627W        W26436   5.199   5.902   4.399 -0.0234  0.0102 -0.3174
10628W        W26437  15.850  17.269  12.033 -0.1734  0.0622  0.2585
10629W        W26438   7.843  15.364   2.664  0.1180 -0.2525  0.1846
10630W        W26439  10.896   3.827   3.661  0.1226 -0.0070 -0.2156
10631W        W26440   8.623  16.262   5.264  0.0810 -0.1351  0.2331
10632W        W26441   8.572   0.425  16.212  0.3686  0.1826 -0.1217
10633W        W26442   3.143   8.680  14.835  0.2562  0.2095  0.0355
10634W        W26443  16.907   2.355  12.744 -0.0949 -0.0767 -0.0621
10635W        W26444  10.944   4.998   0.381 -0.0533  0.2479  0.2027
10636W        W26445   8.176   2.736  14.294  0.0484  0.3282 -0.2127
10637W        W26446  10.322  12.022   4.885 -0.2283  0.0293  0.0304
10638W        W26447   1.299   1.633  16.933  0.0023 -0.0042  0.0925
10639W        W26448   2.522   0.542  14.007 -0.0706 -0.4630 -0.2697
10640W        W26449   8.494   2.257  12.930 -0.0158 -0.0253  0.0968
10641W        W26450  12.437  14.799   3.107  0.1725 -0.1286  0.0498
10642W        W26451  13.076  15.151   0.005  0.0938  0.0991 -0.0000
10643W        W26452  10.591   5.246  10.990 -0.2622  0.2053 -0.1386
10644W        W26453   2.425  15.440   4.686 -0.2968  0.3428  0.0427
10645W        W26454  17.505  15.753   0.386  0.1177 -0.2183 -0.0544
10646W        W26455  16.359   2.224   4.073  0.1372 -0.0624  0.1263
10647W        W26456   4.722   7.200  13.730 -0.0874  0.0353  0.2293
10648W        W26457   5.802  13.511  10.918  0.1047  0.0028 -0.1412
10649W        W26458   8.607  11.977   4.129 -0.0336 -0.3283 -0.0989
10650W        W26459  15.989   7.571  15.069 -0.0605  0.0495 -0.0538
10651W        W26460  12.480   1.400   2.475 -0.0823  0.0701 -0.0051
10652W        W26461  11.520   1.877  15.208  0.0130 -0.0907  0.0650
10653W        W26462  10.029   5.073  13.476 -0.4221  0.1223 -0.0683
10654W        W26463  10.178   8.858   4.045  0.2937 -0.0634 -0.2251
10655W        W26464  17.426  10.319   3.552  0.1466 -0.0679 -0.3347
10656W        W26465   0.737  17.160   3.311  0.1249  0.2380  0.0389
10657W        W26466  12.867  16.680   3.250  0.2524 -0.4084 -0.0864
10658W        W26467   3.093   6.133   0.714  0.0804 -0.1621  0.0611
10659W        W26468   5.274  14.391  14.490  0.0258  0.2066 -0.0617
10660W        W26469   0.100   2.792  14.705  0.0656 -0.0587  0.1776
10661W        W26470  10.203   7.734   0.550  0.3211 -0.0164  0.0383
10662W        W26471  12.658  13.657   1.332  0.3706 -0.0198 -0.0028
10663W        W26472   0.552  15.203   1.072  0.2472  0.0555 -0.1839
10664W        W26473   6.117   3.032   1.283  0.0192  0.1017 -0.0350
10665W        W26474   5.308   7.110  16.268  0.1240 -0.1327 -0.2959
10666W        W26475   1.101  11.879   4.087  0.1531  0.2705 -0.2817
10667W        W26476  12.534   6.774  12.787 -0.2591  0.0876  0.1066
10668W        W26477   6.424  17.148   0.589 -0.2807  0.1665  0.1517
10669W        W26478  17.368  11.635   4.563  0.0043 -0.0375 -0.1509
10670W        W26479   3.457   1.267  16.846 -0.0633  0.0991  0.3509
10671W        W26480   9.708   4.876   3.849 -0.0106 -0.2706 -0.0515
10672W        W26481  14.438  13.502   1.300  0.0894  0.3024 -0.3016
10673W        W26482   3.373  12.719  11.252 -0.0051 -0.3229  0.5180
10674W        W26483   1.141  10.355  16.026 -0.3439  0.1732 -0.0745
10675W        W26484   2.646  14.937  16.086  0.1760 -0.1688  0.2040
10676W        W26485   1.293  10.452  16.653  0.2095 -0.0029  0.1152
10677W        W26486   5.573  11.806  14.713  0.0994  0.4477 -0.1859
10678W        W26487   0.176  13.741   4.722 -0.2652  0.1625  0.0216
10679W        W26488   4.530   9.810  14.942 -0.1620 -0.0769  0.4667
10680W        W26489   2.416   1.581   1.834 -0.0738  0.0204  0.0156
10681W        W26490   5.827  13.802   3.455 -0.1965  0.1578  0.1749
10682W        W26491   7.642  13.350  10.848 -0.1740  0.0595  0.0492
10683W        W26492  11.011  15.112   1.143  0.0088  0.1847  0.1906
10684W        W26493   0.742  16.470  11.843  0.1663 -0.3276  0.1634
10685W        W26494   6.193   2.073   2.938  0.1330  0.2801  0.1430
10686W        W26495   5.321   4.791  16.600  0.0503  0.2012  0.0591
10687W        W26496   0.009   7.002  14.546  0.1200  0.2541  0.2432
10688W        W26497   4.130   2.949  12.820  0.1673  0.0039  0.3167
10689W        W26498  11.076   5.449   2.683  0.0049  0.0836 -0.0219
10690W        W26499  10.972  13.792   3.591  0.0311 -0.3395  0.0545
10691W        W26500   8.804  14.244  13.099 -0.1007 -0.2143  0.0609
10692W        W26501   5.561   5.756  12.134 -0.1576  0.0806 -0.1716
10693W        W26502   8.980  14.717  12.943  0.0469 -0.2345 -0.0013
10694W        W26503   0.423  10.816  14.472  0.0887  0.0394  0.1206
10695W        W26504  16.042   0.211   0.222  0.2937 -0.2382 -0.0629
10696W        W26505   8.493   1.034  16.944 -0.1498  0.1525 -0.0687
10697W        W26506  16.614  11.444  12.756 -0.0065 -0.2399 -0.0700
10698W        W26507   9.585   8.348   1.848 -0.0835 -0.1324 -0.1623
10699W        W26508   2.809   3.152   0.689  0.0623 -0.1162  0.1997
10700W        W26509   3.562  13.866   4.319  0.0504 -0.0746 -0.0120
10701W        W26510  13.698  13.040  16.836  0.0225 -0.0078 -0.1550
10702W        W26511   7.367  14.028  12.442 -0.3264  0.3086 -0.0855
10703W        W26512  16.360   0.735  15.586  0.3460 -0.0951 -0.2782
10704W        W26513  15.170  15.537  14.534 -0.2807  0.3179  0.0981
10705W        W26514  10.289   6.827   2.769  0.1208 -0.1057  0.3055
10706W        W26515   8.448   2.263   0.997  0.1518  0.0673 -0.0290
10707W        W26516   4.264   1.918   0.338 -0.1796  0.0781  0.1983
10708W        W26517   5.810  10.674   3.631 -0.1372 -0.2928  0.3880
10709W        W26518   6.636  16.016   4.937 -0.0626 -0.1693  0.0698
10710W        W26519  10.934   9.366   3.399 -0.0418 -0.1709 -0.1284
10711W        W26520  13.499   9.321   3.468 -0.1675 -0.1557  0.1725
10712W        W26521  12.733  15.327  14.328 -0.0109 -0.0643 -0.2585
10713W        W26522   1.435   3.683   0.997 -0.1139  0.0851  0.0057
10714W        W26523  14.033   8.563   0.237  0.0613  0.2716  0.2979
10715W        W26524  10.214  15.327   1.811 -0.1402 -0.0083  0.2300
10716W        W26525  13.011   6.432   5.392 -0.0212  0.0740 -0.1301
10717W        W26526   3.738   0.180  11.394  0.0629  0.1570  0.1424
10718W        W26527  12.860   1.894   1.550  0.0517  0.0282  0.1646
10719W        W26528  15.941   1.780  14.949  0.2946  0.2721  0.0451
10720W        W26529   8.552  15.659   1.461 -0.3047  0.0454  0.1435
10721W        W26530   2.300   5.217   2.802 -0.0777  0.0035  0.0456
10722W        W26531  11.295   7.210   2.494 -0.0751  0.1639 -0.1760
10723W        W26532   5.683  16.860   0.076 -0.4560  0.0063  0.0989
10724W        W26533  17.501  16.070  15.128 -0.0127 -0.0048  0.1014
10725W        W26534   8.260  10.445   1.986  0.0521  0.3428 -0.0472
10726W        W26535   4.476  15.854   3.061  0.2216  0.2524 -0.2288
10727W        W26536   7.031   5.860  15.962  0.0325  0.2672  0.1416
10728W        W26537   4.554  15.881  16.211  0.2629 -0.1486 -0.3399
10729W        W26538   7.488   4.724  16.743  0.0645 -0.1656 -0.0084
10730W        W26539   6.039  14.818   4.618  0.1785 -0.1204  0.0770
10731W        W26540   9.468  17.440   1.923  0.1559 -0.1793 -0.0575
10732W        W26541  16.292  10.003  13.259  0.0052  0.1650  0.1008
10733W        W26542   0.716   7.641  13.902  0.0393  0.0234 -0.0927
10734W        W26543  13.190  10.623   3.110 -0.1598 -0.0299 -0.3395
10735W        W26544  15.716  16.732   2.085 -0.1620 -0.0461  0.3442
10736W        W26545  15.866  15.154   4.661  0.2195 -0.0601  0.1118
10737W        W26546  17.162   5.041   0.054 -0.2934 -0.0438  0.0204
10738W        W26547  15.180   3.808  15.802  0.2333 -0.3774  0.1663
10739W        W26548  15.395   5.502  15.600  0.0633  0.0841 -0.1313
10740W        W26549   4.583  14.018   2.961 -0.0735  0.0164  0.0851
10741W        W26550  14.226  14.527  14.060  0.1857  0.0325 -0.1527
10742W        W26551  10.284   5.366   0.888  0.0533 -0.1069  0.1761
10743W        W26552   8.433  14.607   0.396 -0.0915  0.0244  0.2514
10744W        W26553   7.765   4.094   4.297 -0.1696 -0.1131 -0.1866
10745W        W26554   9.000   0.829   5.340 -0.1242  0.1090 -0.2965
10746W        W26555  11.781  16.568  13.051  0.1997  0.0495  0.1343
10747W        W26556  16.176   3.329   4.038  0.0594  0.0352  0.0155
10748W        W26557  15.968   1.774   5.462  0.1495 -0.0293  0.3567
10749W        W26558  15.193   8.707   4.798  0.0269 -0.1779  0.1062
10750W        W26559  15.672  13.304  14.462 -0.0532  0.1845 -0.1543
10751W        W26560   7.298   1.778   5.159  0.0170 -0.1415  0.0815
10752W        W26561   3.949  12.293  13.034  0.0480 -0.1062 -0.0232
10753W        W26562   2.217   7.392  14.924  0.1191  0.0445  0.0005
10754W        W26563  14.872   1.399  15.066 -0.1093  0.1031 -0.0450
10755W        W26564  13.800   9.500  12.068 -0.1881 -0.1229 -0.0786
10756W        W26565   8.639  11.404   3.215 -0.1444 -0.4987 -0.2690
10757W        W26566  14.046  14.998   2.701  0.1202  0.0312  0.0818
10758W        W26567   2.054  15.318  15.679  0.1673 -0.1034  0.1265
10759W        W26568  10.498  15.370  14.990 -0.0150 -0.0202  0.0618
10760W        W26569  14.793   5.113   5.554  0.3555  0.1991  0.2988
10761W        W26570   2.482  10.719   4.477 -0.0989  0.1802  0.2554
10762W        W26571  16.790  15.562   3.267 -0.0242  0.0727  0.0522
10763W        W26572  10.831  12.130   5.155  0.2355  0.2195  0.0786
10764W        W26573  14.059  12.744  11.053 -0.0921 -0.0293 -0.1225
10765W        W26574  17.716   9.944   0.057  0.1674 -0.2253 -0.0670
10766W        W26575  14.613  17.305   2.452 -0.2602 -0.3933 -0.0922
10767W        W26576  12.996  12.889  14.588 -0.0314 -0.2086  0.1707
10768W        W26577   2.752   0.418  13.573 -0.1536  0.2607 -0.1872
10769W        W26578   2.880   5.475  14.847 -0.0872  0.2951  0.1796
10770W        W26579   8.560   9.355   0.494  0.2032 -0.0007  0.2283
10771W        W26580   5.257   5.201  16.886  0.1047 -0.0702 -0.0572
10772W        W26581   4.172  15.447   0.046 -0.0336 -0.0759  0.0483
10773W        W26582   9.358   3.418   5.035 -0.1200  0.0894  0.0382
10774W        W26583   8.525   0.666  12.568 -0.0985  0.1412 -0.1153
10775W        W26584   6.378  17.026  13.853 -0.0519 -0.0778 -0.2300
10776W        W26585   2.908   7.940  14.360 -0.1984 -0.0707 -0.1907
10777W        W26586   9.276  14.789   2.776 -0.1868 -0.0361 -0.2213
10778W        W26587  11.465  17.038   1.689  0.1205  0.1955 -0.0861
10779W        W26588   9.766  11.725  11.842  0.0847 -0.0292  0.1174
10780W        W26589   7.208   6.723   6.409 -0.1003  0.1790 -0.0005
10781W        W26590  16.676  14.378   0.661 -0.0863  0.0855  0.1241
10782W        W26591  14.949  12.022   2.301  0.0339  0.0142  0.0471
10783W        W26592   3.540  17.017  12.105  0.1680 -0.3702  0.0374
10784W        W26593   7.612  11.289  11.930 -0.1574 -0.2991  0.1396
10785W        W26594   4.243   5.153  15.269 -0.1648  0.0373  0.1800
10786W        W26595   0.479  12.520   1.954 -0.2465  0.0649  0.0614
10787W        W26596   6.117  11.910   0.312  0.0074 -0.0350 -0.1243
10788W        W26597   0.764   9.624  16.710 -0.1226 -0.0000 -0.0037
10789W        W26598   8.789   7.888  11.715  0.0220 -0.2584 -0.4850
10790W        W26599   4.085  15.987  16.143  0.1722 -0.2109  0.2957
10791W        W26600   8.770  12.956   1.222  0.3301 -0.0235 -0.0151
10792W        W26601   8.561  13.404  12.732  0.1390  0.0597  0.0911
10793W        W26602   8.733   2.076   4.752 -0.3823  0.1171  0.0422
10794W        W26603  10.400   7.417   1.024  0.0197  0.3953 -0.1566
10795W        W26604  11.973  13.100   0.647  0.0103  0.3824 -0.0674
10796W        W26605  12.029   8.296   4.486  0.1846  0.1054 -0.0110
10797W        W26606  12.346   2.148  12.196  0.2626  0.1502  0.0851
10798W        W26607   3.572   2.967   1.693 -0.1935 -0.1650  0.0820
10799W        W26608   5.517  11.828   5.576 -0.0497 -0.0308  0.0087
10800W        W26609   7.400   9.525   4.298 -0.0862 -0.0459 -0.1017
10801W        W26610   2.245  11.593   4.963 -0.2244  0.2628  0.2371
10802W        W26611   9.606   7.335   2.781 -0.0786 -0.1086 -0.2888
10803W        W26612  16.324  15.292   3.591  0.1805  0.1666 -0.0412
10804W        W26613   1.709  14.499  16.221 -0.3006 -0.0955  0.0584
10805W        W26614   3.881   5.158   3.421 -0.2949 -0.0397 -0.0261
10806W        W26615   6.693   3.915   4.534  0.1255  0.1232 -0.0924
10807W        W26616   7.850  15.748   1.200 -0.2492 -0.0036  0.3729
10808W        W26617  13.859  16.782   4.372 -0.0570  0.0107  0.1592
10809W        W26618   3.478   3.618   5.059 -0.1934  0.1231 -0.1111
10810W        W26619   5.659  13.299   1.358  0.0776  0.3348 -0.0435
10811W        W26620  12.215  10.277  13.582  0.0993  0.1270 -0.2408
10812W        W26621   4.349  15.668   3.902  0.1050 -0.1626  0.0255
10813W        W26622   7.612   5.656   4.095 -0.0975 -0.0275  0.3059
10814W        W26623   1.331   9.923   4.811 -0.0846  0.1176  0.1420
10815W        W26624   9.113   7.960   0.522  0.0683  0.0435  0.1047
10816W        W26625   7.075   3.349  13.361 -0.0884  0.2558  0.1651
10817W        W26626  17.136  17.621   3.783  0.1598  0.3660 -0.1053
10818W        W26627  17.163  12.102   4.491 -0.1014 -0.0357 -0.2931
10819W        W26628   3.878   7.690   4.229  0.2340  0.1594  0.2735
10820W        W26629  15.730  15.488   4.290  0.2512  0.0232 -0.1995
10821W        W26630   4.226   4.876   0.097 -0.1279 -0.2092  0.1429
10822W        W26631  13.276   6.677  11.253 -0.1335  0.0432 -0.0700
10823W        W26632  15.230   4.305   4.609 -0.0377 -0.3911 -0.0642
10824W        W26633  11.650  17.016   1.191 -0.0217  0.2470  0.1564
10825W        W26634   9.393  16.515   1.136  0.4041  0.1246  0.0388
10826W        W26635  13.043   0.158  12.358 -0.4221 -0.0034 -0.1109
10827W        W26636   4.578   0.053  14.178 -0.0985  0.0224 -0.1156
10828W        W26637  11.322   7.709  12.527  0.0098 -0.1691  0.0173
10829W        W26638   5.288   6.269  16.568  0.1789  0.2309  0.0482
10830W        W26639  13.867  15.582   2.587  0.5731 -0.1028  0.0799
10831W        W26640   8.382   9.025   2.890 -0.1621 -0.1726 -0.0813
10832W        W26641   4.915  17.065  15.132  0.0356  0.0406 -0.0570
10833W        W26642   8.885   8.325   5.390  0.0413  0.0607  0.1596
10834W        W26643   4.522   1.231  13.515  0.1858  0.0999  0.0593
10835W        W26644  17.095   7.912   3.030  0.2452 -0.1337 -0.3995
10836W        W26645   0.610   9.682   5.367 -0.0164  0.0948  0.0895
10837W        W26646  11.562   6.903  15.946  0.1067  0.0276 -0.2843
10838W        W26647  11.568  14.171   0.927  0.0823 -0.1869 -0.3872
10839W        W26648   0.877  14.005   1.543  0.0788 -0.1779 -0.0666
10840W        W26649  11.763   0.662   5.066 -0.2865  0.0618 -0.0350
10841W        W26650   2.116  14.589  12.441  0.0784 -0.2337 -0.1798
10842W        W26651   8.005  16.198  13.897  0.1872  0.0490  0.4420
10843W        W26652   6.748   8.123  11.955 -0.1797  0.1242 -0.0539
10844W        W26653  11.117   2.720   1.838  0.2370 -0.3235  0.1008
10845W        W26654  17.139  15.904   0.744 -0.0579  0.0627 -0.0660
10846W        W26655  11.116   1.028  15.675  0.1269  0.1724 -0.1826
10847W        W26656  12.566   6.955  15.711 -0.2891  0.1578 -0.0299
10848W        W26657   7.601   4.139   5.514 -0.0391 -0.0329  0.0953
10849W        W26658   3.961  13.392  15.918 -0.1728 -0.2555  0.1357
10850W        W26659  11.784  10.775   1.782 -0.2050  0.0111 -0.1766
10851W        W26660   3.213  13.649  15.401  0.0266 -0.1085 -0.0605
10852W        W26661   9.586  15.735   3.188  0.1232  0.1687  0.0841
10853W        W26662   9.996  17.023  12.267 -0.1978 -0.1276  0.3059
10854W        W26663  17.636  17.475   2.955 -0.1085  0.2769  0.2617
10855W        W26664  13.859   8.773  16.790 -0.0927  0.1575  0.0772
10856W        W26665   3.390   3.014  16.905 -0.0095 -0.2201 -0.1626
10857W        W26666   7.759   3.935  13.085 -0.0861  0.2159  0.1302
10858W        W26667   2.089  13.389   4.497 -0.2239  0.3055  0.1103
10859W        W26668   8.009  14.471  11.060  0.0374  0.0258 -0.1706
10860W        W26669  13.018   7.751   1.849  0.0836  0.3028 -0.1305
10861W        W26670  11.460   2.621  16.939  0.0981  0.1994  0.1370
10862W        W26671  14.112   4.615  15.194  0.0924 -0.1846  0.2375
10863W        W26672   0.661  16.390  16.694 -0.0436  0.0863  0.0215
10864W        W26673   4.315   2.355   2.100 -0.0101  0.1329 -0.1364
10865W        W26674  11.538   0.658   1.160 -0.1859  0.3824 -0.0708
10866W        W26675   8.184  12.303   3.997 -0.0050 -0.0804 -0.3532
10867W        W26676   6.753   8.721  15.148 -0.2896 -0.4090 -0.0683
10868W        W26677   4.040   7.766  13.670  0.0353  0.0348  0.4179
10869W        W26678   4.220  15.375  15.343  0.1576  0.0616  0.0968
10870W        W26679   2.710   3.332  13.996  0.3412  0.3602 -0.1658
10871W        W26680  10.615   5.625   4.004  0.0702  0.2136 -0.0141
10872W        W26681   4.812  16.443  13.984 -0.1703 -0.2309 -0.1961
10873W        W26682   8.363  15.164  16.797 -0.1378  0.1725 -0.0109
10874W        W26683  16.549   6.679  11.891 -0.0428 -0.3570 -0.1134
10875W        W26684  11.425  10.684  13.438  0.2082 -0.2349  0.1462
10876W        W26685  11.266   6.636   5.401 -0.0903  0.0464 -0.3517
10877W        W26686   8.527  13.341  13.419 -0.2218  0.1607 -0.1943
10878W        W26687   3.774  12.537  15.296 -0.0125  0.0923 -0.1177
10879W        W26688   2.814  17.227   1.492  0.3537  0.0473  0.1319
10880W        W26689  14.481   4.578  16.013  0.2957 -0.1385 -0.0778
10881W        W26690  16.470   1.147   0.054  0.0905 -0.1588 -0.0463
10882W        W26691  14.255   2.493   3.643 -0.0717 -0.0683  0.0328
10883W        W26692   3.598  10.924  15.904 -0.2323  0.1702  0.0936
10884W        W26693   4.642   8.449   5.169 -0.4627  0.1501 -0.2777
10885W        W26694   8.213  11.929   0.100  0.0734 -0.0251 -0.0477
10886W        W26695  15.540   6.749   5.476  0.0552  0.0003 -0.0856
10887W        W26696   4.861  17.226   5.516  0.1620 -0.1659 -0.1275
10888W        W26697  15.581  15.348   2.553 -0.2853  0.1418  0.0310
10889W        W26698  12.082  17.101  11.284  0.0282 -0.0115 -0.0515
10890W        W26699   2.707   9.485   4.107 -0.3302 -0.1024 -0.2398
10891W        W26700  14.382   8.907  11.918  0.0410  0.0475 -0.0536
10892W        W26701  12.771  14.998  10.958  0.0776  0.1340 -0.0248
10893W        W26702  14.387   0.311   5.338 -0.0474  0.3196 -0.0997
10894W        W26703   3.724   7.247  13.433 -0.4323 -0.0144  0.1295
10895W        W26704  10.712   9.818  11.611  0.0683  0.1640  0.4512
10896W        W26705  17.208   4.031  12.049 -0.2622  0.3275 -0.2563
10897W        W26706  15.813   1.589   3.733  0.1012  0.0360  0.1321
10898W        W26707  15.194  11.195  14.027  0.1249  0.1294 -0.2153
10899W        W26708  13.911   7.138   5.014 -0.0600  0.2161 -0.2289
10900W        W26709  14.320   6.904  15.653 -0.1537 -0.2644 -0.3602
10901W        W26710   6.327  16.411  12.933  0.1349 -0.0113 -0.0062
10902W        W26711  11.218  13.709  12.402  0.0698  0.0947 -0.3219
10903W        W26712   8.772   3.394   0.476  0.2723  0.0048  0.1866
10904W        W26713   9.974   6.203  14.774  0.0661  0.2775  0.1904
10905W        W26714   4.523  13.259  14.081  0.2942  0.1906  0.2178
10906W        W26715  12.857   0.370  14.418 -0.1583  0.2423  0.0722
10907W        W26716   3.479   2.938  14.649 -0.2113 -0.0728 -0.1225
10908W        W26717   4.244   4.845  13.592 -0.2849 -0.1689 -0.2866
10909W        W26718   9.841   4.179   5.286  0.0865 -0.3833  0.2391
10910W        W26719  11.037   7.226  14.559 -0.0580  0.3705 -0.1340
10911W        W26720   3.143  16.806  16.367  0.0321 -0.0073  0.1039
10912W        W26721   6.987   5.643  16.488  0.3075  0.0624 -0.1125
10913W        W26722   9.985  12.038  11.479  0.2932 -0.1260  0.0905
10914W        W26723  16.835   5.946  13.403 -0.0000  0.1020  0.0410
10915W        W26724  13.755   6.088   2.024  0.0944 -0.1185 -0.0624
10916W        W26725   0.485  11.313   5.960 -0.0725  0.3168  0.0159
10917W        W26726   7.208  12.848   0.404  0.2798  0.1186  0.1260
10918W        W26727   7.232   1.465   2.310  0.2808  0.0836  0.1572
10919W        W26728  13.584  11.941  12.647 -0.0559 -0.2150 -0.0126
10920W        W26729   6.137   2.322   1.467  0.4040 -0.2176  0.0481
10921W        W26730   9.801  17.385  11.487 -0.3987 -0.1152 -0.2468
10922W        W26731   3.215  15.299  12.554  0.0666  0.3001 -0.0316
10923W        W26732  17.155   8.347   6.519 -0.0720 -0.0149 -0.2014
10924W        W26733   9.848  15.278   3.258  0.1674 -0.0192  0.2017
10925W        W26734   9.958   5.602   6.251  0.0896 -0.0796  0.0926
10926W        W26735   5.366  12.671   2.542 -0.2128  0.0266  0.7062
10927W        W26736  11.194   0.358  14.405 -0.0381 -0.0256  0.1349
10928W        W26737   5.597  15.299   1.930 -0.1075 -0.0074  0.1807
10929W        W26738   5.361   2.088  15.427 -0.0445  0.1633  0.1301
10930W        W26739   0.280   8.632   5.928  0.4306 -0.1080  0.0856
10931W        W26740  13.684   4.672   0.997 -0.2532 -0.3143  0.0611
10932W        W26741   1.269  13.131  11.189 -0.0927  0.1112  0.0895
10933W        W26742   1.825  10.768   2.656  0.1067  0.3035  0.0614
10934W        W26743  13.846  13.685  13.316  0.1378  0.0862 -0.2833
10935W        W26744   6.028   6.545  15.942 -0.0506 -0.0640  0.0359
10936W        W26745  17.682   7.933  12.770 -0.0163 -0.3701  0.2392
10937W        W26746  16.138  15.166  11.534 -0.1550 -0.0935 -0.0080
10938W        W26747   2.099  14.342  11.681  0.0854  0.3232  0.0698
10939W        W26748  12.955  11.613  13.244 -0.4019  0.1366  0.0680
10940W        W26749   2.211   3.582   2.262  0.1579  0.0403 -0.1152
10941W        W26750   9.248  13.075  16.503  0.2419  0.0266  0.1753
10942W        W26751   1.830  14.402  16.669  0.1206 -0.0353 -0.1372
10943W        W26752   2.909  11.441   2.336 -0.2403 -0.1478  0.1740
10944W        W26753   1.055   6.896  13.258 -0.1093 -0.1713  0.2979
10945W        W26754   8.093   1.054   1.939  0.1364 -0.0479 -0.1430
10946W        W26755  12.178   1.653   3.853  0.1667  0.1348 -0.1600
10947W        W26756   0.949   0.331  14.572  0.3546 -0.2556  0.0897
10948W        W26757   2.228   0.034  13.151 -0.2953  0.0297 -0.0229
10949W        W26758   4.893  15.549  16.052  0.1190  0.2945 -0.2994
10950W        W26759  12.847   4.119  13.771 -0.3528 -0.1655  0.0962
10951W        W26760   9.696   8.003  12.203  0.1839  0.0423  0.1058
10952W        W26761  15.240  10.347   0.623  0.2499 -0.0039 -0.0683
10953W        W26762  13.301   4.810   1.499 -0.2409 -0.1587  0.1974
10954W        W26763   5.398  12.089  15.129 -0.0938  0.2609 -0.0799
10955W        W26764  17.163  11.821  12.119 -0.2291 -0.3063  0.0987
10956W        W26765   8.384  12.039  12.603 -0.0474  0.0917  0.1613
10957W        W26766   3.205  11.869  13.212  0.2198 -0.3476 -0.3908
10958W        W26767  12.204   3.903   1.930  0.2219 -0.0186  0.0547
10959W        W26768   2.447  13.714   3.118  0.3269 -0.2130  0.0489
10960W        W26769  13.113  12.827   1.722  0.1986  0.1055 -0.0564
10961W        W26770  17.276   0.596  15.620 -0.1188 -0.2864  0.1290
10962W        W26771   2.017   8.770  13.137  0.1128 -0.0853  0.0068
10963W        W26772   2.315   0.770   6.324  0.0609  0.1569  0.0062
10964W        W26773   0.848   3.837   4.321 -0.1499 -0.1289 -0.1483
10965W        W26774  15.087  12.582  13.938 -0.0952 -0.1242  0.3151
10966W        W26775  15.927   5.882   5.396 -0.1908  0.1333 -0.1385
10967W        W26776   1.960  17.422   2.540  0.4922  0.1565  0.0656
10968W        W26777   1.522   9.455  16.269  0.1110 -0.0042 -0.1450
10969W        W26778  15.604  15.955  16.143  0.2375 -0.3968  0.0824
10970W        W26779   9.762  14.226  16.546  0.0306 -0.0160  0.1649
10971W        W26780   9.103   9.595   3.798  0.0559 -0.2257 -0.1415
10972W        W26781  11.890   6.937  15.136  0.1158  0.1319  0.2137
10973W        W26782   9.701   5.857  12.817  0.0782  0.0064 -0.0588
10974W        W26783   8.418   4.785  15.351  0.3296  0.1418 -0.0071
10975W        W26784   1.094   7.535   3.445 -0.0491 -0.1313 -0.0684
10976W        W26785   0.798  16.210   1.533 -0.1837 -0.0260  0.1524
10977W        W26786   6.587   2.725  11.815 -0.0771 -0.3023  0.2639
10978W        W26787   9.108   4.177   6.345  0.0219 -0.2110 -0.4644
10979W        W26788  17.411   1.796   1.953  0.1397 -0.3507 -0.0926
10980W        W26789  16.499  10.430   2.866 -0.1700  0.1231 -0.0912
10981W        W26790  12.781  10.317   2.503 -0.4738 -0.1779  0.1524
10982W        W26791   2.434   8.895   2.129 -0.0454 -0.0032 -0.1495
10983W        W26792  16.816  17.169  15.706  0.0174 -0.1938  0.2787
10984W        W26793   8.176  13.929   2.290 -0.0162 -0.1436 -0.2714
10985W        W26794  13.044  10.236   3.393 -0.0092 -0.3989  0.0437
10986W        W26795  14.383  10.088   5.865  0.1568 -0.0069 -0.1157
10987W        W26796   3.693   7.782  15.852  0.0026  0.0092 -0.1859
10988W        W26797   4.964  13.781  16.834  0.1477 -0.3192  0.2627
10989W        W26798   2.834  10.264  16.080 -0.2780 -0.0217 -0.0532
10990W        W26799   5.672   5.187   5.111  0.0428 -0.0049 -0.0681
10991W        W26800   0.470   9.844   3.206 -0.1235 -0.4064  0.3150
10992W        W26801  12.626  11.175   3.765  0.2286 -0.1188 -0.0833
10993W        W26802   1.897  15.935   5.241 -0.2398  0.1908  0.3557
10994W        W26803   5.341  13.462   1.022  0.1910 -0.2581  0.3622
10995W        W26804  17.221   7.354  16.751 -0.0358 -0.1270 -0.2775
10996W        W26805   5.603  14.031  16.643 -0.0652  0.0682 -0.0509
10997W        W26806   7.580  16.808  14.902 -0.1083 -0.0675  0.1374
10998W        W26807  10.158   2.256  14.986 -0.0875 -0.1717  0.1715
10999W        W26808  15.869  15.020  14.507  0.0357  0.0946 -0.1500
11000W        W26809  13.087  10.813   1.418 -0.0265 -0.3619  0.0082
11001W        W26810   0.392  14.020  14.658  0.1677 -0.3304 -0.0001
11002W        W26811  17.158  11.665  15.582  0.1168 -0.1835 -0.1827
11003W        W26812   8.992   0.832  16.011  0.3296  0.2272 -0.1994
11004W        W26813  17.129  12.644  15.501 -0.0225 -0.1346  0.3000
11005W        W26814  11.654   7.833  13.988  0.0796 -0.2386  0.4231
11006W        W26815   9.620  14.828  13.026 -0.1314  0.2365 -0.0834
11007W        W26816   3.973   3.671  13.347  0.1471 -0.4250  0.2852
11008W        W26817   0.037  14.055  16.852  0.0506 -0.1142 -0.3385
11009W        W26818  13.082   1.798  14.702 -0.4465  0.1683  0.0416
11010W        W26819  12.453   9.175   2.973 -0.2658  0.0034  0.0244
11011W        W26820   8.871   9.672  12.598  0.1551 -0.0856 -0.0018
11012W        W26821  15.479   2.211   4.394  0.2137  0.1798  0.1347
11013W        W26822  12.627  16.200   1.199 -0.1113 -0.0420  0.0113
11014W        W26823   0.844   6.168   4.949  0.4449  0.1584  0.0710
11015W        W26824   8.969   3.299   2.689 -0.0903 -0.1611 -0.0576
11016W        W26825   7.048   3.664  15.152  0.2545  0.0863  0.0797
11017W        W26826   5.718   7.288   4.421 -0.0127  0.1579  0.0708
11018W        W26827  12.305  10.831   3.531 -0.0430  0.2924 -0.1480
11019W        W26828   6.444   7.857  16.409 -0.1003 -0.4298  0.3059
11020W        W26829  14.571  14.649   5.007  0.2409  0.2194  0.2026
11021W        W26830  17.508  11.883   5.648  0.2117 -0.0757  0.0719
11022W        W26831   8.977  11.992  13.381 -0.4126 -0.0207 -0.3980
11023W        W26832   7.172  10.748   1.732  0.0459 -0.2554 -0.1717
11024W        W26833  17.432  13.123  16.642  0.0525  0.0133  0.0430
11025W        W26834   8.187   8.237   1.143  0.0214  0.0433  0.0157
11026W        W26835   8.307  14.796  10.814 -0.1009  0.0489  0.0104
11027W        W26836  12.397  13.536  16.913 -0.0033  0.1610  0.0077
11028W        W26837   3.302  13.897   2.730 -0.1687 -0.0281 -0.0073
11029W        W26838   6.814   6.650   3.225  0.3828  0.1291 -0.0783
11030W        W26839   7.741   2.957  15.535  0.1163 -0.2147  0.0794
11031W        W26840  15.498  17.432   3.867  0.2708 -0.2864 -0.1192
11032W        W26841   9.599  15.408   0.157  0.0193  0.1476 -0.1152
11033W        W26842  11.756   4.218   5.727 -0.2605 -0.1931  0.2459
11034W        W26843  14.275   0.820   2.291 -0.0284  0.0650 -0.1472
11035W        W26844   6.454   6.155   3.663  0.0332 -0.0939  0.1040
11036W        W26845   2.353  16.653  12.831  0.1094 -0.0064  0.0187
11037W        W26846  14.497  17.236  16.774 -0.0387  0.0041 -0.3065
11038W        W26847   5.661   8.192  12.651 -0.1448  0.2059 -0.1487
11039W        W26848   6.253   8.404  14.045  0.0484  0.0305  0.1565
11040W        W26849   8.941   1.420  14.257 -0.0941 -0.1246  0.0378
11041W        W26850   2.732  11.572  13.165 -0.2260 -0.0167 -0.2146
11042W        W26851  12.892   5.925  14.248 -0.0212  0.1536  0.3143
11043W        W26852  15.953  13.249  13.994 -0.2369  0.1536  0.1663
11044W        W26853  10.222  12.153  12.422  0.1933  0.0448  0.2278
11045W        W26854  17.218   7.468   0.657  0.0146 -0.1077 -0.3347
11046W        W26855  14.751  10.744  12.747  0.0768  0.0372  0.2197
11047W        W26856  15.577   7.352  12.960  0.0628  0.2663  0.0173
11048W        W26857   9.195  10.685   2.133 -0.0759 -0.0390  0.0472
11049W        W26858  10.703  14.833   2.977 -0.0504  0.1356 -0.0409
11050W        W26859   4.450  17.421  12.045  0.0883 -0.2421 -0.0346
11051W        W26860   0.419  10.196  12.735  0.1487 -0.1681 -0.0908
11052W        W26861  14.209   1.587  15.703  0.0229  0.2203  0.1210
11053W        W26862  14.278   5.407   4.132 -0.0015 -0.1049  0.1904
11054W        W26863  10.237  16.668   1.019  0.0275  0.0890 -0.0675
11055W        W26864   2.073   0.605  16.405  0.1412  0.0721 -0.0190
11056W        W26865   7.933  14.620  15.445  0.1746  0.0077  0.3513
11057W        W26866  14.247  17.345   0.255 -0.0639  0.3108  0.0901
11058W        W26867   5.056   5.325  15.195  0.0520 -0.1290 -0.1572
11059W        W26868   7.865   1.267  16.496 -0.1077  0.1344  0.2651
11060W        W26869   5.434   6.509   0.423  0.0945  0.0233  0.0000
11061W        W26870  16.111   5.816   4.865  0.0103 -0.2655 -0.2325
11062W        W26871   6.428  16.614   1.929 -0.2082 -0.0500  0.2332
11063W        W26872   3.562   0.492  15.574  0.0028  0.3246 -0.1053
11064W        W26873   4.488  16.076  15.737  0.0188  0.1925 -0.0282
11065W        W26874   4.170   6.009  15.513 -0.4227 -0.0598  0.1257
11066W        W26875  15.934   4.850   1.239 -0.1568  0.1905  0.2024
11067W        W26876  14.897   6.979   3.196  0.3041 -0.1059  0.2561
11068W        W26877   7.020   8.792   2.266 -0.0820 -0.1370 -0.0072
11069W        W26878   3.152   4.652   5.799  0.0044 -0.1518  0.0463
11070W        W26879   2.142  14.734   2.949 -0.0804 -0.0929  0.0566
11071W        W26880  11.977  12.142   3.726 -0.1217  0.1061  0.1434
11072W        W26881   9.853   1.368  15.317  0.3725  0.0162  0.0605
11073W        W26882  14.341   3.026   4.902  0.1800  0.1352 -0.0701
11074W        W26883   7.767   7.739   0.033 -0.0051 -0.1172  0.3852
11075W        W26884  17.664  10.951   5.634  0.0850 -0.1015 -0.1913
11076W        W26885  15.360   0.207   5.388  0.0784  0.0269  0.1310
11077W        W26886   2.505   4.511  12.994 -0.1078  0.0923 -0.0032
11078W        W26887  16.758   4.291  12.532  0.0848  0.0402 -0.1523
11079W        W26888  17.390  10.986  15.133  0.1212 -0.0757 -0.1417
11080W        W26889  12.510  11.894  11.354 -0.0661  0.0391  0.0283
11081W        W26890  12.819  12.376   0.704  0.1120 -0.0964 -0.1261
11082W        W26891   6.270   3.851   1.090 -0.2186  0.4314 -0.0372
11083W        W26892  12.248   0.033   3.116 -0.2831  0.2246  0.0425
11084W        W26893  12.629   2.644   2.849  0.0710 -0.2120  0.1565
11085W        W26894  13.552  13.887   3.682 -0.1917 -0.1100 -0.0811
11086W        W26895  16.265  11.280   4.437  0.0242  0.0351  0.2496
11087W        W26896  17.671  15.616   3.751 -0.2360  0.1393 -0.0785
11088W        W26897   4.399   4.899   4.063  0.0524  0.0236  0.0230
11089W        W26898  17.100  15.732   1.989  0.2206 -0.3115 -0.0752
11090W        W26899   2.457  11.107  15.374  0.2013 -0.1547  0.1133
11091W        W26900   5.314  10.254  15.125 -0.0084 -0.2937  0.0128
11092W        W26901  13.601   4.661   2.470  0.1869 -0.0256  0.1609
11093W        W26902   6.487   8.987  11.892 -0.1936 -0.2636 -0.0685
11094W        W26903   0.797   3.183  14.030 -0.2423 -0.4150  0.2309
11095W        W26904   7.065   2.030   2.494  0.1945 -0.0058 -0.0036
11096W        W26905  14.650  17.737  11.901  0.1349  0.0180  0.0322
11097W        W26906   2.775  11.550   0.097 -0.1530 -0.1026 -0.0410
11098W        W26907   8.369   7.672  13.512  0.0896 -0.2305 -0.4031
11099W        W26908  14.271  12.895   4.094 -0.2372 -0.0352  0.0569
11100W        W26909   8.580   6.062  13.289  0.0391  0.1614  0.2794
11101W        W26910   4.586   3.613   4.416 -0.2026  0.0506  0.0818
11102W        W26911   8.168   5.594  16.799 -0.1818 -0.2700 -0.1209
11103W        W26912   1.476   2.970   0.038 -0.1366 -0.0910 -0.1504
11104W        W26913   3.882   6.943  12.004 -0.0842 -0.1069  0.2241
11105W        W26914   3.946  14.941   2.678  0.1965 -0.3304  0.0163
11106W        W26915  15.527   3.456   0.142 -0.0616  0.0058 -0.1240
11107W        W26916  11.484   9.243   5.581  0.0869  0.0926  0.2202
11108W        W26917   0.978   2.051  12.531  0.1396  0.2821 -0.4371
11109W        W26918   7.269  13.118  12.082  0.0395  0.1465  0.0972
11110W        W26919   2.448   4.266   1.456 -0.1305 -0.1265 -0.0213
11111W        W26920  13.843  10.392  15.894 -0.1997  0.0235  0.0072
11112W        W26921   4.261   1.691   3.794  0.0879  0.1281  0.0094
11113W        W26922   5.066   2.034  13.682  0.0657  0.1575  0.2457
11114W        W26923  16.993  13.776  12.815  0.0763 -0.0718  0.1185
11115W        W26924  14.808   4.607  13.536  0.2650  0.4025  0.1535
11116W        W26925  13.657  15.772  14.556 -0.2466 -0.0182  0.2330
11117W        W26926   2.991   3.051   3.320  0.1774 -0.1046 -0.2065
11118W        W26927   5.808  11.517  12.531 -0.1193 -0.2411  0.1269
11119W        W26928   9.241   5.851   0.813 -0.0963 -0.0210  0.4556
11120W        W26929   2.312   7.669  13.706  0.1675  0.0411  0.1011
11121W        W26930   8.548   4.368   5.642 -0.2805  0.3064  0.0315
11122W        W26931   1.375   5.331   5.934  0.2307 -0.1078  0.1202
11123W        W26932  16.046   3.332  16.430  0.0646  0.0476 -0.0178
11124W        W26933   8.038  13.750  12.722  0.1959 -0.0864 -0.4770
11125W        W26934   5.415   0.280   1.651 -0.1667 -0.2982  0.0559
11126W        W26935   3.523  11.666  12.508  0.1138  0.1978 -0.2433
11127W        W26936   3.466  17.149  15.101  0.0196  0.2516 -0.1989
11128W        W26937  10.048   7.106  16.258  0.1383 -0.0336  0.3049
11129W        W26938   2.683  17.228   0.988 -0.0288 -0.1091  0.0287
11130W        W26939   0.597   5.629  12.778 -0.0006  0.0024  0.2387
11131W        W26940   9.815  11.641   1.049 -0.2415  0.2592  0.1428
11132W        W26941   3.811   5.308   3.879  0.2552 -0.0797  0.1629
11133W        W26942  16.483   9.734  15.600 -0.0378  0.0070 -0.0089
11134W        W26943   3.602  12.687   3.298 -0.2470  0.2051  0.1013
11135W        W26944   4.167   7.214   0.045 -0.0572 -0.0222  0.3030
11136W        W26945   1.913   3.963   6.824 -0.1197 -0.0600 -0.1663
11137W        W26946  11.351  10.126  15.500  0.1900  0.1165  0.2868
11138W        W26947  15.276  10.536  15.846 -0.4079  0.3938  0.0851
11139W        W26948   8.707  17.692   3.464 -0.0025 -0.0870  0.1798
11140W        W26949  10.235   8.966   3.167 -0.0627 -0.0132  0.0790
11141W        W26950  16.338   0.888   2.984  0.1168  0.0046  0.0439
11142W        W26951   4.726   2.884  12.674  0.2285 -0.0406  0.2061
11143W        W26952  10.228   9.137  14.346  0.1642  0.0099  0.4020
11144W        W26953   0.746  12.423   0.075  0.0133  0.0720 -0.0873
11145W        W26954   7.936  11.503   3.387  0.0533 -0.0563  0.0556
11146W        W26955   1.457   5.017   4.598 -0.0874 -0.2021  0.0343
11147W        W26956  14.515   2.864  12.959  0.0607  0.1192 -0.0591
11148W        W26957   8.604  11.144  12.752  0.1046  0.1827 -0.2567
11149W        W26958  14.368  15.948   4.214  0.1522 -0.1509  0.2890
11150W        W26959  11.194  15.529  13.977 -0.3426  0.1578  0.3406
11151W        W26960   8.078   5.443   3.202 -0.1541  0.1689 -0.3465
11152W        W26961   2.343   3.407   5.313 -0.0736  0.0670  0.4065
11153W        W26962  12.112   6.931   0.512 -0.0781  0.1649  0.0926
11154W        W26963   5.887   4.097   0.182 -0.1788 -0.1041 -0.2236
11155W        W26964  13.711   7.319  14.624 -0.0101 -0.0295  0.0622
11156W        W26965   4.690   9.291  12.895 -0.0339 -0.1231 -0.2298
11157W        W26966  10.578  13.289   2.889  0.1867 -0.1130 -0.1030
11158W        W26967  12.162   9.706  12.857  0.1547  0.1824  0.2242
11159W        W26968  17.226  17.596  12.579  0.1968  0.0565  0.1958
11160W        W26969  15.871  15.553  11.837 -0.0282  0.1439 -0.1350
11161W        W26970   9.199  11.054   3.072 -0.0085 -0.0655  0.2847
11162W        W26971   1.022  13.899  16.638 -0.2242  0.1904 -0.1085
11163W        W26972  13.560  14.349   2.043  0.2263  0.1698  0.0335
11164W        W26973   8.909   2.818  13.769 -0.4220  0.0854  0.0426
11165W        W26974   0.692   1.158   3.865  0.2648  0.1189 -0.2435
11166W        W26975   1.932  14.774   1.923  0.3370  0.2343 -0.2583
11167W        W26976   8.172  11.768  12.955 -0.2062 -0.1695  0.1044
11168W        W26977   0.704  10.265   3.145 -0.0398  0.3512 -0.2532
11169W        W26978   3.181  15.996   0.374  0.0472  0.2307 -0.0082
11170W        W26979   0.814   7.066   2.744 -0.2841  0.1559 -0.1026
11171W        W26980   5.321  16.090  14.413  0.0428 -0.3121 -0.1300
11172W        W26981  11.577   3.139   1.970 -0.1407 -0.2439  0.2631
11173W        W26982   3.473   9.494   5.408 -0.0976 -0.1587 -0.1385
11174W        W26983  11.737  11.124   1.438 -0.4639  0.0540 -0.0760
11175W        W26984   2.912  15.699   4.737 -0.0684 -0.1381 -0.0949
11176W        W26985   0.216   3.717  12.766 -0.2133  0.1605  0.0677
11177W        W26986  15.208   7.154   4.776 -0.1975  0.0420 -0.0735
11178W        W26987  14.166   4.975   3.852  0.0579 -0.0553 -0.1984
11179W        W26988   6.124   9.835   5.433 -0.0971 -0.1206  0.0703
11180W        W26989  13.196  13.896   3.331  0.1574  0.1949 -0.0415
11181W        W26990  17.394  10.408  16.965  0.1456  0.1016 -0.1414
11182W        W26991  16.689  12.944  11.490  0.0234  0.1808 -0.2163
11183W        W26992   1.102  10.552  14.658  0.1175  0.1027 -0.0405
11184W        W26993   4.505   5.940   2.588 -0.2709 -0.2626 -0.1943
11185W        W26994  17.733   3.996   4.975 -0.0030 -0.2483  0.1604
11186W        W26995   2.885  12.423  14.202  0.3467  0.2618  0.1160
11187W        W26996   7.160  11.537  11.982 -0.1474  0.2481  0.0964
11188W        W26997  17.047  12.958   1.868  0.1509  0.0408  0.1097
11189W        W26998  17.195   1.259  12.345  0.3903 -0.2889  0.3759
11190W        W26999  12.040  16.844   3.411 -0.3933 -0.1405 -0.1504
11191W        W27000   4.578  16.136   0.442  0.0620  0.2577  0.3132
11192W        W27001  15.147   0.609   2.340  0.1817  0.0489 -0.1858
11193W        W27002  13.452  17.435  14.505  0.3942 -0.1075 -0.2306
11194W        W27003  13.485  12.434  14.061  0.1424  0.0300 -0.3793
11195W        W27004   5.643  10.099  13.013  0.1076 -0.0687 -0.0734
11196W        W27005  12.024   7.961   0.174  0.2386 -0.0157  0.2461
11197W        W27006  11.664   3.239   2.819 -0.1385  0.0165  0.0017
11198W        W27007   0.729   4.430   1.875 -0.1232 -0.0571 -0.0950
11199W        W27008   6.583  13.822   6.187 -0.0705 -0.1063 -0.1469
11200W        W27009  11.153  17.070   3.590  0.2651 -0.0192 -0.0845
11201W        W27010   0.888   7.189   4.920  0.0534 -0.2452 -0.1024
11202W        W27011  16.664  17.695   2.735  0.0366  0.0710 -0.1260
11203W        W27012  14.296   0.528  15.958  0.1439  0.0476  0.2614
11204W        W27013  15.103  12.484  14.511 -0.0408  0.4005 -0.1376
11205W        W27014  15.714  10.040  12.751  0.0172 -0.0469  0.1154
11206W        W27015   0.758  15.129   5.701  0.2774  0.0350 -0.0966
11207W        W27016  17.243  13.564   1.054  0.2864 -0.1453  0.2959
11208W        W27017   1.313   3.170  16.627 -0.0564 -0.2184  0.2075
11209W        W27018   6.353  14.227  14.024 -0.0047  0.1091  0.0708
11210W        W27019   6.965  11.008  11.475  0.2557  0.0552 -0.2475
11211W        W27020  12.245  15.695  13.037 -0.1392  0.2444 -0.0010
11212W        W27021  14.976  10.753  15.495  0.0936 -0.2469 -0.1383
11213W        W27022   8.976  13.313   3.720 -0.0791  0.1525 -0.2840
11214W        W27023   5.058  15.257  13.763  0.1269 -0.2772  0.0110
11215W        W27024   1.333  16.364  12.029  0.2460  0.1744 -0.0730
11216W        W27025   8.999  14.542  16.399 -0.1150  0.1095 -0.1318
11217W        W27026   1.587   6.291  15.198 -0.3032 -0.0543  0.1871
11218W        W27027   2.990   2.804   5.007  0.1826  0.0764 -0.0921
11219W        W27028   0.779   4.701  15.760 -0.0294  0.0939 -0.0256
11220W        W27029   5.324  14.332   4.778  0.1794 -0.2089 -0.2713
11221W        W27030   9.106  10.948   6.327 -0.0726 -0.0421  0.0402
11222W        W27031  13.543   1.006  14.659 -0.1559  0.1036 -0.0265
11223W        W27032   3.230  14.794  16.831  0.0277  0.1156 -0.1176
11224W        W27033  14.265  12.816  14.467  0.2768 -0.0450  0.1082
11225W        W27034   1.004   6.773   5.827 -0.2099  0.1046 -0.0475
11226W        W27035  10.091  15.873  16.285  0.2349  0.0920 -0.0598
11227W        W27036  15.577   7.119   6.436 -0.0442 -0.1504  0.0847
11228W        W27037  14.747   9.020  12.695 -0.0788 -0.2011  0.0880
11229W        W27038   2.586  14.899   5.657 -0.0395 -0.1433  0.2359
11230W        W27039   7.121  14.366   3.396 -0.3129 -0.1287 -0.0383
11231W        W27040  17.302   3.883   5.231  0.1820  0.0408  0.1543
11232W        W27041   1.386   2.340   0.641 -0.2196  0.1170 -0.0093
11233W        W27042  11.958   5.595  16.129  0.0634  0.0253 -0.1178
11234W        W27043  14.224  17.170   4.653  0.0466 -0.1515  0.1949
11235W        W27044   5.982   6.930   3.159  0.1693 -0.2666 -0.0936
11236W        W27045  16.798   1.685  15.243  0.0720 -0.0036 -0.2899
11237W        W27046  17.274  15.007  13.760  0.0342  0.3699 -0.1136
11238W        W27047   0.510   9.982  14.281  0.2206 -0.0746 -0.2676
11239W        W27048   4.987  12.967  15.103 -0.0737  0.1943  0.1749
11240W        W27049   7.444  10.336   2.421 -0.0573 -0.0989 -0.1801
11241W        W27050   8.286   8.790   4.875 -0.1115  0.0801 -0.1613
11242W        W27051  12.335  10.535   4.124  0.2467 -0.0523  0.3258
11243W        W27052  11.184   5.758   4.383  0.3657  0.1246  0.0103
11244W        W27053   4.069   8.200  14.146  0.0849  0.3861 -0.0433
11245W        W27054  13.154  13.813  15.696 -0.1963  0.0496  0.0667
11246W        W27055  16.936  11.194  15.277  0.2663  0.1639 -0.2304
11247W        W27056   2.643  17.204   2.043  0.2657  0.1136 -0.1284
11248W        W27057   0.924  14.483   0.824  0.0126  0.1459  0.2122
11249W        W27058  13.964   7.378   1.619  0.1039 -0.0133 -0.1163
11250W        W27059  15.812   9.812  12.244 -0.2977 -0.2750 -0.2656
11251W        W27060  12.655  14.151   1.701 -0.0854 -0.3397 -0.2660
11252W        W27061  13.427   2.512   0.249  0.0180 -0.0194 -0.3546
11253W        W27062   9.745   2.204   4.681  0.3419 -0.1663  0.1203
11254W        W27063   7.545  16.072   1.467 -0.0793  0.0779 -0.2974
11255W        W27064  13.535   6.158   0.932  0.0016  0.1896  0.1100
11256W        W27065  10.958   3.329   6.587  0.1344 -0.1718 -0.0713
11257W        W27066   3.991  15.879   2.989 -0.0923 -0.0153 -0.1929
11258W        W27067  15.327   2.442  12.816 -0.0734 -0.4683  0.0305
11259W        W27068  14.133   5.523  15.515 -0.0849 -0.0618 -0.1495
11260W        W27069   7.787   5.064   1.853 -0.3137  0.3083  0.1804
11261W        W27070  15.384  16.784  11.537 -0.0819  0.0572  0.3127
11262W        W27071   4.234  13.595  11.204 -0.2222 -0.3276 -0.0561
11263W        W27072   7.289   7.685   4.035  0.0572  0.0624 -0.2313
11264W        W27073   2.556   3.993   4.466 -0.0166 -0.0589 -0.0880
11265W        W27074  10.445   6.071   2.303  0.0333 -0.0321 -0.1672
11266W        W27075   1.905   9.190  16.547 -0.0179  0.1527  0.0838
11267W        W27076   7.242   7.191   1.810 -0.1304 -0.0612  0.0328
11268W        W27077  15.593  12.572  10.482  0.4050 -0.1890 -0.1402
11269W        W27078  14.846  15.354  14.908  0.1618  0.0209  0.2990
11270W        W27079  15.875  11.364  16.949 -0.1668 -0.0218 -0.3796
11271W        W27080  16.961   5.324  13.446  0.1814 -0.1721 -0.1101
11272W        W27081  11.748  11.185   2.145 -0.0844  0.2360  0.2508
11273W        W27082  14.091   5.412  11.139  0.0675  0.0082 -0.0953
11274W        W27083   1.075  16.840  15.739 -0.1246 -0.0684  0.1112
11275W        W27084   8.717   5.132  14.491  0.4307 -0.1526  0.0342
11276W        W27085   6.935   0.706   2.560  0.1013 -0.0646 -0.0031
11277W        W27086  14.685   5.555   4.425 -0.2098  0.0710  0.0738
11278W        W27087  13.973   2.620   2.080  0.0607 -0.0216 -0.0777
11279W        W27088   4.824  10.309   3.399 -0.1045  0.1242  0.2823
11280W        W27089  10.908   9.787  16.944  0.0720  0.0353 -0.0521
11281W        W27090  17.272   1.115   4.473  0.0761  0.2124  0.1663
11282W        W27091   3.764  10.406   4.908 -0.0995  0.2077 -0.0388
11283W        W27092  10.754  11.819  15.395  0.0116  0.2094  0.1901
11284W        W27093  13.978   5.916  14.739  0.0043 -0.0183  0.2038
11285W        W27094   8.490  10.339  15.218  0.0142  0.0413 -0.1442
11286W        W27095   9.977  12.403   1.791 -0.2741  0.2372  0.0554
11287W        W27096   8.647   5.491   2.111  0.1115 -0.1401  0.0158
11288W        W27097   6.210  10.260   1.786  0.1435 -0.2090 -0.0608
11289W        W27098   5.516   5.750   0.519 -0.0306 -0.1455  0.2953
11290W        W27099   0.986   6.642   0.591  0.0662  0.0909  0.1155
11291W        W27100   5.536  15.138   5.864  0.0152  0.1167  0.0040
11292W        W27101  11.092  17.583   5.635  0.2384  0.4987 -0.0263
11293W        W27102   9.799  12.033  14.221  0.0531  0.0623  0.0641
11294W        W27103   8.993   0.830   1.943 -0.2065  0.1028  0.2837
11295W        W27104   9.614  17.179  14.146  0.1323  0.2184 -0.1863
11296W        W27105  10.306  15.456  15.990  0.1362 -0.2814 -0.2585
11297W        W27106  10.352  14.261  14.131  0.1358  0.0569 -0.1236
11298W        W27107   5.277  14.800  10.898 -0.0291  0.3730  0.0923
11299W        W27108  12.937  17.185  15.191 -0.1460  0.1019  0.2099
11300W        W27109  11.712  17.459  13.457  0.0463  0.1348 -0.2288
11301W        W27110  11.756  13.619   4.492 -0.0570 -0.4303 -0.2327
11302W        W27111   0.306   8.580  16.611 -0.0994 -0.1466  0.2262
11303W        W27112   0.242  14.472   5.221 -0.1936  0.0866  0.2492
11304W        W27113  15.974  14.064   4.525 -0.0541 -0.3863  0.0795
11305W        W27114  10.032  15.297  15.576  0.0298 -0.0892 -0.0334
11306W        W27115   0.999   6.811  15.567 -0.0224 -0.3565  0.2597
11307W        W27116  15.755  16.623  12.575  0.1036 -0.0288  0.1226
11308W        W27117  16.737  11.782   2.523 -0.0576  0.2543 -0.1016
11309W        W27118   3.823   6.806   0.631 -0.0264  0.0026  0.2386
11310W        W27119   3.163  10.153   0.938 -0.0092 -0.3151  0.0816
11311W        W27120   1.041   8.427  11.559  0.3318  0.0418  0.0477
11312W        W27121  11.576  10.681   4.838  0.0924 -0.0291 -0.0326
11313W        W27122  10.901   3.682   0.318 -0.0546 -0.1142 -0.1019
11314W        W27123   8.762   8.006  13.338 -0.0025  0.0982 -0.1793
11315W        W27124  10.876  15.549   2.511 -0.0031  0.1695 -0.1918
11316W        W27125   9.781   3.990  14.234  0.1043 -0.0397  0.3259
11317W        W27126  11.189  12.122  15.289 -0.0091 -0.3576 -0.1334
11318W        W27127   4.439  10.204   1.337  0.3031 -0.2562 -0.0350
11319W        W27128   6.781  11.187  16.405  0.1339 -0.0162  0.0206
11320W        W27129  12.612  14.174  13.760  0.0590  0.1476  0.0413
11321W        W27130   3.279   3.287  12.603 -0.1120  0.1420 -0.0676
11322W        W27131  16.022  12.415  14.538  0.1009 -0.0892 -0.1055
11323W        W27132   1.462   1.154   5.073 -0.3283 -0.0114 -0.0596
11324W        W27133  11.486  16.381  16.580  0.0263  0.0474  0.0854
11325W        W27134   7.614  11.823  15.792  0.1214  0.0019  0.1896
11326W        W27135   7.090   4.809   5.854 -0.0143 -0.2548 -0.1746
11327W        W27136   8.988   8.377   0.252 -0.1654  0.3634 -0.0372
11328W        W27137   6.982   0.494   0.381 -0.0557 -0.0727  0.1804
11329W        W27138  13.541   7.601   0.798  0.1341  0.1009  0.1050
11330W        W27139  12.366   3.574   2.414  0.1826  0.0945 -0.2194
11331W        W27140   0.223   1.502   0.191 -0.2762 -0.0893 -0.2267
11332W        W27141   8.547  14.128   5.223  0.2088  0.0055  0.1542
11333W        W27142  11.207   7.973  14.097  0.2437 -0.4769  0.1064
11334W        W27143   3.281  16.595   2.051 -0.0024 -0.2293  0.0999
11335W        W27144   1.459  14.873   2.081 -0.0947 -0.0065 -0.0990
11336W        W27145  14.616   5.038  14.581 -0.0813 -0.2011 -0.5106
11337W        W27146  17.691   5.936   3.449  0.3575 -0.0377 -0.0974
11338W        W27147   7.833   1.411  11.868  0.1512  0.0930 -0.1409
11339W        W27148   8.806   9.735   1.457 -0.0085  0.0443  0.2903
11340W        W27149  15.340   0.789  12.191 -0.4327  0.1152 -0.0206
11341W        W27150  11.985   5.419  12.192 -0.1558 -0.0697  0.0440
11342W        W27151   3.173   0.514   1.046 -0.3214  0.5867 -0.0448
11343W        W27152   4.050   9.094  16.939 -0.0630 -0.0642  0.1113
11344W        W27153   6.271   0.313  14.790 -0.2314 -0.1487 -0.0176
11345W        W27154  14.551  14.568  11.177 -0.3159 -0.3238 -0.0408
11346W        W27155   7.177  16.267   4.968 -0.1186  0.0218  0.0246
11347W        W27156   5.744  10.749   4.820 -0.1004  0.0356  0.1475
11348W        W27157  13.604   0.978   3.420 -0.2727 -0.0029  0.0595
11349W        W27158  15.687  12.997  12.640  0.0249 -0.1907  0.1978
11350W        W27159   0.755  10.627  16.367 -0.2833  0.1555 -0.0426
11351W        W27160   2.887  12.549   5.536  0.1981  0.2589 -0.1060
11352W        W27161   3.379   8.717   4.625 -0.0513  0.0682 -0.1284
11353W        W27162  16.500   2.422   2.949  0.0357  0.3293  0.0467
11354W        W27163   4.489   1.827   5.348 -0.0915 -0.1873  0.2315
11355W        W27164   9.459   5.794   2.337  0.1925 -0.0078 -0.1683
11356W        W27165   1.679  10.310  13.840 -0.2180 -0.1189  0.1351
11357W        W27166   9.573   8.015   2.230 -0.3668  0.0887  0.0800
11358W        W27167   7.886   5.936   3.252 -0.1281  0.4841 -0.2746
11359W        W27168   6.786  12.899  11.330  0.0838  0.2407 -0.2828
11360W        W27169   8.105  16.419   1.197 -0.0787  0.0634 -0.3887
11361W        W27170   1.406   3.749   4.539  0.2336 -0.1361 -0.2771
11362W        W27171  12.553   8.441   3.645  0.0888  0.0827 -0.0525
11363W        W27172  17.730   3.103  12.086  0.1742 -0.0860  0.3974
11364W        W27173   2.213   4.710  13.424 -0.1318  0.1760 -0.2424
11365W        W27174   4.988   8.002   1.489 -0.2306 -0.0895 -0.1643
11366W        W27175  13.138   4.952  16.610  0.1994 -0.0530  0.0528
11367W        W27176   9.802  12.243   3.660 -0.2477 -0.0039 -0.3090
11368W        W27177   2.501   6.254   5.501 -0.0661  0.0549  0.3166
11369W        W27178   6.253  14.629  15.921  0.1992  0.2670  0.1737
11370W        W27179   8.026   6.485   0.538  0.0190 -0.1541  0.0295
11371W        W27180   3.457   7.673  16.371  0.1332  0.2932 -0.1834
11372W        W27181  13.491  13.627   9.977 -0.0203 -0.0189  0.1500
11373W        W27182  12.091   7.618   1.606  0.0863 -0.0012 -0.0052
11374W        W27183   1.572  12.349  16.589 -0.0433 -0.0063  0.0092
11375W        W27184  16.317  12.752   5.818 -0.2838  0.1408 -0.0588
11376W        W27185   5.708  13.968   4.767  0.0419 -0.2200  0.0170
11377W        W27186   3.632   7.393  11.994  0.2193  0.2200 -0.1287
11378W        W27187   8.331   1.515   3.061 -0.2219  0.0809  0.1640
11379W        W27188  13.154  10.707   3.667  0.0955 -0.0880  0.1334
11380W        W27189  11.393  10.150  16.822 -0.2773  0.0027 -0.0328
11381W        W27190   8.049  11.455   1.194  0.0187 -0.2606  0.0379
11382W        W27191  16.387  14.026  11.394 -0.0825  0.3445 -0.3059
11383W        W27192   8.101  14.813   5.125 -0.0411  0.1097 -0.0396
11384W        W27193   4.716   8.770   2.098  0.1137  0.1332 -0.0111
11385W        W27194   9.217  15.400   1.898 -0.1896  0.2813 -0.1338
11386W        W27195   0.817   2.131   1.634 -0.2935 -0.2937  0.2651
11387W        W27196   5.569   0.425  14.602  0.0406 -0.0324 -0.1025
11388W        W27197   0.643   0.022  16.290 -0.2436  0.0463  0.1018
11389W        W27198   6.593   5.755   4.894  0.1329 -0.1775 -0.0590
11390W        W27199  17.464   7.053   0.630 -0.0397  0.1526  0.1375
11391W        W27200   7.988  12.155   0.496  0.0887  0.0265 -0.1265
11392W        W27201   3.324   4.842  15.651  0.1012  0.2239  0.1239
11393W        W27202  11.935  13.138  13.242  0.0075  0.2645 -0.1281
11394W        W27203   7.652  16.449   4.299  0.3720  0.1265  0.2927
11395W        W27204   2.141  13.701  16.272  0.1505 -0.2422  0.1030
11396W        W27205   7.503   4.931   4.317 -0.0758 -0.1608  0.1276
11397W        W27206   5.345  10.514  11.793 -0.0371  0.0662 -0.1652
11398W        W27207   1.395  15.011  12.947  0.3147  0.1886 -0.2058
11399W        W27208   5.568   1.171   3.906 -0.0609 -0.0223  0.1239
11400W        W27209   4.064   1.437   5.328 -0.0229 -0.0657  0.0083
11401W        W27210   8.463   0.096  15.606 -0.2345 -0.0616 -0.1767
11402W        W27211  14.221  13.050  16.013  0.0026 -0.3126 -0.0849
11403W        W27212  16.976   7.424  14.886 -0.0194 -0.2710  0.0840
11404W        W27213  11.772  13.344  14.118  0.0599  0.2557  0.0381
11405W        W27214   9.802   4.267  12.224 -0.1188  0.2078 -0.0198
11406W        W27215   2.453   1.755  12.652 -0.1934  0.3367  0.2405
11407W        W27216   1.189   3.141   5.831 -0.3416 -0.1025 -0.3945
11408W        W27217   3.440   2.461   4.528 -0.0977 -0.3350  0.3161
11409W        W27218   4.249   0.874  11.534 -0.2177  0.0751  0.0761
11410W        W27219  10.163  16.086  11.125  0.1587 -0.0639  0.0928
11411W        W27220  17.239   8.331  14.192 -0.0225 -0.3650 -0.1780
11412W        W27221  11.103   5.375  16.548 -0.1811 -0.1445  0.2846
11413W        W27222   6.937   2.627  12.619  0.0474  0.0936 -0.1041
11414W        W27223   2.952  11.109  15.179 -0.0337  0.0101  0.1343
11415W        W27224  16.910   4.515   4.864 -0.0515 -0.0834 -0.1776
11416W        W27225  10.653   4.675   0.010 -0.0883  0.1620 -0.0122
11417W        W27226   3.011   9.371   4.961 -0.1206 -0.5260 -0.0162
11418W        W27227   1.934  10.135   4.043 -0.1136 -0.0737  0.0327
11419W        W27228   3.427   2.006   0.194 -0.0327  0.1539  0.4836
11420W        W27229   5.981   6.672   2.647 -0.2861 -0.1814 -0.1210
11421W        W27230  14.523  14.314   4.647 -0.1738 -0.2016  0.4702
11422W        W27231   1.363   2.462  14.632  0.1442  0.2053  0.0188
11423W        W27232   4.342  10.520  15.592  0.0454  0.1710 -0.0440
11424W        W27233   2.200   3.254   4.787  0.0368  0.1553  0.4967
11425W        W27234   0.039  11.864   6.096  0.2981  0.0013  0.1603
11426W        W27235  16.065   3.451  12.625 -0.3621 -0.1845 -0.0406
11427W        W27236  10.941  15.671  16.853 -0.1908 -0.0747 -0.0818
11428W        W27237   7.716  13.976   3.205 -0.0089  0.2030  0.0040
11429W        W27238  16.529  11.959   0.106  0.1759 -0.1828  0.1549
11430W        W27239   0.801   5.181   2.393 -0.0478  0.0585  0.4054
11431W        W27240   3.903   9.485  15.691 -0.0624  0.0432  0.0739
11432W        W27241   5.102  15.634  14.178 -0.0206 -0.3829  0.1201
11433W        W27242   9.909  17.441   1.477  0.1649 -0.2581 -0.0790
11434W        W27243   0.331  13.876   5.580  0.0481 -0.0957 -0.0393
11435W        W27244   9.834   1.519  12.650  0.2871  0.1506 -0.0103
11436W        W27245   3.821  16.755  13.664  0.1352 -0.2696  0.1352
11437W        W27246   5.355   3.600   4.961  0.1166  0.1167 -0.2727
11438W        W27247  10.149   6.776  15.894  0.2575  0.0246 -0.2447
11439W        W27248  17.153   7.933  13.436 -0.2411  0.0403  0.0594
11440W        W27249  13.135  13.607   2.203  0.2437  0.1128  0.2385
11441W        W27250  10.250   3.849  14.333  0.1984 -0.3045  0.0414
11442W        W27251   9.957  12.690  14.781  0.0025  0.1219  0.0825
11443W        W27252  10.297  13.515  12.323  0.2181  0.1556  0.0663
11444W        W27253   2.435  10.716   0.414  0.0757 -0.2857 -0.1564
11445W        W27254   3.387  12.736   5.472  0.0622  0.0692  0.2949
11446W        W27255  11.097   0.560   4.047 -0.1615  0.1330  0.0390
11447W        W27256   7.619  12.715   0.034  0.0783  0.0466 -0.2181
11448W        W27257   6.551   5.048   3.331 -0.0952  0.3414 -0.1091
11449W        W27258  17.714   3.155   0.933 -0.1745  0.0521  0.0999
11450W        W27259   8.092  16.473   4.010  0.2648 -0.0104  0.0344
11451W        W27260   5.999   3.703   4.276  0.1594 -0.2512  0.1333
11452W        W27261  16.749  16.708   2.936 -0.3023  0.4018  0.0417
11453W        W27262   1.735   5.509  12.960  0.1953 -0.1220  0.0396
11454W        W27263   4.392   0.443  10.613 -0.1752 -0.2440  0.2152
11455W        W27264  15.450  15.249  12.192 -0.5052 -0.0335  0.0787
11456W        W27265   4.121  14.939   4.584 -0.2932  0.3578 -0.2293
11457W        W27266   6.002   6.892  14.971  0.0875 -0.1147 -0.0387
11458W        W27267   1.222   6.696  15.142 -0.1787  0.0407  0.2728
11459W        W27268  16.400   2.365  16.809  0.1672 -0.1469 -0.2966
11460W        W27269   2.840   2.425   6.054 -0.3126 -0.2851 -0.1803
11461W        W27270  16.118  11.507   1.579 -0.1754  0.0256 -0.2577
11462W        W27271  14.294   7.981   4.288 -0.0164  0.0864  0.0946
11463W        W27272  17.110   5.685   5.332 -0.2695 -0.1887 -0.2098
11464W        W27273   6.621  11.615   0.398 -0.1204 -0.0484  0.4134
11465W        W27274  13.754  11.133   1.705 -0.2909 -0.0309 -0.0219
11466W        W27275   0.585   6.277   3.242  0.0109  0.1625  0.0476
11467W        W27276   5.946   7.656  16.523  0.2628 -0.3743  0.0097
11468W        W27277   2.164   2.200   5.745  0.0862  0.0443  0.0191
11469W        W27278   5.739  15.559   6.021 -0.0113 -0.1375  0.0677
11470W        W27279  17.497   3.502   2.174 -0.1445  0.0760 -0.2289
11471W        W27280   4.958   1.543  13.234  0.4696  0.1100 -0.3266
11472W        W27281  12.621  16.236   4.529  0.2818  0.0870  0.0364
11473W        W27282   7.888  13.863   0.865  0.1851  0.0238  0.1756
11474W        W27283  16.730  14.350   1.261  0.2056  0.2792 -0.2031
11475W        W27284  12.137  17.491   0.881 -0.0437 -0.0013  0.0419
11476W        W27285  13.987  16.991  12.398  0.0315 -0.0047 -0.0836
11477W        W27286  14.684  12.631   4.862 -0.0686 -0.4421  0.3223
11478W        W27287  12.088   9.507  14.512  0.1128 -0.1035  0.1289
11479W        W27288   6.483   8.606   1.413  0.4560 -0.0341 -0.1003
11480W        W27289   3.144  12.591   4.141 -0.1098  0.0841  0.2843
11481W        W27290  12.668  17.278   3.812 -0.0695 -0.2124 -0.2768
11482W        W27291   6.438   2.395   2.588 -0.1760 -0.0509 -0.1733
11483W        W27292   3.089  12.877   2.397 -0.3118 -0.1763  0.1523
11484W        W27293   8.816   9.367  13.085  0.2132 -0.2459 -0.1596
11485W        W27294  16.886  11.301  14.225  0.0565 -0.1475  0.0814
11486W        W27295  14.833  16.913  13.457  0.0368  0.0045 -0.1399
11487W        W27296  12.065   2.258   0.360  0.0149 -0.0576 -0.3658
11488W        W27297   1.719  14.555   0.430  0.1086  0.0862 -0.2212
11489W        W27298  12.959   9.544   4.728  0.2166  0.1528 -0.1524
11490W        W27299   8.097  15.732  12.846  0.1666  0.4158 -0.0670
11491W        W27300   6.675  14.256  13.181  0.2963 -0.2431 -0.2119
11492W        W27301   6.116  16.128  13.324 -0.1086 -0.4309 -0.0493
11493W        W27302  13.961  15.061  12.049  0.0886  0.1189 -0.1995
11494W        W27303  13.704  11.133  14.787  0.2881 -0.0770 -0.0155
11495W        W27304   4.027   9.104   4.231  0.2078 -0.0204  0.0642
11496W        W27305   5.139   4.556   4.405  0.4360  0.0752 -0.0293
11497W        W27306   2.435  14.950   3.743 -0.0726 -0.1206 -0.0790
11498W        W27307   8.470  14.245   1.776 -0.0102  0.3808  0.1096
11499W        W27308  13.410   2.191  16.840 -0.0546 -0.1428  0.3918
11500W        W27309   7.547   3.527  15.850 -0.0095  0.1500 -0.0831
11501W        W27310   8.191  10.365  14.426 -0.4569 -0.1195 -0.0475
11502W        W27311   8.765  15.384   4.759  0.1325 -0.1349 -0.0900
11503W        W27312  16.904   5.682  16.197 -0.0489 -0.1899 -0.1645
11504W        W27313  13.339  13.091  13.270 -0.2362  0.0591  0.0970
11505W        W27314   8.303   2.063  13.776  0.0041 -0.0247  0.0814
11506W        W27315   5.232   8.931   4.502 -0.2275 -0.0519  0.0759
11507W        W27316   2.314   6.733  16.252 -0.0927  0.0988  0.1717
11508W        W27317   4.893   3.698   4.882  0.0480 -0.2068 -0.3085
11509W        W27318  14.586  11.594  13.082  0.2799 -0.1304  0.2057
11510W        W27319   0.374  15.921  13.167 -0.2311 -0.0750  0.3580
11511W        W27320   1.126   6.909  13.824  0.0289 -0.0158  0.1254
11512W        W27321  12.235   0.786  13.204 -0.1133  0.3180 -0.1177
11513W        W27322  16.002   3.686  14.672 -0.1255  0.2727 -0.0621
11514W        W27323  15.974  17.288  16.663 -0.1051 -0.0990 -0.0114
11515W        W27324   3.005  15.785  15.932  0.0138 -0.1963  0.2457
11516W        W27325  15.273  13.368  15.235  0.1692 -0.1637  0.0801
11517W        W27326   5.680  15.253  13.014  0.1060  0.2399 -0.1349
11518W        W27327   0.766  11.639  16.714 -0.2225  0.0931  0.1234
11519W        W27328   7.797   4.609   4.128  0.0534  0.1802 -0.0725
11520W        W27329  13.380   2.226   4.706  0.1235  0.0208 -0.0020
11521W        W27330  14.886   4.315  12.630  0.0539 -0.2648  0.1401
11522W        W27331   2.667   9.663   2.209  0.2568 -0.1642  0.1799
11523W        W27332  13.844  12.122   4.559 -0.0341  0.0181 -0.0515
11524W        W27333  14.889  12.814   1.853  0.0275  0.1826  0.2475
11525W        W27334  11.064   5.259  14.140 -0.2360 -0.1220  0.1444
11526W        W27335   6.171  11.304   1.559  0.1961 -0.2408 -0.0219
11527W        W27336   4.834  10.777  16.196 -0.1066  0.0260  0.4958
11528W        W27337   2.059   3.633   4.460  0.1416 -0.2418  0.0190
11529W        W27338  16.585  12.587   1.871  0.2340 -0.1794  0.1607
11530W        W27339  14.352  16.013   2.043  0.1011 -0.4008 -0.0772
11531W        W27340   7.463   8.464   2.104 -0.0905 -0.3139 -0.0471
11532W        W27341  11.728   0.370  14.020 -0.1397 -0.3178  0.3208
11533W        W27342   4.818  13.075   5.540  0.0189 -0.0143  0.0043
11534W        W27343   2.730   7.208   5.536 -0.1672  0.0585 -0.1100
11535W        W27344   4.547  14.253  14.167  0.2774  0.2495  0.1943
11536W        W27345   0.273  16.536  15.967  0.1236 -0.0194  0.1155
11537W        W27346  13.543   0.670   4.451  0.0836 -0.1977  0.2924
11538W        W27347   4.015  13.003   6.486  0.0619  0.3265  0.0444
11539W        W27348   5.185   7.074  16.774 -0.1443 -0.0619 -0.1957
11540W        W27349  12.303   6.750   1.350 -0.2987 -0.2057  0.2666
11541W        W27350   7.825  12.266  15.041 -0.0909 -0.0932 -0.1600
11542W        W27351  16.429   2.421  14.170 -0.1290  0.2968  0.0642
11543W        W27352   5.774  10.015   0.039 -0.0272  0.2285 -0.1605
11544W        W27353  13.156   0.391   1.810 -0.2296  0.1191 -0.1132
11545W        W27354  17.361  13.381  14.581  0.0440  0.1218 -0.1942
11546W        W27355   0.763  13.139  11.279  0.2270 -0.0911  0.0186
11547W        W27356   1.954  15.501   0.101 -0.0924  0.1535 -0.2781
11548W        W27357  12.329   5.099   2.614 -0.0957 -0.3414  0.1967
11549W        W27358   8.142   8.945   0.500 -0.2454 -0.1164  0.3264
11550W        W27359   5.344   5.452  15.744  0.2561  0.0153  0.1991
11551W        W27360   7.644  14.771  14.822 -0.1813  0.1350 -0.3303
11552W        W27361   6.375  13.497  12.683  0.2091 -0.2665 -0.1616
11553W        W27362   7.097  10.989   3.689 -0.2348 -0.3094 -0.2463
11554W        W27363  15.700  16.948   3.555  0.0787  0.0887 -0.1211
11555W        W27364   9.399   0.321  14.509 -0.3100  0.1188 -0.0146
11556W        W27365   1.426   5.312   4.992 -0.2274  0.0895  0.0286
11557W        W27366  17.593  13.216  15.460  0.0611  0.1104 -0.2440
11558W        W27367  15.410  10.581   2.870  0.1741  0.0531 -0.0048
11559W        W27368   5.166  17.630   4.185 -0.1045 -0.1059 -0.0935
11560W        W27369   4.241   9.486   0.882  0.0133 -0.0271 -0.1754
11561W        W27370   6.521   8.554  12.164 -0.0797 -0.1308  0.2623
11562W        W27371  12.438   7.563  15.855  0.2196  0.1465  0.1166
11563W        W27372  17.029  16.590  12.197 -0.0304 -0.1239  0.0816
11564W        W27373   7.331   0.921  15.327  0.0023 -0.0781  0.1692
11565W        W27374   2.211   5.680   2.386  0.1460  0.1375 -0.2633
11566W        W27375   5.293  14.761   0.965 -0.2932  0.1965  0.2365
11567W        W27376  16.236  16.844   4.350 -0.0420 -0.1679  0.1589
11568W        W27377   5.964  15.195   1.478 -0.2434 -0.1019  0.0244
11569W        W27378  17.306   8.409   1.799  0.0745  0.2275  0.0292
11570W        W27379  13.729   2.598  13.261 -0.1999 -0.0624 -0.2036
11571W        W27380  11.427   4.786  14.545  0.0641  0.1446 -0.0776
11572W        W27381   3.313   4.092   0.947  0.3980  0.1581  0.4421
11573W        W27382   0.809   9.621  14.157 -0.3273  0.2697 -0.0377
11574W        W27383  11.772   0.451  16.350  0.1710 -0.2225 -0.3015
11575W        W27384  13.197   7.736   1.360 -0.1132 -0.1302  0.2168
11576W        W27385  11.581   5.259  16.357  0.1561 -0.0353 -0.3383
11577W        W27386   9.454  10.269   3.364 -0.0157 -0.2031 -0.0413
11578W        W27387   1.551   1.134  13.321  0.0195  0.3869 -0.1159
11579W        W27388  14.090  14.162   3.874 -0.0692 -0.1685 -0.3092
11580W        W27389   6.483  11.790  16.928  0.1100 -0.2095  0.0201
11581W        W27390   1.913  17.528   1.751  0.1379 -0.1882 -0.0235
11582W        W27391  10.162  14.682   1.233  0.1303 -0.1609 -0.1648
11583W        W27392  15.515  16.955  12.269 -0.2718 -0.1574 -0.0535
11584W        W27393   9.155   9.045   0.200  0.3546  0.2498  0.0744
11585W        W27394  11.573   4.329   3.978 -0.1024 -0.1857 -0.1194
11586W        W27395  14.011   4.769   5.359  0.1208 -0.1262  0.1023
11587W        W27396  15.774   3.347  13.737  0.1849  0.0385  0.0644
11588W        W27397  15.034   9.066  15.914 -0.0468 -0.0353 -0.2102
11589W        W27398   4.030  15.503   4.251 -0.0513  0.2804  0.1023
11590W        W27399   6.250  12.310  16.919  0.2602  0.1948  0.0373
11591W        W27400   6.180   6.594   1.255  0.0267  0.0886 -0.1119
11592W        W27401  17.711   4.910   2.871 -0.2645 -0.0474  0.0724
11593W        W27402   0.064   3.928   5.493 -0.1191 -0.1806  0.0353
11594W        W27403  14.143   2.455   4.577 -0.0848 -0.0576  0.1667
11595W        W27404   1.042  11.263  13.333  0.2758  0.0915  0.3117
11596W        W27405  15.583   4.708   2.269 -0.2836  0.0970  0.0093
11597W        W27406   2.019   3.320   2.677 -0.0203  0.0996 -0.2400
11598W        W27407  14.786   0.181  16.683 -0.2085  0.0928 -0.0190
11599W        W27408   3.040   9.611   3.616 -0.0260 -0.0407  0.0365
11600W        W27409   4.211   0.942   5.379  0.1343  0.0070 -0.1597
11601W        W27410  15.487   8.362  16.207  0.4116 -0.0955  0.3002
11602W        W27411  11.120   1.599   5.933 -0.1634  0.3714  0.1039
11603W        W27412   6.094  11.265   4.913 -0.0565 -0.1354 -0.3563
11604W        W27413   4.813   2.689  16.771  0.1173 -0.0494  0.0199
11605W        W27414   4.504   7.967   4.851 -0.1019 -0.0967  0.2574
11606W        W27415   7.290   6.618  11.872  0.0208  0.0701  0.0158
11607W        W27416  17.232   1.807   5.870 -0.2325 -0.0196  0.0237
11608W        W27417  12.022   0.458  13.594  0.1511 -0.2353  0.0122
11609W        W27418   6.197  16.086   1.911 -0.1353  0.0229  0.2165
11610W        W27419   5.185   7.684   4.129 -0.1500  0.3196  0.0777
11611W        W27420  11.526  12.200   2.720 -0.0973  0.0572 -0.0300
11612W        W27421   0.328  10.535   2.135 -0.1994  0.1531 -0.0152
11613W        W27422   2.819   5.158  16.678  0.1971  0.0911  0.2465
11614W        W27423   1.571   8.632  14.855 -0.1461  0.0314  0.1226
11615W        W27424   5.302  11.696  14.265 -0.2218  0.0553 -0.2885
11616W        W27425  13.998  14.325  13.662  0.0132  0.0356  0.2519
11617W        W27426   8.899  13.544   2.785  0.0873  0.0185  0.0089
11618W        W27427  14.744  11.830   4.378  0.1665 -0.0611  0.0196
11619W        W27428   7.100  13.096  10.876  0.0004 -0.2305  0.0510
11620W        W27429   8.361   8.558  15.759 -0.2789  0.0690  0.0122
11621W        W27430  16.640   5.342  16.483  0.0655  0.0117  0.0553
11622W        W27431  14.287  11.505  15.322 -0.2239 -0.0737 -0.2497
11623W        W27432  12.484  10.711   5.504 -0.2393 -0.0466 -0.0324
11624W        W27433   3.729   5.947  15.818  0.0874  0.0407 -0.2138
11625W        W27434   7.351  17.149   3.020  0.0162 -0.1150 -0.3203
11626W        W27435  17.516  12.239   1.562  0.2776 -0.2909  0.2545
11627W        W27436  10.625   7.931   2.841 -0.0526  0.1803  0.1668
11628W        W27437  13.706  10.920  13.890 -0.1238  0.1470  0.0881
11629W        W27438   2.185  15.981  15.285 -0.0848  0.1239  0.1533
11630W        W27439   7.710   0.833   0.295 -0.1150 -0.0912 -0.0084
11631W        W27440  12.757   9.827   2.431 -0.1815 -0.2931  0.0522
11632W        W27441   6.565  17.604  14.854  0.1767 -0.0175 -0.1170
11633W        W27442   8.088   7.318   3.176  0.4226 -0.0917  0.3159
11634W        W27443   7.406  17.275   4.029 -0.1077 -0.0455  0.1573
11635W        W27444  11.326   7.219  16.263  0.2237 -0.0958  0.0998
11636W        W27445  13.462   3.041   4.422 -0.1425  0.0009 -0.2414
11637W        W27446   5.330  11.529   3.183 -0.0164  0.0220 -0.1129
11638W        W27447  12.947  11.383   1.442  0.0730  0.0217 -0.0940
11639W        W27448   3.634  13.241   2.672  0.2383 -0.0024 -0.0167
11640W        W27449   4.185   6.608  11.779  0.0707  0.4124 -0.0874
11641W        W27450   0.709  13.761  11.453 -0.0717  0.0707 -0.0480
11642W        W27451   4.402   8.904   5.004  0.2914  0.0062 -0.1236
11643W        W27452   5.309  14.316  15.468  0.1885  0.1853 -0.1973
11644W        W27453   5.573   3.746  12.189  0.1587 -0.1894  0.1228
11645W        W27454   5.342   6.397   3.657 -0.0531  0.1793  0.3191
11646W        W27455   9.770  11.944  12.319 -0.1196 -0.1036 -0.0069
11647W        W27456   5.194  17.579  15.831 -0.0991 -0.0867  0.0373
11648W        W27457  10.237   1.747  15.028  0.2329 -0.3185  0.0673
11649W        W27458  13.842  14.820   2.281  0.0879  0.2483  0.0982
11650W        W27459   3.896  10.960   4.278  0.3835  0.1453 -0.1950
11651W        W27460  14.984   9.866   0.597 -0.0502 -0.0527 -0.0096
11652W        W27461   3.635  16.048  14.180  0.2312  0.0439 -0.3329
11653W        W27462   9.348  15.109  11.629  0.0813 -0.3039 -0.1772
11654W        W27463   2.871   9.971   1.750 -0.1780 -0.1075 -0.2331
11655W        W27464   7.365   5.703  12.635 -0.1490 -0.2919 -0.1487
11656W        W27465   4.393   1.519   0.112  0.0822  0.0977  0.0948
11657W        W27466   1.143   8.057   5.448 -0.0574  0.1480 -0.1699
11658W        W27467  17.519  12.922   4.933 -0.0573  0.1493  0.0311
11659W        W27468  15.538   9.905   0.618 -0.0515  0.2075 -0.3190
11660W        W27469  13.949  11.233  16.258  0.1148 -0.0224  0.0300
11661W        W27470  11.206   8.945   0.539 -0.0877 -0.1920  0.1987
11662W        W27471   3.158  10.038  14.386 -0.0617  0.1092  0.0511
11663W        W27472   2.071  14.664   5.339 -0.0747 -0.0369 -0.3797
11664W        W27473  11.598  15.177   3.210  0.1835 -0.0533  0.2733
11665W        W27474  12.129  14.337  11.325  0.3434 -0.1386  0.1154
11666W        W27475  12.979  11.751  15.208  0.0667  0.0015 -0.2156
11667W        W27476   4.188  13.388   2.604  0.2949 -0.2905 -0.1610
11668W        W27477   9.551   9.434   4.742  0.0554  0.1456  0.1583
11669W        W27478  12.683  16.494   4.939 -0.1670  0.0501  0.2642
11670W        W27479   1.816   2.436  15.502 -0.1876 -0.1370 -0.0904
11671W        W27480  12.258  11.520   0.175  0.2455 -0.0839  0.1081
11672W        W27481  11.622  13.858  15.397  0.0636 -0.0474  0.1368
11673W        W27482  13.288  13.842   4.630  0.0039 -0.0085 -0.3046
11674W        W27483  12.369  15.163  13.996  0.1019 -0.2677  0.0969
11675W        W27484  14.928  14.836  12.755 -0.0633  0.3026  0.0219
11676W        W27485  12.857  14.086  14.780  0.1615  0.0244  0.2538
11677W        W27486   9.150  11.661   2.472 -0.3873  0.1817 -0.0725
11678W        W27487   2.157  16.845   4.395  0.1506  0.1188  0.0032
11679W        W27488  14.373   7.435   5.176  0.0695  0.0856 -0.1511
11680W        W27489   3.566  16.381   5.761  0.0337  0.0119 -0.1549
11681W        W27490   8.574   1.000   1.497  0.0740  0.0132  0.0267
11682W        W27491   1.565   7.743  13.771  0.0635 -0.1463 -0.0929
11683W        W27492  17.642  17.238   2.071 -0.2060  0.1443 -0.0731
11684W        W27493   7.365   7.368   4.951 -0.1065 -0.1898 -0.1010
11685W        W27494  13.057  11.399   4.833 -0.0160 -0.4549 -0.1945
11686W        W27495   6.021  11.818  15.703 -0.1758 -0.1160  0.1665
11687W        W27496   8.875  10.638  16.434 -0.2646  0.1066 -0.0144
11688W        W27497  16.361  17.169  12.249  0.2077  0.0538 -0.0562
11689W        W27498  13.534  11.654   2.196 -0.4455 -0.4331 -0.2060
11690W        W27499   2.248  17.053   5.672 -0.0313  0.1504  0.0783
11691W        W27500  15.387  14.012   3.018  0.2253 -0.2127 -0.2395
11692W        W27501   0.373  13.161  16.483  0.0266 -0.0507 -0.0282
11693W        W27502  16.502   3.012  12.003  0.0313  0.2495  0.0426
11694W        W27503   4.373  14.545  14.586  0.0164  0.0325 -0.2696
11695W        W27504  14.569  15.073  16.492  0.1198 -0.2006 -0.2522
11696W        W27505   8.861  12.375   4.053  0.0047 -0.0296 -0.1551
11697W        W27506  16.436   1.042   1.135 -0.2100  0.1079  0.1078
11698W        W27507  16.425  10.920  13.644 -0.1350  0.2278  0.1414
11699W        W27508   5.547   8.377   2.972  0.2700  0.0663  0.0157
11700W        W27509   1.287  15.889   4.601  0.0106 -0.1606  0.4101
11701W        W27510  10.359  10.115  11.710 -0.2712  0.2498  0.2987
11702W        W27511   8.390   9.907  15.388 -0.2836  0.0928 -0.0664
11703W        W27512   7.711   2.124   6.295 -0.0533 -0.0887  0.1114
11704W        W27513  10.472  14.074   2.399 -0.0662  0.1605 -0.0774
11705W        W27514   1.885   4.231   5.216  0.1088 -0.1614  0.2891
11706W        W27515  15.939   3.159   5.656  0.3606 -0.0373 -0.2359
11707W        W27516  14.597  10.700  14.754 -0.1370  0.1150 -0.2195
11708W        W27517   2.420   6.347  15.861  0.0862  0.0043  0.1392
11709W        W27518   6.724  14.549   2.422 -0.1111  0.0982 -0.0316
11710W        W27519  16.182  11.454   3.557 -0.0201  0.2999 -0.2661
11711W        W27520   7.379   6.135  14.478 -0.0231  0.0030  0.1692
11712W        W27521  10.860   5.434  12.837  0.0137  0.0320  0.0152
11713W        W27522  16.432   5.764   2.520  0.5466  0.0306 -0.0036
11714W        W27523   5.577   7.739   1.711  0.1479  0.1868 -0.0661
11715W        W27524  15.842   7.012   1.443  0.0291 -0.1142 -0.0858
11716W        W27525  16.778   3.551   4.804 -0.1176  0.1929 -0.0033
11717W        W27526   8.647  14.987  13.234 -0.1353 -0.0824 -0.0882
11718W        W27527  12.506   0.242  12.014 -0.1526 -0.3616 -0.0321
11719W        W27528   0.314   7.015   3.542 -0.0449  0.3620 -0.1802
11720W        W27529  12.074   6.678   2.622 -0.0583 -0.1928  0.2315
11721W        W27530  17.591   2.675  16.592 -0.2113 -0.0118 -0.2023
11722W        W27531  14.096   1.532   4.026  0.0947 -0.0507  0.4303
11723W        W27532   6.759   7.367   2.027 -0.0956 -0.2360 -0.2041
11724W        W27533   4.050  13.968   4.371 -0.0699  0.1197  0.0289
11725W        W27534   3.931   6.174  14.439 -0.0982 -0.1002 -0.2423
11726W        W27535   5.183  15.457   3.366  0.0273 -0.2164 -0.4098
11727W        W27536  13.722  14.405   6.389 -0.2239 -0.2525  0.2510
11728W        W27537  15.299   4.887   6.059  0.1550  0.0220  0.2108
11729W        W27538  15.483   5.107   3.092 -0.1075 -0.0593 -0.0491
11730W        W27539   0.160   7.088  12.826 -0.0746  0.1679  0.0066
11731W        W27540   0.857  17.107  15.422  0.0740 -0.1067  0.3591
11732W        W27541   8.057   2.808   2.184  0.1708 -0.1174  0.0801
11733W        W27542   8.269   7.256   2.320  0.1830  0.3810 -0.4734
11734W        W27543  13.835   5.924  13.839  0.1950 -0.0567  0.0232
11735W        W27544   3.666  14.625   4.632 -0.1051  0.0104  0.3264
11736W        W27545   2.952  11.364  14.039 -0.2053  0.1098 -0.0787
11737W        W27546   3.928  11.900   3.581  0.1620 -0.0804  0.0244
11738W        W27547   0.963  10.478   5.561  0.0738 -0.1223  0.2641
11739W        W27548   1.656   8.695   4.323  0.2057 -0.0511 -0.2307
11740W        W27549  10.075   0.719   1.185 -0.0630  0.0946 -0.1837
11741W        W27550   4.039   6.681   4.471 -0.0747 -0.0808  0.1685
11742W        W27551  12.309   4.296   5.664 -0.0497 -0.2586 -0.0173
11743W        W27552   2.681  16.494   2.207  0.0609  0.1402 -0.0558
11744W        W27553  12.365  16.766  11.458  0.1367  0.1329 -0.0687
11745W        W27554   6.124  13.054   5.023  0.0923 -0.0410  0.0774
11746W        W27555  12.846   9.896  13.984  0.0859 -0.0181 -0.1064
11747W        W27556   2.145   3.912  14.660  0.1099  0.0934  0.0603
11748W        W27557  13.507  16.611  15.120 -0.2274 -0.0441 -0.2281
11749W        W27558   6.649  16.657   4.292  0.1330  0.2349  0.1143
11750W        W27559  12.526   1.185   4.631  0.4665 -0.1511  0.2435
11751W        W27560   1.092  15.376  12.929 -0.0411 -0.2350  0.2809
11752W        W27561  13.124  10.152  13.102  0.2112  0.3747  0.0506
11753W        W27562   0.412   8.486  13.470  0.4431  0.1240 -0.0194
11754W        W27563  10.176   1.002  16.018 -0.0221 -0.0376 -0.2439
11755W        W27564  17.067  13.248  16.293  0.2327 -0.0560  0.1358
11756W        W27565  14.294   2.774   1.701  0.0726  0.1212 -0.1474
11757W        W27566   4.704  14.276  16.538  0.1958  0.2638  0.1873
11758W        W27567  12.382  17.019  13.617  0.0479 -0.0151 -0.1611
11759W        W27568  10.771  13.672   4.563  0.0921 -0.2503 -0.2083
11760W        W27569  15.848   7.267  15.467 -0.2410  0.0364  0.0124
11761W        W27570   1.800  17.126  11.725 -0.1003 -0.0068  0.3098
11762W        W27571   0.233   6.544  14.783  0.0404 -0.0591  0.2184
11763W        W27572   3.094   6.442   1.098 -0.5037  0.1794  0.0603
11764W        W27573  14.861  10.766  14.003  0.0774  0.2817 -0.3484
11765W        W27574  11.222  15.988  10.995 -0.2871  0.0782  0.4171
11766W        W27575   8.331  16.941   2.146  0.0054 -0.0279 -0.1287
11767W        W27576   1.826  17.590  15.719 -0.0533 -0.3554 -0.2955
11768W        W27577   4.152  13.214   2.053  0.4007 -0.1025  0.2519
11769W        W27578  11.119   0.457   0.900 -0.2205 -0.0625  0.1700
11770W        W27579  13.440  17.185   3.052 -0.3636 -0.1701  0.0173
11771W        W27580   8.876   3.226  13.379  0.0719 -0.2612  0.0162
11772W        W27581   6.945   5.533  12.333 -0.3110  0.2288  0.1286
11773W        W27582  11.293   2.215   4.311  0.1344 -0.0923 -0.2424
11774W        W27583  16.553   3.471  15.999  0.0405 -0.1483  0.1738
11775W        W27584   8.971  11.049  14.759 -0.0777 -0.3017  0.2181
11776W        W27585  13.542   6.773  14.461 -0.0969 -0.0786 -0.0292
11777W        W27586   0.026  15.871  14.390  0.1079 -0.0828  0.1415
11778W        W27587   8.464   1.513   5.317 -0.1902  0.0419 -0.2310
11779W        W27588  16.686   9.073   2.810 -0.0777  0.0834 -0.0270
11780W        W27589   3.746  17.180  13.206 -0.3591  0.0483  0.2073
11781W        W27590  13.865  16.860  16.011 -0.0926  0.1516  0.3312
11782W        W27591   1.904   5.659   2.023 -0.0259  0.2991 -0.1323
11783W        W27592   5.350  14.961   0.476  0.0341 -0.1968  0.1383
11784W        W27593   7.030   8.391  14.360  0.2920  0.0992  0.1166
11785W        W27594   0.979   2.866  13.679 -0.1332  0.0846 -0.0263
11786W        W27595   3.054   0.438  14.002  0.4309 -0.1084  0.1053
11787W        W27596   2.086   1.011   1.110 -0.0519  0.0651  0.0540
11788W        W27597  16.113   4.689   2.168 -0.0003 -0.2323  0.0321
11789W        W27598   2.864  12.013  16.708 -0.1450  0.0433 -0.3477
11790W        W27599   9.323   4.513  12.433  0.0015 -0.2947  0.1289
11791W        W27600  17.155  10.764   4.070  0.0004  0.1907 -0.1490
11792W        W27601  11.302   6.960  13.243  0.0350 -0.2646 -0.5033
11793W        W27602   5.594   6.272  13.337 -0.2681 -0.0743 -0.1118
11794W        W27603   5.089   3.879   5.765 -0.0311  0.1686 -0.0084
11795W        W27604   8.510   2.254  16.118 -0.1486 -0.1195  0.0043
11796W        W27605   9.399   3.080   1.454 -0.1053  0.0567  0.1983
11797W        W27606   9.020   6.351   0.733  0.2821 -0.1743 -0.0615
11798W        W27607   9.301  10.797   0.231 -0.1567 -0.1045  0.2263
11799W        W27608   6.475  15.267   1.421 -0.0712  0.1203 -0.3079
11800W        W27609  12.771  13.156  11.375  0.2818  0.0639 -0.0386
11801W        W27610   0.762   3.472   2.030  0.4405 -0.0873  0.3167
11802W        W27611  15.604  17.267  13.263 -0.0630  0.0857 -0.1568
11803W        W27612   2.393  14.722  11.153 -0.1078  0.1164 -0.0632
11804W        W27613  15.439  16.897  16.208 -0.0464 -0.0458 -0.4656
11805W        W27614   0.208  11.116  15.219 -0.1688 -0.2577 -0.0519
11806W        W27615  14.637  10.707   1.340 -0.2099  0.0519  0.0915
11807W        W27616  11.037  14.624  16.236  0.0205 -0.1633 -0.3973
11808W        W27617   8.237   4.246   6.037  0.1617 -0.0073 -0.1772
11809W        W27618  12.610   5.228  13.097 -0.3088 -0.0364 -0.0542
11810W        W27619  10.685   9.329  14.665  0.2616  0.2850 -0.3051
11811W        W27620  17.036   0.319   0.626 -0.4117  0.0784  0.2275
11812W        W27621  15.574  11.510  15.642 -0.1790 -0.0665 -0.1297
11813W        W27622   8.780  14.456   3.942 -0.1909 -0.2575 -0.1493
11814W        W27623   8.923  10.221   1.365 -0.0841  0.1971 -0.0400
11815W        W27624  14.280   4.984   4.447  0.3012 -0.0592 -0.1004
11816W        W27625   9.984   9.414  16.591 -0.1563  0.0997 -0.3189
11817W        W27626  12.894   7.433  15.559  0.2507 -0.2800 -0.1772
11818W        W27627   5.181  12.446  11.317 -0.1857  0.1320  0.1077
11819W        W27628   0.644  14.709   2.296 -0.1101  0.0724 -0.0649
11820W        W27629  10.495  17.303  12.098 -0.1167 -0.1587 -0.1946
11821W        W27630   2.648  14.793   4.676 -0.1024 -0.1628  0.1368
11822W        W27631  15.555  10.609  11.566  0.2286  0.1468 -0.2339
11823W        W27632  13.008  14.471  14.084  0.0340  0.0135 -0.1295
11824W        W27633   0.732  13.159  15.907 -0.1145 -0.2625  0.1463
11825W        W27634  10.390   7.651   3.260 -0.0144  0.1390 -0.0209
11826W        W27635   3.885   4.599   2.426  0.1850  0.1981 -0.1006
11827W        W27636  17.274  11.834   4.069  0.3547  0.0157 -0.0060
11828W        W27637   9.295  10.807  16.706 -0.1684  0.3328  0.5117
11829W        W27638  14.691   8.251  15.879  0.0948  0.1921  0.1036
11830W        W27639   8.528  12.545  12.630  0.1349 -0.5970  0.0040
11831W        W27640   1.978  16.545   3.919 -0.0590 -0.0484  0.1501
11832W        W27641  12.981   3.352  15.516  0.0022 -0.1997 -0.0563
11833W        W27642   3.742   5.130  16.893  0.2142  0.1596  0.0443
11834W        W27643   4.839   0.462   2.190  0.2487  0.0208 -0.2638
11835W        W27644  16.000  17.444  13.731  0.1025 -0.0245 -0.2357
11836W        W27645  16.903   9.074   2.262 -0.1314 -0.1721 -0.2931
11837W        W27646   5.590  15.591   4.332  0.0654  0.2076  0.0222
11838W        W27647  15.006  15.692  15.254 -0.1284 -0.0383 -0.1373
11839W        W27648  13.959   3.421   1.155  0.2399  0.1666  0.1652
11840W        W27649   5.637   4.005  11.659  0.0288  0.0500 -0.1000
11841W        W27650  13.646  13.454   0.171  0.0988  0.1380  0.0040
11842W        W27651   1.837   2.327  12.928  0.0518  0.0008  0.0920
11843W        W27652  10.398   3.916  14.800  0.0590 -0.1095  0.0634
11844W        W27653   4.353   2.937  16.931  0.1838 -0.3456 -0.0720
11845W        W27654  11.610  11.417  13.900  0.1445 -0.0724  0.2927
11846W        W27655   1.215   6.308  14.816  0.0886  0.2079 -0.0944
11847W        W27656   6.470  12.190  14.258 -0.2254  0.0246 -0.1355
11848W        W27657   7.609   3.525   3.372  0.0055 -0.0665 -0.1106
11849W        W27658  10.134  11.589  14.239  0.0625  0.1053 -0.0899
11850W        W27659   5.344   5.453   3.837  0.1120 -0.0634 -0.1780
11851W        W27660   5.623   4.612  15.256  0.0214 -0.3545  0.0521
11852W        W27661  16.263   5.913  14.387  0.0321  0.1380 -0.0467
11853W        W27662   6.592  15.582  12.123 -0.1858  0.0749 -0.2381
11854W        W27663  11.910   7.080   5.370  0.1496  0.2145 -0.0844
11855W        W27664   9.530   9.618   0.853  0.0247 -0.0337 -0.3411
11856W        W27665   3.311  11.785  16.692  0.0818 -0.4684  0.2469
11857W        W27666   7.909   9.993  16.170 -0.1180  0.2762 -0.2470
11858W        W27667  12.290   5.468  14.214 -0.1022  0.2767  0.1074
11859W        W27668   4.404   8.862   3.732  0.2195 -0.0009  0.1590
11860W        W27669  14.598   6.358  14.431 -0.0427 -0.1729 -0.0471
11861W        W27670   0.938   9.859   2.012  0.1542 -0.1631  0.0042
11862W        W27671   2.542   7.513   2.862 -0.0778 -0.1080 -0.0664
11863W        W27672   5.891   1.379   3.649 -0.0686 -0.1304  0.2557
11864W        W27673  15.453  12.176   0.661 -0.0164  0.0455  0.1382
11865W        W27674   7.269  14.520  13.994  0.0544  0.0926  0.4653
11866W        W27675   9.533   5.697  16.438  0.0275  0.4477  0.0729
11867W        W27676  17.313   5.938  12.624 -0.0136  0.1633 -0.0127
11868W        W27677   4.997  13.206   0.045 -0.1138  0.2787 -0.1710
11869W        W27678   1.988  12.641  14.287  0.0374 -0.2035  0.1175
11870W        W27679   2.975   3.261  16.088 -0.0199 -0.1064  0.0621
11871W        W27680   3.381   9.872  12.535  0.3903 -0.0787 -0.5965
11872W        W27681  13.369  11.286   5.269  0.0975  0.1400  0.0250
11873W        W27682  11.640   2.988  11.546 -0.1287  0.0522  0.1613
11874W        W27683   8.248  10.699  15.597  0.3089  0.0039 -0.2985
11875W        W27684   4.171  11.056   1.789 -0.2743  0.2153  0.0112
11876W        W27685   6.278  13.062  13.582  0.0134  0.0087  0.0728
11877W        W27686  10.914  11.537   4.270  0.1424 -0.2685  0.1349
11878W        W27687   6.699   1.997   2.770  0.2486  0.5030  0.3425
11879W        W27688   9.793  11.046   5.838  0.0197  0.0379  0.1403
11880W        W27689   6.259  14.198  12.133  0.3336  0.4832  0.1850
11881W        W27690  10.720   3.537   2.036  0.0015 -0.0306 -0.0941
11882W        W27691   3.142  10.578  14.252 -0.2298 -0.0523 -0.0651
11883W        W27692   4.277   5.834   2.060  0.1573  0.1146 -0.0995
11884W        W27693   8.988  13.450  14.129 -0.0343  0.1278  0.0551
11885W        W27694  12.692  13.470  10.605  0.1587 -0.0996 -0.1014
11886W        W27695  11.836   7.758  13.417  0.0327 -0.1644 -0.0040
11887W        W27696   1.091   7.644  14.888 -0.0372 -0.2706 -0.1254
11888W        W27697   8.127  10.120  12.354 -0.1405  0.2826  0.0120
11889W        W27698   6.272  15.809   2.306 -0.2220  0.3520 -0.2014
11890W        W27699   0.323   5.759   4.204 -0.0898 -0.1005  0.0137
11891W        W27700   2.933   8.824   4.882 -0.1711 -0.0348 -0.1138
11892W        W27701  11.252   4.473   0.926  0.0274  0.2557  0.0735
11893W        W27702  14.745  16.351  16.077 -0.1338  0.2206  0.0560
11894W        W27703  14.758   7.927   1.430 -0.3538 -0.0488  0.0954
11895W        W27704   7.070  14.862  13.585 -0.0077 -0.0011 -0.1960
11896W        W27705   1.719   6.506   2.229 -0.1019 -0.0595 -0.1157
11897W        W27706  13.536  15.809   1.672  0.0227  0.1776  0.1497
11898W        W27707  16.425   6.227   2.686 -0.1733  0.1522  0.0995
11899W        W27708   4.966  11.844   2.926  0.0694  0.0523  0.2010
11900W        W27709  16.725  11.521  16.782 -0.0674 -0.0711  0.2826
11901W        W27710  13.325  12.120   2.457 -0.1448  0.0948  0.0298
11902W        W27711  10.555   5.241  14.178 -0.0884  0.3180  0.3426
11903W        W27712   7.513  10.923  15.053  0.0963 -0.0499 -0.0191
11904W        W27713   9.136   1.328   2.677  0.0678  0.0803 -0.0990
11905W        W27714   8.097  13.210  13.101 -0.0773  0.3313  0.1113
11906W        W27715  15.011   1.679  12.024  0.1670 -0.0161 -0.0005
11907W        W27716  10.767  15.758  14.978  0.0806 -0.1994 -0.1474
11908W        W27717   1.516   2.462   4.864 -0.2206  0.1185  0.0016
11909W        W27718  12.278   0.414  16.364 -0.0660  0.0903  0.0251
11910W        W27719  15.601  15.915  13.039  0.1829  0.3482 -0.2072
11911W        W27720   5.903   1.505   5.540 -0.2836 -0.2411  0.0599
11912W        W27721   3.463  15.218   0.104 -0.0005  0.0853  0.0593
11913W        W27722  17.639  17.729   4.012 -0.0847  0.0178  0.0454
11914W        W27723   6.036   2.064   5.515 -0.0714 -0.3556 -0.3475
11915W        W27724  10.649  13.201   4.339 -0.0103 -0.0085  0.2661
11916W        W27725   4.564  10.304   2.033 -0.3468 -0.0217  0.4880
11917W        W27726  17.247   2.298  14.890 -0.0252  0.2879  0.0389
11918W        W27727  14.319   8.505  11.626 -0.4115 -0.4023 -0.1149
11919W        W27728   4.321  15.075   0.706 -0.0708  0.0307  0.0678
11920W        W27729   8.655   8.894  11.537 -0.3384 -0.0300 -0.0931
11921W        W27730   8.861   0.765   0.165  0.0002 -0.2304 -0.0816
11922W        W27731   6.598   4.674  13.254 -0.1208 -0.2267  0.3178
11923W        W27732   9.862  12.119   3.152  0.1583 -0.2701  0.0432
11924W        W27733  11.226   3.582   1.388  0.2218  0.0113  0.0418
11925W        W27734  14.918   4.085   4.241 -0.2145 -0.1597  0.0026
11926W        W27735  16.524  13.220  15.873 -0.0195  0.0053  0.0109
11927W        W27736  12.965   1.186  12.067  0.0189 -0.1220  0.0467
11928W        W27737  15.957  15.596   3.340 -0.0886 -0.0466  0.3528
11929W        W27738  16.474   6.442  13.356  0.1919  0.2042 -0.2848
11930W        W27739   0.507   8.468   1.801 -0.0820  0.2189  0.1466
11931W        W27740  12.779   6.600   1.198  0.2115  0.1408  0.1473
11932W        W27741   5.973   5.728   2.075 -0.0391 -0.1727 -0.1640
11933W        W27742  11.984   0.244   5.162  0.1340 -0.0477 -0.0664
11934W        W27743   9.763  12.715   3.782  0.0503 -0.3209  0.1342
11935W        W27744  17.132   0.218  13.629  0.0628 -0.0779  0.2280
11936W        W27745  16.610  15.030  16.146  0.0680 -0.0026  0.0588
11937W        W27746   5.419  17.191   0.477 -0.0879 -0.0041  0.1470
11938W        W27747   5.412   3.452   5.458  0.3286 -0.2262 -0.0239
11939W        W27748   0.158  10.550  15.812 -0.0157  0.2897  0.0416
11940W        W27749   6.491   4.466  14.193  0.1631 -0.1038 -0.2310
11941W        W27750   3.578  12.023  16.316 -0.0068 -0.0628 -0.1102
11942W        W27751   2.222  11.724   1.250 -0.0127 -0.2214  0.0938
11943W        W27752  11.297   4.960  11.291 -0.3373 -0.0351  0.1886
11944W        W27753   0.777  13.958   4.103  0.1452  0.1407  0.3468
11945W        W27754   2.417  13.318  13.574 -0.1197  0.2876 -0.0352
11946W        W27755  12.389  12.230  14.730  0.1869  0.1142  0.0901
11947W        W27756   3.071   8.192   1.981  0.1862  0.0956  0.0386
11948W        W27757   5.874   7.584   3.482  0.2620  0.0242  0.0138
11949W        W27758   9.246  13.001  11.027  0.1909 -0.2028  0.1791
11950W        W27759  16.048   1.038  16.796  0.1023  0.3368  0.2603
11951W        W27760   0.688  17.407   3.751  0.0850  0.1063  0.1904
11952W        W27761  12.672   4.623  15.526 -0.0665 -0.0755  0.0480
11953W        W27762   2.783  14.189   2.619 -0.1116 -0.2588  0.0460
11954W        W27763   6.829   1.340   1.409  0.0233 -0.0213 -0.0385
11955W        W27764  12.241  13.478   4.367  0.2955  0.0922 -0.1821
11956W        W27765  15.915  15.511  13.225 -0.1466 -0.0039 -0.1405
11957W        W27766   1.747   7.048   2.982  0.1148 -0.1792  0.0151
11958W        W27767  14.342  16.322  11.319  0.0958  0.0796  0.0142
11959W        W27768   5.231  12.785   4.526 -0.1825 -0.1654 -0.1536
11960W        W27769   2.727   6.115   4.061  0.1898 -0.3543  0.2194
11961W        W27770   6.485   6.407   1.632 -0.0860 -0.1120  0.0525
11962W        W27771  11.417  12.515  11.406  0.4465 -0.1380  0.0337
11963W        W27772   1.768  12.992   1.202 -0.0645  0.1141  0.2875
11964W        W27773   0.362  10.301  16.262  0.1292 -0.0525 -0.2717
11965W        W27774   5.688  17.302   1.121 -0.0500 -0.3154  0.0154
11966W        W27775   1.623   9.393   2.649  0.1741 -0.0578  0.0298
11967W        W27776   8.807  11.911  10.936  0.0001  0.0402 -0.1042
11968W        W27777   7.576   0.142  10.633 -0.2025 -0.1914 -0.0845
11969W        W27778   0.738   3.615  11.051  0.2529  0.1600 -0.0107
11970W        W27779  12.750   5.970  15.756  0.1047 -0.0924  0.1627
11971W        W27780  13.532   4.809  12.394  0.1197  0.0334  0.0593
11972W        W27781   5.053   9.233   5.906  0.4076 -0.4302  0.1257
11973W        W27782  15.533   7.952   2.204  0.3029 -0.3701 -0.0523
11974W        W27783   9.618  10.139   4.259 -0.0334  0.0319  0.0443
11975W        W27784  10.212  13.096  14.875  0.1192  0.0950  0.2213
11976W        W27785  10.086   4.414   3.947  0.1174  0.0721 -0.0589
11977W        W27786   6.305   4.556   5.237  0.0384 -0.1686  0.0654
11978W        W27787   9.427  12.509   0.101 -0.1257  0.0344 -0.2752
11979W        W27788   0.301  13.489   3.322  0.1621  0.0899  0.0985
11980W        W27789  12.949  12.750  14.097  0.0077  0.0603 -0.2874
11981W        W27790  12.594   4.743   5.763 -0.0815  0.1926 -0.0153
11982W        W27791   6.804   4.031   1.823  0.1701  0.2890  0.0741
11983W        W27792  12.568  15.375   3.129  0.0926 -0.1667  0.2836
11984W        W27793   9.392  14.371   4.767 -0.0649 -0.2900  0.1022
11985W        W27794   6.404  15.392   5.500  0.2796 -0.1878  0.0945
11986W        W27795   9.340  12.746  13.051  0.1295  0.2924  0.1143
11987W        W27796  12.052  16.039   2.976 -0.0730  0.1285  0.3816
11988W        W27797   0.815  11.138   1.440 -0.1183 -0.2092 -0.0496
11989W        W27798   7.694   3.880  16.686 -0.0125 -0.1604 -0.0572
11990W        W27799  11.827   0.285   3.892  0.0823  0.0136  0.0191
11991W        W27800   2.717   7.131   0.560 -0.4534  0.1357  0.0227
11992W        W27801   6.419   3.863  15.258  0.0134 -0.2506 -0.0669
11993W        W27802   8.975   5.234  16.040 -0.0449  0.0994 -0.0371
11994W        W27803  10.452  16.955   2.316  0.0166  0.0835 -0.3055
11995W        W27804  16.094   0.246   3.307 -0.1699 -0.1356  0.1546
11996W        W27805  13.725   0.151   0.425 -0.1138 -0.0256  0.1348
11997W        W27806   4.733   9.992   5.807  0.0813  0.2450 -0.0899
11998W        W27807   1.622   6.986  13.880 -0.3939  0.2106  0.0699
11999W        W27808   6.368   7.809   6.019  0.3543  0.0402  0.3254
12000W        W27809  13.034  16.432   2.189 -0.0700  0.1915  0.0845
12001W        W27810   8.486   0.798   2.025 -0.3165  0.0043  0.3162
12002W        W27811   8.299   1.599  11.880  0.1969 -0.0878  0.2838
12003W        W27812   9.750   6.449  13.962 -0.1597 -0.1841  0.0564
12004W        W27813   5.714   9.377   4.914 -0.0654  0.0031 -0.0195
12005W        W27814   4.059  12.075   5.441  0.2665 -0.0030  0.1938
12006W        W27815   8.107   3.727  16.483 -0.1397  0.1899  0.1522
12007W        W27816  16.437   3.147   4.936 -0.0275  0.0728 -0.0228
12008W        W27817  13.921   0.075   3.258 -0.0387  0.1732 -0.2196
12009W        W27818   1.215   9.880  11.908  0.3027 -0.0893 -0.3310
12010W        W27819   9.658   5.581   0.672  0.1704 -0.0131 -0.0311
12011W        W27820   9.220   4.459   1.231  0.0120 -0.2259 -0.2441
12012W        W27821   3.781   6.539  16.229  0.1225 -0.1749  0.1517
12013W        W27822   3.712   6.023   3.795  0.0728  0.3650  0.3634
12014W        W27823  12.266  13.883   3.299  0.1753 -0.0184  0.0268
12015W        W27824  12.301   1.494  14.339  0.0239 -0.2229  0.0837
12016W        W27825   2.096   9.517   2.397 -0.0642 -0.0958  0.0820
12017W        W27826   0.157  14.638  14.662  0.1358 -0.1182  0.2915
12018W        W27827   0.970  17.568   2.006  0.0089  0.0710  0.0002
12019W        W27828   0.854  10.991   3.234  0.0258 -0.0676  0.2303
12020W        W27829   3.543  12.640   2.356 -0.1130 -0.1433  0.0185
12021W        W27830  15.848  11.303   4.791  0.1268  0.0184  0.1582
12022W        W27831   7.186   2.807   6.043 -0.3684  0.1616 -0.0213
12023W        W27832  15.032  11.529  12.847 -0.0491 -0.3987  0.3242
12024W        W27833   3.693  10.691   1.854 -0.0280 -0.2656 -0.1105
12025W        W27834   8.952   2.636   3.821  0.2955  0.1293 -0.0432
12026W        W27835  16.103   3.014   2.903  0.2778  0.0138  0.0899
12027W        W27836   4.836   3.902  15.677  0.1293  0.0194  0.0203
12028W        W27837  17.610  10.308  16.152  0.2112  0.0290 -0.2381
12029W        W27838  11.314  11.119  12.199 -0.3189 -0.0971  0.2497
12030W        W27839   1.019   7.439  13.194  0.3660  0.3218  0.0025
12031W        W27840   1.395  11.463   4.128 -0.1391  0.2900  0.1146
12032W        W27841  14.084   6.866  13.768 -0.1819 -0.3274  0.2101
12033W        W27842  17.306   5.371   1.415 -0.1128 -0.1132  0.0913
12034W        W27843   6.824   3.547  14.693 -0.2178 -0.1631 -0.1446
12035W        W27844  16.989  14.342   4.230 -0.0061 -0.1359 -0.3407
12036W        W27845   1.129   1.181  15.122 -0.2961 -0.1086 -0.0790
12037W        W27846   3.579   1.419   5.291 -0.1866  0.0456  0.0809
12038W        W27847   9.221   8.348  14.691 -0.0567  0.0357 -0.2690
12039W        W27848  14.561  16.804   2.668  0.1941 -0.2817  0.3068
12040W        W27849  14.721  17.127   0.192  0.0328  0.1028 -0.0536
12041W        W27850  12.715  11.099  14.671 -0.1770  0.0844  0.1201
12042W        W27851   2.174   9.650  14.296  0.0423  0.4172  0.1126
12043W        W27852  16.085  10.368  13.552 -0.2432  0.0044  0.2503
12044W        W27853   6.158   1.918  13.724  0.1682  0.1008  0.1662
12045W        W27854  11.663  10.693  11.915 -0.1311 -0.2662  0.2537
12046W        W27855   9.886  17.249  16.813  0.1453  0.1244  0.0325
12047W        W27856   5.944   8.822  13.924  0.0322 -0.1641 -0.0468
12048W        W27857   4.915  10.101   4.919 -0.1581 -0.0016  0.1328
12049W        W27858   5.159  14.367   5.939 -0.0546  0.0092 -0.1398
12050W        W27859   8.423  16.369  11.304  0.0442  0.3303 -0.2473
12051W        W27860   5.609   6.276   0.944 -0.0118  0.2034  0.0510
12052W        W27861   0.819  15.316   3.818  0.2336 -0.0719 -0.0830
12053W        W27862  13.832  17.086   0.263  0.1804 -0.2542 -0.1288
12054W        W27863  16.085  17.198   5.270 -0.0934 -0.1527 -0.1198
12055W        W27864   2.384   0.117  13.652  0.2539  0.0003 -0.0277
12056W        W27865   8.982   6.827   5.422 -0.0623  0.0064 -0.1164
12057W        W27866  15.236   2.897   3.373  0.3924  0.1966 -0.1775
12058W        W27867   0.337  12.320   1.480  0.1987  0.0685 -0.0021
12059W        W27868   2.878   6.992   5.054  0.1148 -0.2817 -0.0957
12060W        W27869   1.429   3.489   3.544  0.0594  0.2937 -0.2501
12061W        W27870   0.636  11.462  12.939 -0.0313 -0.0259 -0.4188
12062W        W27871  16.333  15.301   4.901  0.0493 -0.1160 -0.0217
12063W        W27872  13.593   3.118   5.646  0.1028  0.1806  0.2165
12064W        W27873   4.519  15.361   3.185  0.3373  0.3741  0.4432
12065W        W27874  10.872   2.754   2.814  0.0368  0.3007 -0.0320
12066W        W27875  10.008  16.755   5.306 -0.4476 -0.0503 -0.0799
12067W        W27876   3.318   0.110  14.627  0.0226 -0.1202  0.1372
12068W        W27877  13.204   9.255  12.029  0.1023  0.3114  0.4655
12069W        W27878  16.691  12.929  16.427  0.3365 -0.0685 -0.0764
12070W        W27879   2.722   8.607   6.040 -0.3814  0.1779  0.3786
12071W        W27880   5.967  17.253  14.814  0.2143 -0.1946 -0.0655
12072W        W27881   1.700   4.531   3.093 -0.0066 -0.0667  0.0660
12073W        W27882  17.570   1.831   2.417  0.0834  0.0321 -0.2319
12074W        W27883  16.771   0.310  13.254  0.0699  0.1505  0.2032
12075W        W27884   5.438   7.968  15.115 -0.3466  0.1920  0.0316
12076W        W27885   0.554   3.306   1.526 -0.2243 -0.2649  0.1149
12077W        W27886   2.083  17.327  12.303 -0.2425 -0.1482  0.0360
12078W        W27887  15.265   2.952   2.320  0.1294 -0.1734 -0.0262
12079W        W27888   0.730   0.309   3.819  0.0148  0.1447  0.2318
12080W        W27889   7.762  13.059  12.231 -0.1582  0.1074 -0.0030
12081W        W27890  12.166  16.059   2.421 -0.0252  0.1322 -0.0298
12082W        W27891  15.857  16.834  16.465  0.2017  0.0335  0.0769
12083W        W27892   3.934  11.763  12.789  0.0991  0.2982  0.0288
12084W        W27893   5.486   8.736  11.216 -0.0164  0.1240  0.0526
12085W        W27894   4.778   8.255   2.898  0.2271  0.0047 -0.1513
12086W        W27895   3.731   5.542   2.617 -0.0493  0.3444 -0.0944
12087W        W27896  10.781   8.014   5.181 -0.0358  0.1429  0.2639
12088W        W27897  11.323  13.327   3.842 -0.1220 -0.0900 -0.1833
12089W        W27898  12.419  15.137  15.513 -0.1272  0.3973  0.0208
12090W        W27899  11.091   6.106  15.813  0.0368  0.1363  0.0472
12091W        W27900   5.977   3.351   5.504  0.1291 -0.0745  0.0806
12092W        W27901   9.765  17.449  16.283 -0.2020  0.0746 -0.0588
12093W        W27902  11.079  11.435   0.566  0.2145 -0.2706 -0.1938
12094W        W27903  13.926   6.898   2.437  0.0425 -0.0007  0.2803
12095W        W27904  15.982   7.839   3.535 -0.0332 -0.0187 -0.0538
12096W        W27905   2.186   4.879   5.906  0.0218  0.1926 -0.1728
12097W        W27906   8.620   6.653   0.685  0.2255 -0.1422  0.1721
12098W        W27907   0.898  16.013   4.924 -0.0306 -0.1440  0.0218
12099W        W27908  17.179   4.359   1.071 -0.1847 -0.0097  0.0784
12100W        W27909   6.243   8.476   0.127 -0.1042  0.1153  0.0917
12101W        W27910   7.566  11.738   3.704  0.1155  0.0464  0.0374
12102W        W27911   9.257   2.414  11.732  0.0371  0.1359 -0.2330
12103W        W27912  13.524   9.393  15.923  0.1502  0.0900  0.2136
12104W        W27913  11.413  13.982   1.376 -0.0897 -0.2718  0.0708
12105W        W27914   2.529  16.492   4.517 -0.2154  0.2520 -0.1541
12106W        W27915  15.998   0.144   0.809 -0.2624 -0.3388 -0.2960
12107W        W27916   8.874  11.604   3.908 -0.1754  0.1937 -0.1634
12108W        W27917   3.161   8.135  13.934  0.0689 -0.1874  0.1544
12109W        W27918   6.973  12.323   3.685  0.1732 -0.1150  0.0075
12110W        W27919   4.152  14.547   4.974 -0.0309 -0.0120  0.0165
12111W        W27920   7.607  17.129  16.183  0.1805 -0.0716  0.0519
12112W        W27921  11.726   9.464   1.305 -0.0613 -0.2336  0.2532
12113W        W27922   7.150  13.882  14.512  0.0712  0.0096  0.3776
12114W        W27923   1.435  13.601   3.904  0.1209 -0.2294  0.0193
12115W        W27924   1.843  10.899  14.654  0.2940 -0.2265 -0.0354
12116W        W27925  13.396   8.721   2.008 -0.0440  0.1565 -0.1265
12117W        W27926   6.388   4.041   2.126  0.3186  0.0224 -0.0204
12118W        W27927   3.211  17.189  12.483 -0.2953  0.2362  0.0736
12119W        W27928   2.658   3.677   1.313  0.0493  0.0374  0.0185
12120W        W27929  10.801   7.262  15.057 -0.0696  0.1257 -0.0279
12121W        W27930   9.777   7.064   5.038  0.3796  0.0482 -0.1605
12122W        W27931   7.795   6.827   1.736  0.1042 -0.2882 -0.0568
12123W        W27932   6.187  14.929   5.355 -0.1255 -0.0408 -0.2077
12124W        W27933  13.383  14.965  11.913 -0.0159  0.1420 -0.4271
12125W        W27934  15.393  10.274   1.566  0.0923  0.0686 -0.0871
12126W        W27935   7.703   6.461  12.958  0.2976  0.0293  0.0243
12127W        W27936  16.922  16.756  12.922 -0.1805 -0.0835  0.2189
12128W        W27937   5.703   0.073   2.076  0.0805 -0.5262  0.2711
12129W        W27938   8.385   3.713  15.370  0.0117 -0.0604  0.1213
12130W        W27939  15.738   3.419   0.944  0.3726 -0.1112 -0.2254
12131W        W27940  10.381  13.672  15.019 -0.1712  0.3256  0.0465
12132W        W27941  17.325  15.283   1.834  0.0909  0.1570  0.0870
12133W        W27942   2.694  12.949   4.186  0.2353 -0.4038 -0.2078
12134W        W27943   8.050  11.755   1.611  0.0856 -0.1144  0.1930
12135W        W27944   9.052  13.332  11.384 -0.1337  0.2998 -0.1242
12136W        W27945   7.943   0.066  15.550 -0.0657  0.0604 -0.1829
12137W        W27946  10.771   0.549   3.046 -0.1680 -0.0620 -0.2343
12138W        W27947   7.597   1.171  13.471  0.1114 -0.2671  0.1890
12139W        W27948  10.499  16.779  11.532 -0.0289  0.3301  0.0998
12140W        W27949  16.372   0.720   1.615  0.0967 -0.0517 -0.2221
12141W        W27950   9.471   2.708  13.002  0.0923 -0.0733 -0.1853
12142W        W27951   9.932   1.691   4.586 -0.0073  0.2776 -0.1667
12143W        W27952   9.296   3.619   0.104 -0.1654  0.0398 -0.3309
12144W        W27953   0.775   2.030  14.922  0.1452  0.1557 -0.1682
12145W        W27954  17.550   1.377   2.209  0.1478 -0.1750  0.0580
12146W        W27955  16.841  12.174  14.368  0.0583  0.0535 -0.1438
12147W        W27956   0.154   7.327   5.847 -0.3445 -0.2819  0.2156
12148W        W27957  17.343   1.252   0.734  0.1294  0.0992  0.3351
12149W        W27958   1.213  12.426  11.976 -0.0874  0.1926  0.0249
12150W        W27959   6.069   7.420   0.834 -0.1891  0.1092  0.3202
12151W        W27960   0.031  13.581  16.624 -0.3827 -0.2374 -0.3562
12152W        W27961  11.202   1.038   5.930  0.2383 -0.1911 -0.0089
12153W        W27962   2.213  12.996   2.000 -0.0824 -0.0995 -0.0005
12154W        W27963   0.338  12.622   5.960 -0.0650 -0.2137  0.0334
12155W        W27964  10.855  11.143  14.183 -0.1733 -0.1917  0.2026
12156W        W27965   4.589  15.243  16.856 -0.0675  0.4834  0.1189
12157W        W27966  16.416   6.249   3.772 -0.4063  0.1930 -0.0429
12158W        W27967  10.972  16.813   0.037 -0.2263 -0.1687  0.0960
12159W        W27968   4.693  11.561   5.833 -0.1326  0.3898  0.1130
12160W        W27969  16.930  14.471   5.180 -0.1909  0.1159 -0.0610
12161W        W27970  17.686   2.522   5.816 -0.0034  0.0264 -0.1327
12162W        W27971  13.489   0.309   0.003  0.2276  0.2926  0.0241
12163W        W27972   9.264  16.446  16.482  0.0661 -0.1423 -0.0900
12164W        W27973   9.018  13.584  12.753 -0.0506  0.0701  0.1560
12165W        W27974  11.332  16.644   0.888 -0.1313  0.1882 -0.2220
12166W        W27975  17.675   9.608  16.712 -0.0855 -0.1196 -0.0243
12167W        W27976   1.179   4.247  13.108 -0.0871  0.2792  0.0779
12168W        W27977  14.465  13.980   0.453  0.1908  0.0945 -0.0345
12169W        W27978   7.932   2.137   4.528  0.0308  0.2473 -0.2135
12170W        W27979  11.350  16.577   4.574 -0.0007  0.0617  0.1774
12171W        W27980  14.961  13.962   0.576 -0.1893  0.0989  0.1561
12172W        W27981   5.958  10.228   2.220  0.2306  0.0298  0.0866
12173W        W27982  17.377   8.893   5.258 -0.0435 -0.0226  0.0948
12174W        W27983   5.937  12.815  16.176 -0.2104 -0.1922 -0.0441
12175W        W27984   5.296   1.670   4.627 -0.1503 -0.0996  0.1883
12176W        W27985   6.726   1.719  15.469  0.1191  0.3410 -0.0798
12177W        W27986  12.808   1.230   3.401  0.0868 -0.1107 -0.1344
12178W        W27987   0.570  16.371  12.899 -0.0276  0.1738  0.0560
12179W        W27988  16.559   3.515   5.815 -0.0108 -0.3360  0.0526
12180W        W27989   5.815  12.162  12.066 -0.0348 -0.2276 -0.1183
12181W        W27990  16.862   7.723   0.051  0.1469 -0.0726  0.1680
12182W        W27991   2.559  11.179  14.850  0.0168 -0.0969  0.0157
12183W        W27992   0.577  16.067   3.194 -0.0458 -0.1064 -0.1096
12184W        W27993   5.440  15.487   4.776 -0.1815  0.0245  0.2367
12185W        W27994  15.490   6.367  13.126 -0.1846 -0.0324 -0.1831
12186W        W27995   8.878   9.518  16.258  0.0415  0.1486 -0.1571
12187W        W27996   4.019  14.593  13.054  0.1341 -0.0897  0.2062
12188W        W27997   8.877   4.453  13.204 -0.2680  0.0130 -0.0821
12189W        W27998  14.659   5.259   0.493  0.0790  0.2446 -0.2260
12190W        W27999   8.280  10.074   3.685 -0.1079 -0.0902  0.1191
12191W        W28000  12.767   2.158  14.577 -0.0703 -0.0140  0.2319
12192W        W28001  11.687  12.804  12.816 -0.1039 -0.0036  0.2549
12193W        W28002   6.121   3.437  13.287  0.0678  0.0812 -0.0803
12194W        W28003   3.518  16.179  12.892 -0.1947  0.1661  0.0430
12195W        W28004  16.627   8.487   6.439 -0.0293 -0.1073  0.0962
12196W        W28005   9.962   4.661   6.518 -0.1675 -0.1201  0.1499
12197W        W28006   8.911   0.863   1.144  0.1382  0.0880 -0.0743
12198W        W28007   2.602   8.939   3.192 -0.0206 -0.0680  0.0100
12199W        W28008  12.503  11.644  15.035 -0.1093  0.0337  0.3275
12200W        W28009   2.108   4.575  16.836  0.2713  0.1073  0.1391
12201W        W28010   1.619  14.429  15.718 -0.3056  0.1180 -0.2070
12202W        W28011  16.803  14.415   2.132  0.0205 -0.1061  0.2058
12203W        W28012   1.538  14.605   3.970  0.2862 -0.1360 -0.0386
12204W        W28013   1.820   8.027   3.801  0.1625  0.1920 -0.2688
12205W        W28014   6.626   3.192  16.251  0.1777  0.4635  0.0686
12206W        W28015  10.593  10.881   4.769 -0.0570 -0.1975  0.0376
12207W        W28016   7.251  17.162  15.273 -0.0145 -0.0444 -0.1688
12208W        W28017  11.013   6.325  16.740 -0.1762  0.0711 -0.0927
12209W        W28018  15.233   4.124  12.973 -0.0128 -0.3332  0.2724
12210W        W28019   4.416   2.024  15.691 -0.0377 -0.1227  0.3336
12211W        W28020  16.260   1.284   5.784  0.2359  0.0945  0.0218
12212W        W28021  17.362  11.830  11.533 -0.0512 -0.2144  0.0116
12213W        W28022   0.249   8.719  13.022  0.1610 -0.1589 -0.1382
12214W        W28023  15.958  13.176   4.655 -0.1872 -0.1138 -0.0192
12215W        W28024  10.208   8.448  15.736  0.0475 -0.2398  0.4394
12216W        W28025  14.003  16.946   2.929  0.0464  0.0563  0.1296
12217W        W28026   7.363   6.189   3.302  0.3801 -0.1877 -0.1208
12218W        W28027  11.573  11.387  12.532  0.0890 -0.2758  0.1037
12219W        W28028   7.345  16.490   1.270  0.0672  0.0571 -0.2220
12220W        W28029   1.164  12.883   2.944 -0.0908  0.1262  0.3563
12221W        W28030  10.004  16.987   0.224  0.0577 -0.1517  0.0296
12222W        W28031   6.402   6.460   5.696 -0.2065 -0.2414 -0.0261
12223W        W28032   7.064  15.695   3.274  0.0027  0.0851 -0.1495
12224W        W28033   6.388   9.163  12.798  0.0055 -0.1227  0.0091
12225W        W28034  11.361   3.059  16.555 -0.1006  0.2034  0.0393
12226W        W28035  13.851  13.883  12.377 -0.4056 -0.1035  0.0318
12227W        W28036   2.271  14.408   1.952 -0.2040  0.1441 -0.0034
12228W        W28037   9.830  12.419  13.257  0.3018 -0.0754 -0.1109
12229W        W28038   3.838   1.486   6.359  0.2088  0.0906  0.1839
12230W        W28039   1.601   5.706  14.042 -0.5262 -0.1151  0.0316
12231W        W28040  13.233   0.736  11.914 -0.4952 -0.0618 -0.1758
12232W        W28041   7.153   4.199  13.799 -0.0393  0.0069 -0.0815
12233W        W28042  11.830  14.556   0.853  0.1406 -0.0188 -0.1153
12234W        W28043   2.377   6.395  14.891 -0.0428 -0.2266 -0.1791
12235W        W28044   4.830  14.359   4.971 -0.0397  0.1227  0.0260
12236W        W28045   9.548  13.750  12.078  0.5098 -0.1346 -0.1226
12237W        W28046  17.356  14.782  16.797  0.1943 -0.1571 -0.0144
12238W        W28047  16.810   6.021  11.637 -0.0885 -0.1058  0.1181
12239W        W28048   1.622  14.084   1.272  0.0949 -0.0679 -0.1060
12240W        W28049  10.867   4.330  16.660 -0.1587  0.1089  0.1599
12241W        W28050   8.696  16.985   1.786  0.1010  0.0007 -0.1554
12242W        W28051   4.194  15.099  14.585 -0.2588 -0.1928  0.0201
12243W        W28052   6.576   2.447   1.641 -0.0375  0.1687  0.1792
12244W        W28053  14.432  15.104  11.916  0.0160 -0.0613  0.1322
12245W        W28054   5.150  11.637  15.157  0.0990  0.0641 -0.0864
12246W        W28055   5.081   5.296   2.287  0.1895  0.0499 -0.1841
12247W        W28056   9.597   7.792  15.342  0.1328  0.0297  0.1155
12248W        W28057   2.705   5.751  16.398 -0.1400 -0.2884  0.0734
12249W        W28058  16.915   5.506   2.543 -0.0029 -0.1248  0.0215
12250W        W28059  14.099   2.579   4.108 -0.1097 -0.1660 -0.0800
12251W        W28060   9.215   7.974   0.051 -0.3225  0.1545 -0.0171
12252W        W28061  14.878   8.511  13.945 -0.0915 -0.0738 -0.3069
12253W        W28062   1.735   4.698  12.648 -0.4315 -0.1289 -0.2613
12254W        W28063  17.192   7.927   1.024  0.0372 -0.1743 -0.0789
12255W        W28064   6.538   9.604  13.039 -0.2538  0.1620  0.1669
12256W        W28065   7.233   9.056  12.558  0.0384 -0.1249  0.1096
12257W        W28066   8.543   0.177  11.673  0.1571 -0.0086 -0.0261
12258W        W28067  11.841   5.636   3.723  0.1237 -0.1150  0.0507
12259W        W28068   2.663   9.245   3.641  0.2768  0.0169 -0.0764
12260W        W28069   2.669  11.694   4.702 -0.1203 -0.0302 -0.0130
12261W        W28070   1.191  10.990   3.979 -0.1671  0.2596  0.0046
12262W        W28071  13.609   2.263   0.666  0.1418 -0.1049  0.1086
12263W        W28072  10.845  14.174  14.746  0.3087  0.0696  0.1092
12264W        W28073   2.190   4.803   5.200 -0.1802 -0.1121 -0.0045
12265W        W28074   2.061   8.598   0.645  0.0970 -0.1603  0.3110
12266W        W28075   9.307   0.665   0.906 -0.2079 -0.1779 -0.2599
12267W        W28076   8.655  14.955  15.133 -0.0647  0.1114  0.1139
12268W        W28077   4.673  17.107  16.960 -0.2669 -0.0163  0.2645
12269W        W28078   5.423   3.907  12.988  0.2398  0.1861 -0.6118
12270W        W28079  11.737  16.186  15.755 -0.1825 -0.1255  0.0689
12271W        W28080  13.135   1.991  16.387  0.2653 -0.0540  0.1885
12272W        W28081  13.410   3.130   4.979 -0.0491 -0.0937 -0.0357
12273W        W28082  12.012  13.225   1.715 -0.0442  0.0794  0.1157
12274W        W28083  13.225  12.714  13.708  0.0635 -0.3137 -0.0191
12275W        W28084  11.905  10.369   3.514 -0.0713 -0.2296  0.1802
12276W        W28085   7.954  15.024  14.509 -0.3526  0.1048 -0.0329
12277W        W28086   7.311  17.061  13.867 -0.2154  0.0726 -0.0561
12278W        W28087   1.724   0.031   5.225 -0.0289 -0.1852  0.1340
12279W        W28088   9.070  14.511   4.412  0.1744 -0.3888 -0.0218
12280W        W28089   1.072   7.226   1.309  0.1712 -0.1157 -0.0532
12281W        W28090   6.954   4.915   3.588  0.2895 -0.2486 -0.2863
12282W        W28091  13.955   2.487  14.766 -0.0676  0.0930  0.1234
12283W        W28092   3.831  11.462  13.899 -0.2299 -0.4724  0.1568
12284W        W28093  10.759  14.418  12.600 -0.2453  0.3591  0.1275
12285W        W28094   4.700  10.511  13.890  0.0760  0.0088  0.4376
12286W        W28095  16.031   4.952   0.166 -0.0632 -0.0264 -0.0314
12287W        W28096  12.264   7.198  15.422 -0.0301 -0.0461 -0.1767
12288W        W28097  12.121  10.267   0.199  0.1546 -0.1230 -0.0158
12289W        W28098   5.218   2.009  13.109 -0.0501  0.0231  0.0357
12290W        W28099   9.791  16.780   0.758 -0.0527  0.1726  0.1822
12291W        W28100   4.638   0.875  13.855  0.1712  0.0619 -0.2283
12292W        W28101   2.646   4.624   5.076  0.1024  0.0514 -0.0601
12293W        W28102   6.295   2.539   3.976  0.0995 -0.0978  0.0258
12294W        W28103   9.436   6.547   2.800  0.1308  0.3503 -0.5516
12295W        W28104   8.374   5.717   4.412  0.2788 -0.1774 -0.4988
12296W        W28105  12.628   5.618  12.825  0.1251 -0.0505 -0.2602
12297W        W28106  12.483   0.491  10.308  0.2908 -0.0309  0.0200
12298W        W28107  13.957   9.928   2.086 -0.1815  0.2088 -0.1540
12299W        W28108  13.725   6.753  12.009 -0.1861 -0.1726  0.2143
12300W        W28109  11.080   7.989   0.674  0.1748 -0.0642  0.1650
12301W        W28110   5.941   7.994   3.734  0.2574 -0.0182 -0.2566
12302W        W28111   8.007  15.326   4.425  0.0441  0.3402  0.2000
12303W        W28112  17.642   6.830  16.589  0.0590 -0.0162  0.2266
12304W        W28113  11.761  16.690   1.889 -0.1507  0.0323 -0.0010
12305W        W28114   3.062   7.949  16.293  0.0855  0.0474  0.2812
12306W        W28115  13.239   4.827  15.875 -0.0273  0.0603 -0.0215
12307W        W28116   4.967   9.157  13.974 -0.0431  0.2169  0.4529
12308W        W28117  14.066   2.886   1.242 -0.0627  0.0075  0.0378
12309W        W28118   4.891  13.346   5.058 -0.1638 -0.1605  0.0258
12310W        W28119   5.481   3.872   3.176  0.1093 -0.1459 -0.3847
12311W        W28120   8.196  15.614   1.834 -0.0420 -0.2447 -0.1088
12312W        W28121  16.611   0.291  14.864 -0.0730  0.1513  0.1272
12313W        W28122  14.748  14.828   3.401 -0.0368 -0.2572 -0.1043
12314W        W28123   9.619  10.716  15.852 -0.3029  0.0522 -0.2663
12315W        W28124   8.825  10.198  16.636  0.0265 -0.0525  0.2747
12316W        W28125  14.266   2.353  15.253  0.1963  0.0687 -0.3989
12317W        W28126   6.564  12.047   1.200 -0.1411  0.1068 -0.3648
12318W        W28127  16.928  17.583   0.457  0.0489 -0.1576  0.0413
12319W        W28128   1.828   7.304  12.740 -0.3435 -0.1271  0.0990
12320W        W28129  10.799   9.481  13.403  0.1155  0.1174 -0.1826
12321W        W28130   6.269  13.379  16.655 -0.1664 -0.1286  0.1114
12322W        W28131  10.695   6.590  12.852  0.2894 -0.1908  0.2850
12323W        W28132  13.752  10.499  13.670 -0.0322 -0.3373  0.1325
12324W        W28133   6.076   0.992  15.080  0.1216 -0.1503  0.0617
12325W        W28134   8.695   5.617  15.475 -0.0729 -0.3893 -0.1313
12326W        W28135   9.755  11.903   1.495  0.0567  0.0564  0.1193
12327W        W28136  17.005  12.199  11.760  0.0845  0.0628 -0.1721
12328W        W28137  13.704   0.251   5.486  0.0647 -0.1827 -0.2034
12329W        W28138  16.691  13.789  15.045 -0.2595 -0.2369 -0.0503
12330W        W28139   9.594   6.023  15.973 -0.3532 -0.2200  0.0083
12331W        W28140   4.910  17.627  12.145 -0.2298  0.0987 -0.2005
12332W        W28141   2.152   6.384   1.564 -0.3333 -0.1808 -0.0815
12333W        W28142   6.318   9.270  16.320  0.2536  0.0938 -0.0798
12334W        W28143  13.226  17.482  16.823  0.2119  0.3156  0.1302
12335W        W28144   8.371   9.087   4.279 -0.0138 -0.0114 -0.0577
12336W        W28145   6.668   4.978  16.702  0.2023  0.0187  0.0786
12337W        W28146   7.243   1.546  13.120 -0.0991 -0.0230 -0.0061
12338W        W28147  11.264  12.962   1.419  0.1184  0.0128  0.0386
12339W        W28148  10.888   1.138  11.408 -0.3942 -0.1766 -0.0688
12340W        W28149  11.091   1.318  14.766 -0.1503  0.4080  0.0926
12341W        W28150   6.205  10.541   0.363 -0.0420 -0.1352  0.1505
12342W        W28151   1.478  14.842   4.716 -0.1064  0.1926 -0.1023
12343W        W28152  10.596  15.985  16.889 -0.0389  0.0500 -0.1169
12344W        W28153  15.986   5.658  16.853 -0.1035 -0.0931 -0.2950
12345W        W28154   4.481  12.428  13.456  0.0841  0.2371 -0.4325
12346W        W28155  14.348  14.374   5.841  0.0397 -0.3463  0.2741
12347W        W28156   5.466  10.182  12.193 -0.0746 -0.1755  0.1807
12348W        W28157   7.950   3.461  16.851  0.3204  0.0229 -0.0427
12349W        W28158   0.729   6.415   3.760  0.1923  0.0780 -0.0492
12350W        W28159  15.303  11.047   2.753  0.3907  0.0814  0.0596
12351W        W28160  12.078  13.022   2.548 -0.1438  0.2024  0.0670
12352W        W28161   9.266  15.109  12.841 -0.2558  0.0117  0.0491
12353W        W28162  16.491   6.033  13.952  0.2516 -0.1127 -0.0984
12354W        W28163   3.381   1.327  12.168 -0.1496 -0.1379 -0.0417
12355W        W28164  13.224  10.085  12.050  0.1109 -0.0650  0.0076
12356W        W28165  14.899   6.581   0.472  0.2958  0.2252 -0.0944
12357W        W28166   3.860   2.793   2.831  0.0033  0.1301  0.1238
12358W        W28167   2.858   0.030  11.049  0.1827  0.1516 -0.0203
12359W        W28168  10.548   6.530  14.984  0.0550  0.0250 -0.4089
12360W        W28169   4.543  14.191  16.029  0.0289  0.0984 -0.1492
12361W        W28170  11.200  13.282   0.148 -0.0899  0.0371  0.0420
12362W        W28171   7.964   2.296  11.990  0.3069  0.0464  0.0879
12363W        W28172   9.838  11.432  11.428 -0.0465 -0.0890 -0.0135
12364W        W28173  13.813  11.948  16.974 -0.0152  0.0894 -0.0561
12365W        W28174   7.508  14.861  15.337 -0.1396  0.2497 -0.0798
12366W        W28175  17.731   0.852   0.302 -0.1106 -0.0161  0.2402
12367W        W28176  10.989   1.235  13.864 -0.3411 -0.0147  0.0854
12368W        W28177   0.095  13.412   4.048 -0.0573  0.0313  0.1004
12369W        W28178   5.471   0.394  12.829  0.0099 -0.0160 -0.1040
12370W        W28179  16.369  13.285  13.238 -0.1128 -0.3408 -0.4353
12371W        W28180   6.188   2.860  16.216 -0.1574 -0.0296 -0.1354
12372W        W28181   5.032   9.022  16.328  0.2610  0.3332 -0.1886
12373W        W28182   1.113   2.048  13.340  0.1847 -0.2190 -0.2388
12374W        W28183   1.419   5.130  16.860 -0.0403 -0.1328 -0.1666
12375W        W28184  16.907   3.000   5.903  0.2449  0.0008  0.0607
12376W        W28185   0.888  10.093  12.659  0.1020 -0.2816  0.1938
12377W        W28186   8.378  12.793  13.684  0.0574  0.1275  0.0518
12378W        W28187   6.485  17.122   5.483  0.1472 -0.1146 -0.1014
12379W        W28188  10.748  14.004  12.982  0.1489 -0.2994 -0.4082
12380W        W28189   2.240  11.563  16.161  0.0223  0.3417 -0.2278
12381W        W28190  13.327  12.340  12.249 -0.1515  0.1754 -0.0368
12382W        W28191  11.038  16.774  15.986 -0.0339 -0.4053 -0.0453
12383W        W28192   1.365   4.345   0.235  0.0751  0.0545 -0.0093
12384W        W28193   0.441  16.347   4.938  0.0423  0.1885  0.0146
12385W        W28194   6.178  15.047   0.182  0.1471 -0.0107 -0.2751
12386W        W28195   1.703   5.811  15.526 -0.0262 -0.2811  0.0689
12387W        W28196   9.311   6.909   5.826  0.0858  0.1692  0.1102
12388W        W28197  16.330  16.078   4.405  0.1228  0.0082  0.1135
12389W        W28198   7.197   8.413   4.826  0.1988 -0.0934 -0.0032
12390W        W28199   2.840   3.591   0.468  0.0779 -0.1879  0.1529
12391W        W28200  12.846  15.550   0.434 -0.0785 -0.2130 -0.1487
12392W        W28201   2.402  15.823   2.887  0.2700  0.0752  0.3601
12393W        W28202  13.014   1.829  13.860 -0.2745  0.1036 -0.2197
12394W        W28203  11.248   8.916   1.924 -0.1673 -0.2322  0.0771
12395W        W28204  13.344   6.422  13.172  0.0840 -0.0418 -0.0532
12396W        W28205   1.641  10.832   1.239  0.2467  0.5210  0.0862
12397W        W28206   9.192  16.003  16.680  0.0695  0.1084 -0.0843
12398W        W28207  14.123   4.842   1.254 -0.0577  0.6247  0.1511
12399W        W28208   2.087  11.139   4.230  0.0685  0.1759 -0.0640
12400W        W28209  11.672  16.168   2.056  0.0526 -0.1151  0.1583
12401W        W28210  16.289   2.169   0.446 -0.2367  0.5435  0.1256
12402W        W28211   1.410  10.262   2.154 -0.1759  0.0024  0.2897
12403W        W28212   5.721  15.374  11.961 -0.2275  0.0580  0.0324
12404W        W28213   6.606  10.676  14.600 -0.2687 -0.3567  0.0898
12405W        W28214  11.969   8.407   2.271 -0.0229 -0.0865  0.0346
12406W        W28215  14.310   7.798   1.662  0.2725  0.1755  0.0805
12407W        W28216  12.808   2.657   5.359  0.1515  0.4982  0.0688
12408W        W28217   6.534  11.086   3.799  0.0307 -0.1599 -0.2308
12409W        W28218   0.645   6.351  13.948  0.2031  0.0853  0.1055
12410W        W28219   6.214   7.040  14.495 -0.0751  0.0511 -0.0841
12411W        W28220  11.783   8.360   5.482 -0.0712  0.0714  0.0625
12412W        W28221   4.741   6.689  16.878 -0.2809 -0.5548 -0.2704
12413W        W28222   2.817   3.198   5.397 -0.0006 -0.1741 -0.1335
12414W        W28223  14.956   8.118  12.774  0.0237 -0.0168  0.0548
12415W        W28224   8.647  16.012   0.992  0.0212 -0.0523  0.0099
12416W        W28225   4.267  16.842  12.757  0.0431 -0.0444 -0.1443
12417W        W28226  11.142  17.637  16.471 -0.0468 -0.1465 -0.5197
12418W        W28227  16.478   3.250   2.090 -0.1776 -0.2532 -0.0062
12419W        W28228   3.012   6.454  14.508  0.0835  0.0452  0.0734
12420W        W28229   7.687  13.032   4.500 -0.1644  0.1800  0.0022
12421W        W28230  10.914   5.137   5.585 -0.1614  0.0626  0.1610
12422W        W28231   9.510  13.397  14.802  0.0826 -0.4482 -0.1412
12423W        W28232   3.764   0.456  13.401 -0.3825  0.0594  0.0323
12424W        W28233   3.833  13.543  11.435  0.2154  0.1472 -0.0983
12425W        W28234   4.915   2.126  12.158  0.1149 -0.3621  0.1625
12426W        W28235   7.754   1.132  14.878  0.3108  0.0242 -0.0476
12427W        W28236   3.112   6.585  15.013  0.0328  0.1714 -0.0692
12428W        W28237   8.700   1.401  16.581 -0.2195 -0.1917 -0.0404
12429W        W28238   3.204   7.264   2.804 -0.0865  0.0540 -0.2868
12430W        W28239   1.639   0.398   3.727 -0.0705  0.0773 -0.4557
12431W        W28240   5.978  11.665   5.876 -0.0348  0.2200  0.0531
12432W        W28241   6.563   9.160   2.155  0.0946 -0.3211 -0.0020
12433W        W28242  16.035  16.714  11.348  0.1196  0.0657  0.1028
12434W        W28243   8.151   0.300  12.584 -0.2059 -0.1032 -0.0079
12435W        W28244   3.061   0.548  16.280  0.0320  0.2643 -0.2994
12436W        W28245  10.877   8.479   0.498 -0.0604  0.3342 -0.2187
12437W        W28246  10.418  13.578   2.138 -0.0808 -0.3688 -0.1017
12438W        W28247   8.943  15.509   0.959  0.0082 -0.4450 -0.1245
12439W        W28248  15.478   3.772   5.144 -0.4300 -0.2063 -0.0514
12440W        W28249  15.666  12.680  14.988 -0.1885  0.0489  0.0943
12441W        W28250   6.825   7.982  14.479  0.2409  0.0343  0.1500
12442W        W28251   0.557  17.031   1.514  0.2645 -0.0264 -0.3208
12443W        W28252   0.566  13.554   2.850 -0.0711 -0.2377  0.0126
12444W        W28253   6.199  15.398   0.552  0.2416  0.0569  0.1064
12445W        W28254   0.050  13.623   1.013  0.2942  0.0581 -0.0545
12446W        W28255  15.235  16.126   5.895  0.1278  0.0744  0.0340
12447W        W28256   5.643  14.185   1.222  0.0319  0.1971  0.1418
12448W        W28257   3.664  14.482  12.656  0.1541 -0.3511  0.2530
12449W        W28258  13.038  17.024  12.334  0.0962 -0.1963  0.1644
12450W        W28259   8.856   5.219   3.568 -0.0934 -0.0291  0.0979
12451W        W28260   9.502   3.210   0.976 -0.0198  0.1289 -0.1396
12452W        W28261   9.963   9.007   4.858 -0.1229  0.0542  0.2237
12453W        W28262  10.553  16.201  16.415  0.1417  0.1316 -0.0160
12454W        W28263   4.120  10.075   0.913 -0.0659 -0.3988 -0.3217
12455W        W28264   2.212   6.383  16.644 -0.0412 -0.2087  0.1477
12456W        W28265  11.592  17.708   5.736  0.4231 -0.0434  0.2322
12457W        W28266   7.629  10.410  13.522  0.2300 -0.0453  0.6092
12458W        W28267  15.974  17.386   5.792  0.0209  0.2108 -0.0630
12459W        W28268   7.756   5.640   0.977  0.2262 -0.0147 -0.0732
12460W        W28269  13.018   9.652  15.956  0.2261 -0.0341  0.1213
12461W        W28270   4.697  12.238   1.032 -0.2222 -0.2377  0.0889
12462W        W28271   6.271  15.231   4.925 -0.1669 -0.1523  0.1008
12463W        W28272  12.384  17.236  14.062 -0.0783 -0.2026  0.0983
12464W        W28273  15.295   4.581  12.773  0.0720  0.3519  0.2283
12465W        W28274   3.797   2.616  14.816  0.2546  0.1028 -0.1110
12466W        W28275   1.082  11.412   2.956 -0.2162 -0.0592 -0.1990
12467W        W28276   2.592   8.084  16.386 -0.1321  0.0273 -0.3972
12468W        W28277  14.284   9.877  14.317  0.3941  0.1123 -0.0908
12469W        W28278  13.630  12.011   0.885  0.1147 -0.0931 -0.0793
12470W        W28279  16.020   1.878  12.512 -0.0097 -0.0853  0.0345
12471W        W28280   2.806   3.469   5.805 -0.1827  0.1051 -0.0052
12472W        W28281   0.449   2.796   3.218 -0.1981 -0.1081  0.0927
12473W        W28282   3.226   5.105  16.044  0.0604 -0.1586 -0.0330
12474W        W28283   3.494   6.177   4.250 -0.2476 -0.0238  0.2559
12475W        W28284   4.669   3.321   0.055  0.0530  0.3381  0.0831
12476W        W28285   0.509   5.508  15.414 -0.1450 -0.1950  0.0125
12477W        W28286  15.355  13.909   0.199  0.2460  0.4121  0.1182
12478W        W28287  16.697   9.102  12.546 -0.1078 -0.0683  0.0591
12479W        W28288   3.770   2.563  16.132  0.2785  0.2347  0.0922
12480W        W28289   0.023  11.974   4.189  0.0102 -0.1517 -0.1393
12481W        W28290   2.343  12.903   0.512  0.3281 -0.1074 -0.1682
12482W        W28291  13.474   0.060   3.514  0.0858 -0.0923  0.0245
12483W        W28292   6.030   5.636   0.352  0.2808  0.2850 -0.2405
12484W        W28293   0.379  16.545   4.008 -0.1208  0.0074 -0.1642
12485W        W28294  10.528  15.132   1.274 -0.1786 -0.1906  0.2107
12486W        W28295  15.897   7.762  15.502 -0.0927  0.0759 -0.0232
12487W        W28296  10.854  13.135  11.116 -0.3293  0.1605 -0.2291
12488W        W28297   1.856   0.835  13.838  0.1086 -0.0838  0.2123
12489W        W28298   8.571  13.243   3.362 -0.3113 -0.3698  0.2034
12490W        W28299   4.883   6.076   2.287 -0.0404 -0.0256 -0.3847
12491W        W28300  13.421  16.958   2.024  0.2075 -0.0078  0.0334
12492W        W28301  14.118  16.288   0.129 -0.0867  0.1919  0.2180
12493W        W28302  16.645  10.450   0.959 -0.1423 -0.1529 -0.1566
12494W        W28303  15.286  15.531   3.533  0.1706  0.2143 -0.2408
12495W        W28304   4.389  17.542  16.803 -0.0884  0.2865  0.0117
12496W        W28305   0.308  17.688   4.727 -0.0956 -0.1183 -0.1754
12497W        W28306   9.003   3.616   3.143  0.0482 -0.0378  0.5639
12498W        W28307   0.253   4.801   5.771 -0.2741  0.0218 -0.0999
12499W        W28308  13.334  12.537  14.960  0.0068  0.1752 -0.1497
12500W        W28309   2.998  12.199  12.834 -0.0647  0.2772 -0.2951
12501W        W28310   1.786   8.564  12.210 -0.1287 -0.3047 -0.0763
12502W        W28311   2.538  15.513   0.312  0.1649  0.1617 -0.0420
12503W        W28312  11.121   0.342  11.551  0.1224 -0.0974 -0.0455
12504W        W28313  15.092   6.850  15.110  0.0294 -0.4366 -0.1415
12505W        W28314  16.333  15.830   2.552 -0.2234 -0.3463  0.1372
12506W        W28315   5.956   9.691   3.156  0.0937 -0.1638  0.0945
12507W        W28316  17.480   3.516  12.672 -0.2209  0.3183 -0.1378
12508W        W28317   3.846   0.124   2.078  0.1047  0.2733 -0.0095
12509W        W28318  11.944  13.564   5.251 -0.1334  0.1584  0.2799
12510W        W28319   4.036  15.378   2.948 -0.1040  0.0208 -0.0189
12511W        W28320  13.886   9.061   5.044  0.0133  0.1542  0.1194
12512W        W28321  15.358   1.248   3.995  0.0587 -0.1626  0.1146
12513W        W28322  10.596  12.416   4.797  0.2561 -0.0460 -0.0634
12514W        W28323  13.297  12.086   0.034  0.0005  0.0766 -0.0377
12515W        W28324   0.619  14.642   4.575  0.4390 -0.5422 -0.0408
12516W        W28325   8.357  14.766   3.866 -0.1155  0.1008 -0.0931
12517W        W28326  10.072  12.765   4.164  0.1157 -0.0989 -0.2909
12518W        W28327  15.373  12.060  12.606 -0.1881 -0.0035 -0.1889
12519W        W28328   8.619  17.343   3.128  0.0055 -0.3527  0.1031
12520W        W28329  12.602   0.271  12.502 -0.2503  0.0686 -0.0053
12521W        W28330   0.349   3.739  15.018 -0.1522 -0.4648 -0.0448
12522W        W28331   5.671   8.544   5.416 -0.1467 -0.0499 -0.2005
12523W        W28332  11.462   1.355  15.862 -0.0664  0.2401 -0.0332
12524W        W28333   6.898   3.521  11.561 -0.4430 -0.1590  0.2784
12525W        W28334  16.559  17.212  14.372 -0.1597  0.4263 -0.0547
12526W        W28335   5.679   5.414   3.469  0.0987 -0.1811  0.0412
12527W        W28336   8.020  10.885   1.835  0.0421  0.2595 -0.1599
12528W        W28337   4.439  14.966  13.063  0.1788  0.0114 -0.1675
12529W        W28338   4.086   8.064  16.037 -0.1653  0.2132  0.1833
12530W        W28339   5.025  16.569  16.721  0.0558  0.0580  0.2571
12531W        W28340  14.737  17.647   5.365 -0.1156 -0.1286  0.0651
12532W        W28341  11.721  13.268   2.235 -0.1725  0.0042  0.0559
12533W        W28342   3.740  11.047  12.740  0.3142  0.0322 -0.1026
12534W        W28343   8.628   7.546   2.056  0.2556  0.0288 -0.2057
12535W        W28344  14.860   7.808  11.918  0.0004 -0.1386 -0.1599
12536W        W28345   4.696  10.612   0.100 -0.1089  0.3495 -0.1912
12537W        W28346   4.520  11.714   1.433  0.1502  0.0386  0.0909
12538W        W28347   0.658  14.768  11.417 -0.2042  0.0459  0.0630
12539W        W28348   2.892  13.844  12.763  0.0091 -0.1248 -0.0530
12540W        W28349  16.022  10.355   0.166 -0.0082 -0.1654 -0.1134
12541W        W28350   7.873  10.490  12.492 -0.1181 -0.0311  0.2117
12542W        W28351  17.706   1.465   5.817 -0.1213 -0.3853  0.0121
12543W        W28352  14.802   6.104   0.234 -0.2575  0.2394  0.0936
12544W        W28353   2.143  16.712   1.199 -0.1539  0.0675 -0.3144
12545W        W28354   1.735   6.756   0.913 -0.0627 -0.1102 -0.0820
12546W        W28355   5.871  13.366  13.369 -0.1039 -0.0179 -0.1587
12547W        W28356   6.728   9.709   3.164 -0.0675  0.0834  0.1526
12548W        W28357   6.623   5.982  16.825 -0.0131 -0.0045 -0.2644
12549W        W28358  12.397  12.192   0.297 -0.0869  0.0238  0.1828
12550W        W28359   7.656   5.091  15.843 -0.2124 -0.1045  0.1151
12551W        W28360   7.786  15.287   2.062  0.0058 -0.0706  0.1688
12552W        W28361  10.468   2.405   5.055  0.1324  0.1387 -0.0495
12553W        W28362   2.294   3.766  13.358  0.0432  0.0841  0.2058
12554W        W28363  13.605   6.862   4.754  0.1070  0.2226  0.1717
12555W        W28364  14.714  10.136  16.763  0.0180  0.2923 -0.1572
12556W        W28365   0.465  11.110   5.473  0.1946  0.0629 -0.1860
12557W        W28366  17.033   8.750  16.642 -0.0920  0.2386  0.0150
12558W        W28367   5.519   4.873   1.721  0.1994  0.1228  0.4124
12559W        W28368  13.770  11.787  11.953  0.3739  0.0157  0.2700
12560W        W28369   9.815   6.853   2.699  0.0936  0.0868 -0.2541
12561W        W28370  10.803   6.286  16.274 -0.1335  0.1412  0.1297
12562W        W28371  17.090   7.170   0.211 -0.1033 -0.1362 -0.0092
12563W        W28372   3.799   9.640   4.775 -0.0996 -0.2387  0.0298
12564W        W28373  15.726   3.979   5.986  0.0454  0.0601  0.0655
12565W        W28374   2.445  10.242   3.754 -0.2256 -0.2231 -0.0711
12566W        W28375   3.177  15.021  11.562  0.1031 -0.1408 -0.1370
12567W        W28376  15.975   6.087  13.949  0.2068  0.3714  0.0952
12568W        W28377   1.697  13.952  16.070  0.0752 -0.2570  0.1743
12569W        W28378   0.891   3.053  12.491 -0.0828 -0.0229 -0.0902
12570W        W28379  17.638   3.520  13.130 -0.0085  0.1445  0.0954
12571W        W28380   7.145   4.045  13.306  0.2355  0.0805 -0.0471
12572W        W28381  11.141  16.110   2.185  0.2065  0.0329 -0.4734
12573W        W28382   1.512   2.277  13.526 -0.3875 -0.3047  0.0389
12574W        W28383  11.906   8.595   4.042 -0.2839  0.2834 -0.0842
12575W        W28384   2.474   0.980   5.152  0.1556 -0.1405  0.0370
12576W        W28385   4.810   3.385   6.328  0.0603  0.0555  0.1846
12577W        W28386  10.067  10.489  13.204  0.0066  0.0763  0.1858
12578W        W28387  13.115  11.102   2.979  0.2621  0.0167 -0.2423
12579W        W28388   7.531   0.192   1.900  0.0260 -0.0407 -0.2050
12580W        W28389   4.437   0.150  11.886  0.1372  0.1521 -0.1808
12581W        W28390   1.271  13.914   4.271 -0.1427  0.0965  0.0126
12582W        W28391  14.555  15.713  15.984 -0.1088  0.0401  0.0455
12583W        W28392   3.300  10.921   1.611  0.2324 -0.1114  0.0433
12584W        W28393   3.428  13.585  15.886 -0.0245  0.1440  0.1863
12585W        W28394   6.140   8.331   0.579  0.0564 -0.3128 -0.3671
12586W        W28395  11.454   8.052  13.601  0.1068  0.1582  0.0636
12587W        W28396  17.425   1.929  13.052 -0.0032 -0.0658 -0.4007
12588W        W28397   9.803  11.496  15.559  0.2513 -0.0210 -0.0749
12589W        W28398  13.277  11.507  11.759 -0.0320  0.3349  0.1197
12590W        W28399  17.585  13.340   4.472 -0.1106 -0.0300  0.0450
12591W        W28400  11.710   2.780  14.116  0.0945  0.1036  0.1935
12592W        W28401   9.715  12.128   1.039 -0.2996 -0.0332  0.3911
12593W        W28402   2.313  10.895  13.696 -0.2380  0.2451  0.1709
12594W        W28403   8.124   9.959   1.841  0.1306  0.0692 -0.1865
12595W        W28404   5.526   0.254   5.967  0.1171  0.0373  0.0712
12596W        W28405   2.830  14.063   5.787  0.0578  0.0158  0.0506
12597W        W28406   0.646  12.723   4.839  0.1544 -0.1305  0.2048
12598W        W28407  15.055   3.871   4.825 -0.0514 -0.0138  0.1718
12599W        W28408  17.724  10.915  16.927 -0.2394 -0.3297 -0.1654
12600W        W28409   7.861  10.042  16.777  0.1847 -0.0365 -0.4194
12601W        W28410  10.253   8.450   1.135 -0.1409  0.0514 -0.3489
12602W        W28411  16.266   9.490   1.026  0.0743  0.0990 -0.0733
12603W        W28412  14.125  16.620  11.622  0.0237 -0.1288 -0.1930
12604W        W28413   4.167   6.209   3.687 -0.1119  0.0781 -0.0020
12605W        W28414  16.727  10.723  11.922 -0.0601  0.2368 -0.3658
12606W        W28415  11.967  11.851  10.654  0.3064 -0.0420 -0.1637
12607W        W28416   6.797  14.760  11.201  0.1791 -0.1080  0.1924
12608W        W28417   8.672   5.921  15.049 -0.0111 -0.0738  0.1709
12609W        W28418   7.775  12.951  16.588 -0.1226  0.0748  0.0093
12610W        W28419   0.320   3.289   3.379  0.1714 -0.2899 -0.2871
12611W        W28420   9.329   9.329  12.972  0.0245  0.2157 -0.1522
12612W        W28421   2.339  14.759  12.853 -0.1729 -0.0450 -0.0800
12613W        W28422   2.582  10.687   5.870 -0.3010 -0.1526 -0.3122
12614W        W28423   4.686   5.266  12.962 -0.0654 -0.1157 -0.0351
12615W        W28424   9.305   8.795  15.597  0.1981  0.2450 -0.1710
12616W        W28425  10.964   9.519  15.066 -0.4204  0.2068 -0.2279
12617W        W28426  14.997  13.445  16.024 -0.1117 -0.0898  0.2136
12618W        W28427   9.804  17.424   4.530 -0.1793 -0.1800  0.3342
12619W        W28428   4.791   1.031   1.825 -0.1364 -0.0190 -0.0932
12620W        W28429   9.338   5.439  12.415  0.3320 -0.0634  0.3115
12621W        W28430   5.391  13.173  14.198 -0.0907 -0.1087 -0.0439
12622W        W28431  12.526  13.003  16.215  0.0854  0.0087  0.0613
12623W        W28432   4.507  14.968  11.733  0.3884  0.0006  0.1368
12624W        W28433  15.778   1.455  12.799 -0.2481  0.2405  0.0421
12625W        W28434   6.828   0.518  14.102  0.1856 -0.2712  0.2245
12626W        W28435   2.265   3.615   3.098 -0.0769 -0.0334  0.0039
12627W        W28436   6.062   2.601  15.740 -0.0465 -0.0756 -0.0221
12628W        W28437   8.611   5.409   3.117  0.0027  0.1636  0.0560
12629W        W28438   6.306   7.535   1.295 -0.1281  0.2247  0.1490
12630W        W28439  14.538  11.976   3.825  0.2426 -0.0457 -0.0176
12631W        W28440   0.290  17.574   2.104  0.0942  0.0161  0.2933
12632W        W28441  16.954  15.870  15.659 -0.2222 -0.3028 -0.0014
12633W        W28442   4.175  12.924  11.923 -0.3504 -0.0742  0.0489
12634W        W28443   0.967   4.715  13.080 -0.0381 -0.1080  0.0970
12635W        W28444  17.369   1.505   4.784  0.0588 -0.1875 -0.1254
12636W        W28445  11.443   7.821   1.424  0.1553 -0.0868  0.1152
12637W        W28446   2.473   3.074   5.775 -0.0598 -0.1938  0.0929
12638W        W28447  13.353  11.416  15.047  0.0250  0.1205 -0.1410
12639W        W28448   9.466   3.849  13.837  0.2315 -0.1030  0.2331
12640W        W28449  17.029  12.380  12.239 -0.3543  0.2042  0.0022
12641W        W28450  12.474   8.496  12.580 -0.1539  0.1511 -0.0105
12642W        W28451  12.010   6.225   5.812  0.1129 -0.1707  0.1894
12643W        W28452   1.226  10.019   6.430 -0.3322  0.2020 -0.0064
12644W        W28453   8.004  12.895   0.837 -0.0988 -0.2086 -0.1881
12645W        W28454   1.230  15.084  16.620  0.2792  0.1984  0.0593
12646W        W28455  16.357   5.117   1.318  0.0231 -0.2151 -0.0812
12647W        W28456   0.153  11.259   2.990  0.2272  0.1089  0.1902
12648W        W28457   1.441  14.373   4.386  0.2654  0.2334 -0.2860
12649W        W28458   2.610   5.405  11.399  0.1160  0.3263 -0.0543
12650W        W28459  12.867  12.168  13.019 -0.0180  0.2549  0.1173
12651W        W28460  17.142  11.558   2.737  0.1754  0.0182  0.0740
12652W        W28461   4.146   9.787   0.468  0.0746 -0.0587  0.0586
12653W        W28462  12.299  13.264  11.503 -0.2174 -0.3147 -0.0377
12654W        W28463   4.969   0.967   1.300  0.0861  0.3561 -0.0458
12655W        W28464   0.154   6.985  15.760  0.0617  0.2563 -0.2116
12656W        W28465   6.910   6.268   0.935  0.3270  0.0062  0.1496
12657W        W28466   0.381  14.220   4.596  0.0053  0.0570  0.0645
12658W        W28467  13.405   6.869  13.429 -0.0883 -0.1433 -0.4163
12659W        W28468  13.851   1.967  16.102  0.4653 -0.0774 -0.0371
12660W        W28469  16.038   3.113  15.992  0.1469 -0.2981  0.2381
12661W        W28470   5.616   0.022  14.184 -0.1127 -0.3149  0.5131
12662W        W28471  16.931   7.922  14.480  0.2230 -0.1978 -0.3073
12663W        W28472   5.414   6.538   2.683  0.1661  0.0350 -0.1550
12664W        W28473   9.357  14.614   0.158 -0.0461 -0.2704 -0.2008
12665W        W28474  12.423  13.363  15.396 -0.0328  0.1288  0.2370
12666W        W28475   5.211  10.581   0.252 -0.0256 -0.1565  0.0331
12667W        W28476  15.226  14.951  13.694 -0.0051  0.2657 -0.1717
12668W        W28477   5.832  15.579  16.131  0.2807  0.1081 -0.1618
12669W        W28478   4.818   2.719  13.693 -0.2416 -0.1531  0.1416
12670W        W28479   8.824  10.311   0.858 -0.0272 -0.0101 -0.0274
12671W        W28480   4.199   7.505   1.753  0.0758 -0.1608 -0.0987
12672W        W28481   4.231   9.299   0.351  0.1222  0.1664 -0.1037
12673W        W28482  10.459  16.532   4.929 -0.2011  0.4230  0.0549
12674W        W28483  13.574  15.407   0.997  0.1004 -0.3473  0.0436
12675W        W28484   3.797   9.170  12.385  0.0690  0.1206  0.0196
12676W        W28485  11.941   3.485   3.990  0.3750  0.2104 -0.1424
12677W        W28486   2.637  15.988   0.427 -0.1204  0.0600 -0.1541
12678W        W28487  16.751  10.994  16.624 -0.0630 -0.0358  0.0046
12679W        W28488  10.999   1.098   3.734 -0.0187  0.2648 -0.4443
12680W        W28489   5.221   0.204   2.068  0.0649  0.0913 -0.1804
12681W        W28490   5.088  10.721   3.703  0.0809  0.0208  0.1070
12682W        W28491  14.900  12.294  13.447 -0.0929 -0.0999 -0.0260
12683W        W28492   3.665   9.115   5.703 -0.0181  0.0417  0.1730
12684W        W28493   2.598   1.492   5.476  0.1723  0.3555  0.1734
12685W        W28494  13.667   7.052   5.838  0.2241 -0.0162 -0.1133
12686W        W28495  12.575   1.744  12.684  0.1607  0.0431  0.0336
12687W        W28496   0.681   3.748  15.444 -0.0191  0.1351 -0.1228
12688W        W28497  11.954   0.713   0.276  0.4645  0.0666  0.1827
12689W        W28498  11.994  16.430   0.306 -0.0089 -0.2661 -0.3843
12690W        W28499  13.080   6.639  16.137  0.2975 -0.0104 -0.1417
12691W        W28500  11.954   8.026  16.091 -0.1434 -0.0186  0.0142
12692W        W28501   7.347  11.706   2.584  0.0291 -0.1826  0.0493
12693W        W28502  14.096   8.060   1.229  0.0496  0.0375  0.2805
12694W        W28503   4.593  16.405  16.997  0.2239  0.1787 -0.0665
12695W        W28504  14.864  17.425  15.318  0.0678 -0.0768 -0.0079
12696W        W28505   3.325  16.896  11.634  0.0893 -0.1592 -0.0470
12697W        W28506  12.867   8.270  12.199  0.1470 -0.4510  0.1623
12698W        W28507  15.247   7.979   5.489  0.0671 -0.1244 -0.1187
12699W        W28508   0.853   8.597   0.497  0.1621 -0.3114 -0.0265
12700W        W28509  16.946   9.255  13.087 -0.0309 -0.1189  0.0492
12701W        W28510   0.853   2.023  15.894  0.2205  0.1445  0.0795
12702W        W28511   3.032   8.024  12.277  0.2143  0.0370  0.0663
12703W        W28512  16.111  13.368  14.943  0.0634 -0.1448 -0.0998
12704W        W28513   0.562   0.842  14.145 -0.0647  0.2327  0.2477
12705W        W28514  10.209   0.720  12.181  0.1930  0.1766 -0.3657
12706W        W28515   0.257  14.558   5.700 -0.1472  0.2042  0.0098
12707W        W28516   5.242  14.073   1.742  0.3208 -0.0832  0.2015
12708W        W28517   7.869   9.375   4.385  0.1454  0.2101 -0.1937
12709W        W28518   4.295  11.268   4.383  0.0268 -0.2176  0.3238
12710W        W28519  11.753   6.567   5.467 -0.1546  0.1272  0.0238
12711W        W28520   1.312   7.242  15.671 -0.0485 -0.1339  0.2156
12712W        W28521  17.265  11.250   4.267  0.1175  0.0191 -0.0204
12713W        W28522   2.604  12.046   0.662 -0.3921 -0.2080 -0.1198
12714W        W28523  10.858  16.862   4.377 -0.0867  0.1769  0.0315
12715W        W28524   8.180   6.024  12.363  0.0672 -0.2284 -0.1081
12716W        W28525  12.626  17.604  13.700 -0.0013 -0.2476 -0.1117
12717W        W28526  16.244   3.011  15.473  0.1063  0.0232 -0.4464
12718W        W28527   2.591  14.484  15.430 -0.0515 -0.3569  0.4626
12719W        W28528  14.211   2.112  15.701  0.1699 -0.1583  0.1004
12720W        W28529   4.732  14.639   2.040  0.2331 -0.1136 -0.3642
12721W        W28530   6.309   3.855  13.066  0.0122  0.0611  0.0463
12722W        W28531  16.056   1.204   1.393 -0.0461 -0.0721  0.0470
12723W        W28532  16.616  10.444   2.407  0.0470  0.2343  0.4832
12724W        W28533  13.621   0.998  16.179 -0.1963 -0.0399 -0.0891
12725W        W28534  13.185   9.193  16.755  0.0440  0.2483  0.1029
12726W        W28535  14.981   9.446   3.765  0.1546  0.1769  0.1276
12727W        W28536   0.213   9.062  13.431 -0.2587  0.1918 -0.1453
12728W        W28537   2.858   0.048   2.174 -0.3532 -0.0285 -0.3161
12729W        W28538  14.183  12.222   0.106 -0.0731 -0.0960  0.0812
12730W        W28539   7.730   4.120   0.408 -0.0174 -0.0673  0.1090
12731W        W28540  10.691   4.149   3.174  0.0086  0.0400 -0.0851
12732W        W28541   9.381  13.810   2.701  0.1830 -0.0419 -0.0892
12733W        W28542   8.538  13.345  11.409 -0.3623  0.1457  0.1717
12734W        W28543   9.227   3.786   6.665  0.2683 -0.1851  0.0299
12735W        W28544   9.375  15.664   1.017 -0.3740 -0.1302  0.0208
12736W        W28545   0.577   5.163   5.199 -0.3805  0.0149  0.0552
12737W        W28546   0.259  15.071  11.610 -0.1160 -0.0255  0.2970
12738W        W28547   8.612  17.300   1.409 -0.1433  0.3629 -0.0526
12739W        W28548   4.337   4.363  12.431  0.0417 -0.2143 -0.1057
12740W        W28549   1.139  15.147   0.183  0.1862 -0.1807  0.4182
12741W        W28550   6.531   3.980   5.551 -0.0788 -0.1498  0.4355
12742W        W28551   4.171   8.805  14.034 -0.0319  0.2314 -0.0526
12743W        W28552  12.650  10.659   1.668  0.0294 -0.0644 -0.0757
12744W        W28553   8.220   0.513  15.847 -0.0758 -0.0447 -0.2184
12745W        W28554  16.041  11.248  15.357 -0.3831 -0.1514  0.0151
12746W        W28555  12.119   2.434  16.236  0.3429  0.1465  0.0229
12747W        W28556  15.156  14.086  12.917 -0.1767  0.0932  0.2781
12748W        W28557  11.155  12.108  11.475 -0.2242  0.0794  0.0294
12749W        W28558  11.276   9.426   2.082 -0.0079  0.2402  0.4602
12750W        W28559  16.930   5.212  14.386 -0.3442  0.3640  0.2010
12751W        W28560  10.683   4.282  14.838 -0.1542 -0.3430 -0.1164
12752W        W28561   2.647  15.799   4.330 -0.0949 -0.0221 -0.0596
12753W        W28562   7.987   8.740   0.929 -0.0303  0.0696 -0.0811
12754W        W28563  16.122   1.338   0.884 -0.1492  0.1207  0.0732
12755W        W28564  14.353   4.744  13.746  0.2318  0.0576  0.3120
12756W        W28565   6.797  12.841   2.449 -0.0258 -0.3650 -0.0218
12757W        W28566  14.942   6.975   1.391  0.2208 -0.4167  0.0034
12758W        W28567  12.625  11.722   3.999  0.2746 -0.1773 -0.3387
12759W        W28568  13.538  13.584  14.951 -0.0228  0.0617 -0.2105
12760W        W28569  11.500  12.203  15.653 -0.1219 -0.1224 -0.2107
12761W        W28570   5.070  10.671   2.013 -0.3577  0.3539 -0.0796
12762W        W28571   4.075  12.392   1.735 -0.1717  0.0998  0.0598
12763W        W28572   1.383   1.217   3.520 -0.1047  0.0219 -0.1202
12764W        W28573  10.356  16.531   3.058  0.0655  0.2045 -0.1797
12765W        W28574  11.424  12.625   2.392 -0.0833  0.1895 -0.1817
12766W        W28575  10.542   9.564   4.643  0.0888  0.1540  0.0098
12767W        W28576  16.691  13.391   1.182 -0.0597 -0.0579 -0.1061
12768W        W28577  14.076   4.329   1.258  0.3068  0.0360 -0.0629
12769W        W28578   0.454   6.133   2.727 -0.0287  0.2175 -0.1463
12770W        W28579   3.901  15.208   3.832 -0.0011  0.3774 -0.1444
12771W        W28580  11.524   0.508  11.337 -0.1813 -0.1707  0.0155
12772W        W28581   8.723  12.019  16.698 -0.3654  0.0806 -0.1607
12773W        W28582  16.437   4.985   5.345  0.0262  0.1903 -0.0136
12774W        W28583   8.261   5.338  12.577 -0.1546 -0.0888  0.0870
12775W        W28584   3.248  10.049  10.754 -0.0848  0.2402  0.0131
12776W        W28585   4.670   0.878  16.507 -0.0644  0.2870 -0.1249
12777W        W28586  12.334   8.873  16.177  0.0833  0.1665  0.0787
12778W        W28587  16.319  17.502   0.647  0.0477 -0.0111 -0.0965
12779W        W28588  14.381  16.857   0.387  0.1662 -0.0210  0.0874
12780W        W28589   3.018   6.965   1.142 -0.1171  0.2821  0.0247
12781W        W28590   7.229  13.990   3.740 -0.1268 -0.2335  0.3306
12782W        W28591  12.421   4.103  12.776 -0.4696 -0.0810 -0.0264
12783W        W28592  15.409   9.627   4.891 -0.2116 -0.1016  0.1694
12784W        W28593  16.666   6.896  13.719  0.0646  0.1865  0.0160
12785W        W28594   2.201  17.143   0.846  0.0288 -0.1992 -0.0798
12786W        W28595   9.975  16.737  11.013 -0.1515 -0.0979  0.1409
12787W        W28596  14.109   7.417  15.815 -0.5190 -0.1110 -0.0896
12788W        W28597  12.993  14.225   5.084  0.0050 -0.3135  0.0907
12789W        W28598   7.030  13.428  13.850 -0.0356  0.4332  0.0205
12790W        W28599  10.737   5.711   6.742  0.0803  0.0659 -0.1651
12791W        W28600  17.591   4.600   1.267 -0.1268 -0.2284 -0.1398
12792W        W28601   2.089  15.299  16.621  0.0596 -0.1103 -0.4131
12793W        W28602  14.214  16.502  13.268 -0.1694 -0.1955  0.3406
12794W        W28603   3.482  15.279   5.623  0.0725  0.1311 -0.1280
12795W        W28604   0.814  10.753  12.076 -0.0536  0.2798  0.1411
12796W        W28605  12.409   5.511  16.898  0.2130 -0.0242 -0.0524
12797W        W28606  17.603  12.483  12.189  0.2128  0.2577 -0.1574
12798W        W28607   7.935  16.549  13.338  0.0419 -0.1126  0.1861
12799W        W28608  11.776   5.255   4.088  0.0818  0.2085  0.0283
12800W        W28609   3.222  16.224   3.868  0.2987 -0.2086  0.1561
12801W        W28610   5.984   3.593   4.785  0.0072 -0.0965  0.1882
12802W        W28611   8.167  12.661   2.435  0.0341  0.0430  0.4155
12803W        W28612  13.124   2.645   4.957 -0.2367 -0.2426  0.2109
12804W        W28613  17.188   3.362   4.590  0.0676  0.0001 -0.4005
12805W        W28614   8.973   4.233   0.845  0.3733  0.0113 -0.0079
12806W        W28615   7.988   8.784   4.432 -0.0271 -0.1907 -0.1913
12807W        W28616  11.745  14.836   1.832  0.3500  0.0049  0.3163
12808W        W28617   5.746   4.326   2.555  0.1779 -0.0674 -0.0619
12809W        W28618  11.245   8.946  15.476 -0.2531  0.2015  0.1630
12810W        W28619   8.114   0.676  12.133  0.1166  0.0734 -0.1415
12811W        W28620  16.374   7.761  13.822 -0.0811 -0.1121  0.0283
12812W        W28621  15.714  11.224   3.630  0.1784  0.0528 -0.3412
12813W        W28622  14.538   2.779   4.466  0.1320  0.1006 -0.0128
12814W        W28623   7.230   4.119   1.526 -0.0357  0.2525  0.1758
12815W        W28624  11.261   2.313   2.618  0.0979  0.1385  0.1145
12816W        W28625  17.640   6.254   1.357  0.1541 -0.2607 -0.2213
12817W        W28626  10.133   0.611   2.556  0.0443  0.0975  0.1382
12818W        W28627   9.144   0.579   2.304 -0.0712  0.0512 -0.0691
12819W        W28628  11.441  10.272   3.281  0.0831  0.0106 -0.1319
12820W        W28629  10.270  15.630   4.430  0.2751 -0.0036  0.2316
12821W        W28630   2.074   1.243   6.598  0.0947 -0.0932  0.3228
12822W        W28631   2.662  16.678  15.546 -0.3158 -0.1470  0.2310
12823W        W28632   7.769   5.088   3.408  0.2336 -0.0901 -0.0636
12824W        W28633   5.331  15.719  14.731 -0.1071 -0.0675  0.1241
12825W        W28634  13.436  11.158  16.058  0.0456  0.3119 -0.1696
12826W        W28635   1.821   0.531   5.485  0.1610 -0.0099  0.0047
12827W        W28636  15.149  15.782  11.450 -0.1566  0.0375 -0.0532
12828W        W28637  13.698  14.013   4.154  0.0978 -0.0717  0.1172
12829W        W28638   4.411   0.368   0.361  0.1469  0.0059 -0.0783
12830W        W28639   3.827  13.396   0.184  0.1325 -0.2623  0.1112
12831W        W28640   1.542   8.128  12.592 -0.0661 -0.0384  0.0978
12832W        W28641   2.598   1.780  16.528 -0.1556 -0.0242 -0.1853
12833W        W28642  16.455   3.062  16.326  0.2030  0.0444 -0.1774
12834W        W28643   5.914   0.876   0.178  0.0008 -0.0018 -0.0605
12835W        W28644   8.930  15.079  14.648 -0.0693  0.5897 -0.0253
12836W        W28645   8.178  17.513   1.454  0.0757  0.3192 -0.1924
12837W        W28646  17.149   1.890   5.067  0.2342  0.1027  0.2575
12838W        W28647   6.799   2.788  13.217  0.0695 -0.0982  0.1936
12839W        W28648  15.336  13.477   5.353  0.2050 -0.1172 -0.0795
12840W        W28649  12.628   6.749   3.800  0.2847  0.1148 -0.4897
12841W        W28650  15.647  14.700  15.778 -0.3170  0.0784 -0.0092
12842W        W28651  10.034   0.945   3.906 -0.2101 -0.4514  0.1366
12843W        W28652  14.763  16.900   3.955 -0.0795 -0.2755  0.2038
12844W        W28653   3.380   1.949   0.755  0.0274  0.3508 -0.1175
12845W        W28654   0.515  17.338   5.102 -0.1236 -0.2775  0.4821
12846W        W28655   9.242  10.747  11.667  0.0307  0.1801 -0.2299
12847W        W28656   0.779   8.648   2.798  0.0910  0.0355  0.0806
12848W        W28657  12.467   7.577   6.529  0.0695  0.2420 -0.0843
12849W        W28658  16.313   5.491   3.509  0.0929 -0.1525  0.1282
12850W        W28659  12.168   3.638   1.515 -0.0887 -0.2412 -0.2086
12851W        W28660  16.076   7.353  14.206  0.0866  0.0483 -0.1938
12852W        W28661  11.810  10.210   5.025 -0.1954  0.0404  0.1175
12853W        W28662  12.654  14.493   2.277  0.3812  0.1754  0.2177
12854W        W28663   9.790   1.054  15.705  0.4018  0.2094  0.0369
12855W        W28664  15.241   3.489  13.044  0.3002  0.0303  0.0487
12856W        W28665  11.083  13.229   4.684  0.1727 -0.0328  0.4365
12857W        W28666   4.105  12.919   5.062 -0.2177  0.0673  0.1260
12858W        W28667  11.340  10.053   4.178  0.1623  0.0316 -0.0711
12859W        W28668   8.027   4.440   5.645 -0.1434  0.2258 -0.0719
12860W        W28669   2.494   3.369   1.013  0.0309 -0.0066  0.0105
12861W        W28670  11.749   4.482   2.352 -0.0852 -0.0594  0.1769
12862W        W28671  12.115  17.079   3.873 -0.0461 -0.1515  0.0628
12863W        W28672   4.562   9.259   4.380  0.2289 -0.2034 -0.1584
12864W        W28673  14.022  17.483  11.667 -0.2887  0.4085  0.0780
12865W        W28674  16.846   7.786   1.422 -0.0819 -0.2848 -0.0429
12866W        W28675   8.172  14.464   2.712  0.3485 -0.1303 -0.0671
12867W        W28676  17.361   7.738   0.184 -0.0551 -0.2070 -0.1065
12868W        W28677   0.811  15.581   3.270  0.3882  0.0357 -0.0779
12869W        W28678   3.125  14.507  11.477 -0.0572  0.0182 -0.1330
12870W        W28679  16.529  15.112  16.674  0.0244 -0.0182  0.1536
12871W        W28680  14.105   4.943  15.585  0.1783 -0.2896 -0.2617
12872W        W28681   1.544   9.196   2.196 -0.0662 -0.1385 -0.0740
12873W        W28682  15.296   5.595   4.472 -0.1587  0.2395 -0.0463
12874W        W28683  13.356  14.862   0.994 -0.3717 -0.1141 -0.1792
12875W        W28684  11.360   1.146   1.012  0.2834  0.1211 -0.2516
12876W        W28685  12.439  16.618   0.563  0.0685  0.1543  0.0779
12877W        W28686   3.420  11.070   4.293 -0.0823 -0.2611 -0.1227
12878W        W28687   2.096   5.772  12.815  0.0965 -0.1695 -0.1645
12879W        W28688  13.784   3.516  12.681 -0.2343  0.3254  0.1816
12880W        W28689   3.257   7.356  12.634  0.0506 -0.0345  0.2966
12881W        W28690   1.345  14.156   2.713 -0.2114 -0.0302  0.1383
12882W        W28691  13.200   7.267   0.987  0.1502  0.3384  0.0027
12883W        W28692  13.888  13.320  11.542 -0.1395  0.2321  0.2709
12884W        W28693  17.005   7.578   3.454  0.2904  0.0096  0.1315
12885W        W28694  17.711  16.272   5.685  0.1771  0.1008 -0.2729
12886W        W28695   0.837   4.276   6.856  0.2041 -0.2087 -0.1579
12887W        W28696  12.396  13.944   2.699 -0.2319 -0.3668 -0.1239
12888W        W28697  15.901   0.678   1.374  0.1773  0.3855  0.1259
12889W        W28698   0.271   5.833  15.796 -0.1016 -0.2314  0.1323
12890W        W28699   1.689   0.943   2.566  0.0657 -0.1313 -0.0438
12891W        W28700  11.726  14.514   5.093  0.2989 -0.0451 -0.0236
12892W        W28701   8.611  10.290   0.129 -0.2333  0.3473  0.0862
12893W        W28702  10.250  14.098  16.517  0.0694 -0.2425  0.1681
12894W        W28703  10.267   2.002  13.354 -0.0045  0.0655  0.0916
12895W        W28704  17.434   1.674   3.806 -0.1557  0.0829  0.1015
12896W        W28705   1.452   4.265  16.463  0.2698  0.1356 -0.2081
12897W        W28706   6.123   8.475  15.731  0.1803  0.1135  0.0397
12898W        W28707   1.549   3.759  12.418  0.0567 -0.1958  0.0216
12899W        W28708   5.588  11.906   0.618  0.1124  0.0903 -0.2577
12900W        W28709   6.599  10.399  13.293 -0.1152 -0.4138 -0.2511
12901W        W28710  15.392   9.413   2.582 -0.0094  0.0188  0.3915
12902W        W28711   3.002   4.440  13.028 -0.0123  0.0958  0.0003
12903W        W28712   0.820  15.523   2.758 -0.2021 -0.2703  0.0498
12904W        W28713   9.047  16.229   2.180  0.1355  0.0603 -0.0379
12905W        W28714   4.325   4.687  15.197  0.0266 -0.0925 -0.0577
12906W        W28715   4.584   3.826  12.593 -0.1681  0.1875 -0.0013
12907W        W28716   1.854   2.240   2.628  0.0777 -0.1710 -0.2510
12908W        W28717  17.635  15.624   1.631  0.1371  0.1767 -0.1938
12909W        W28718  13.818   8.532  11.799 -0.0595  0.1737 -0.1343
12910W        W28719   7.792   2.108  16.663  0.0216  0.1238 -0.1746
12911W        W28720   8.054   0.555   2.203 -0.2886 -0.0809  0.3026
12912W        W28721  11.959  16.614  15.376 -0.1979 -0.0426  0.3468
12913W        W28722  13.934  14.992  11.090  0.0016  0.1062 -0.4068
12914W        W28723   8.884  10.776   4.555  0.0565 -0.2042  0.0598
12915W        W28724   6.615  12.479  15.143 -0.1817 -0.1644 -0.1531
12916W        W28725  11.953   7.962   0.707  0.2160 -0.2103  0.1697
12917W        W28726  10.424   0.985   1.865  0.1035 -0.3168 -0.1424
12918W        W28727   3.665   0.709   0.759  0.2139  0.0051 -0.2102
12919W        W28728   7.182  11.832  16.189 -0.4277  0.0853 -0.2165
12920W        W28729  13.826   4.391  12.408 -0.0715 -0.1928 -0.1424
12921W        W28730   8.443   4.892   2.838 -0.1188 -0.0313  0.1455
12922W        W28731  17.236   4.882  14.056 -0.1771 -0.0176 -0.3185
12923W        W28732  11.842   0.571   3.447 -0.2520  0.0675 -0.0434
12924W        W28733   8.339  11.331  14.875 -0.0147 -0.1810  0.0313
12925W        W28734  17.675  15.617   2.715  0.1830  0.1115  0.1456
12926W        W28735  14.710   3.475   4.943  0.0508  0.0258 -0.0469
12927W        W28736   9.788  10.228  15.300 -0.1762 -0.0189 -0.0431
12928W        W28737   8.208   4.007  13.261 -0.1920 -0.0347 -0.1712
12929W        W28738   4.668  16.485   1.254 -0.1053  0.0087  0.1047
12930W        W28739   1.682   5.077   5.538 -0.0459 -0.0183  0.0148
12931W        W28740   6.599  13.802  12.135 -0.0856  0.2185  0.1200
12932W        W28741  11.376   3.631   4.943 -0.0608  0.1496 -0.5949
12933W        W28742   7.873   5.387   4.485 -0.0785 -0.1162  0.1156
12934W        W28743   3.121   0.106   4.775  0.0983  0.2076  0.2220
12935W        W28744   9.849   7.252  11.637  0.1335 -0.2468 -0.0858
12936W        W28745   9.727   2.697  13.444  0.1449  0.0614 -0.0281
12937W        W28746   8.502   4.281  16.289  0.0704 -0.1044 -0.4008
12938W        W28747   3.489  14.933  12.768  0.1802 -0.1123 -0.2917
12939W        W28748  12.054   2.983  15.431 -0.0045 -0.2680 -0.0263
12940W        W28749  12.775  13.025   5.102  0.0304  0.0531 -0.0207
12941W        W28750  15.623   0.366   3.105 -0.3152  0.1148  0.0775
12942W        W28751  17.041  13.376  15.807  0.1551 -0.0383  0.2883
12943W        W28752   6.449  11.547   5.244  0.1883  0.0288  0.0359
12944W        W28753   9.161   7.380  16.616  0.1932  0.2441 -0.2329
12945W        W28754   3.662   4.110  11.185 -0.0523 -0.1931  0.1235
12946W        W28755   8.243  14.577   4.728 -0.3253 -0.0044 -0.1300
12947W        W28756   9.007   8.675   0.609  0.1621 -0.0266 -0.2789
12948W        W28757   0.760   5.731   2.258 -0.2545  0.0116  0.2640
12949W        W28758   2.809  12.399  15.265 -0.0261 -0.0979 -0.2063
12950W        W28759  11.540  10.687  14.261 -0.2804  0.0645  0.0874
12951W        W28760   7.255  15.356  16.100 -0.0326  0.1563 -0.0977
12952W        W28761  11.942  15.205   0.881 -0.1353  0.0932 -0.0108
12953W        W28762  10.247  12.707  15.228 -0.1145  0.1767  0.0487
12954W        W28763   6.799   8.740  12.672 -0.2137  0.1292 -0.3687
12955W        W28764  14.137   0.653   5.699  0.1634 -0.0142 -0.0727
12956W        W28765   8.534   7.385  14.887  0.1168 -0.0547 -0.1395
12957W        W28766   6.297   7.003   0.355 -0.1511  0.1625 -0.1625
12958W        W28767   6.849  11.447   5.546  0.0971  0.1366 -0.3854
12959W        W28768   0.285   2.843  16.622 -0.1149  0.0662 -0.1259
12960W        W28769   0.011  12.662   5.580  0.2594  0.1848 -0.0428
12961W        W28770   4.175   1.199   5.860 -0.2362 -0.1248  0.0698
12962W        W28771  14.595  12.229   0.520 -0.0696  0.1290  0.3109
12963W        W28772   4.280   0.165   5.876 -0.1425  0.2413 -0.1931
12964W        W28773   7.298   6.242  16.210 -0.0518  0.0619  0.1038
12965W        W28774   7.145   8.870  16.780  0.1119 -0.1496  0.0763
12966W        W28775   4.571  15.269  16.306 -0.0649 -0.0695 -0.0478
12967W        W28776   7.779   1.432   0.996 -0.1779  0.0448 -0.1169
12968W        W28777   2.012   0.015   2.208 -0.0307 -0.1678 -0.0435
12969W        W28778  11.943   3.172  14.884  0.1376 -0.2023 -0.1390
12970W        W28779  16.748  15.929   4.099  0.0071 -0.1587  0.1089
12971W        W28780   5.414  16.745   1.751  0.3137 -0.0995 -0.1459
12972W        W28781  15.751   1.335  14.449 -0.4226  0.1717  0.0870
12973W        W28782  14.710   2.767   3.909  0.2190 -0.4084  0.1839
12974W        W28783   1.643  17.486  12.065 -0.2644 -0.1254 -0.0064
12975W        W28784  15.933   3.957   5.165 -0.4634  0.0224 -0.0205
12976W        W28785   7.090  14.058  11.992 -0.1439 -0.2177 -0.1689
12977W        W28786   5.147  13.319   3.749 -0.4604  0.0674  0.0442
12978W        W28787  12.131  17.714  13.738 -0.0188  0.0388 -0.0092
12979W        W28788   0.101   8.546   2.116  0.1519  0.0253  0.1103
12980W        W28789   2.473  12.107  14.966 -0.2783  0.0746  0.3462
12981W        W28790  14.916   5.647   6.295  0.1693  0.0435  0.1697
12982W        W28791  14.269  17.503  15.406 -0.0064 -0.0892  0.1878
12983W        W28792   7.460   1.336  12.229 -0.2455 -0.2277 -0.0749
12984W        W28793  15.823   7.353   3.472  0.1876  0.0569  0.0594
12985W        W28794   6.531   0.422  15.664  0.1144  0.3648  0.0474
12986W        W28795   3.667  14.955  13.214  0.0696 -0.0967 -0.0202
12987W        W28796   5.690  14.470  15.760  0.0082  0.0689  0.0692
12988W        W28797  15.016   7.255  15.443  0.1377 -0.0971 -0.0514
12989W        W28798  15.114  11.856   4.767 -0.0091 -0.3689 -0.4368
12990W        W28799   4.873   7.767   3.126 -0.0834 -0.3423 -0.0821
12991W        W28800   6.581  11.602  13.766  0.0821  0.0375 -0.0758
12992W        W28801   2.878   5.444   1.142  0.2017  0.2167 -0.0705
12993W        W28802   5.883  13.272  15.010  0.0086  0.1367  0.0158
12994W        W28803   1.547   8.654   3.581 -0.1940  0.0503  0.0582
12995W        W28804   4.716   8.681  15.535  0.1708  0.1590  0.0651
12996W        W28805  11.205  14.608  14.263 -0.3319 -0.3697 -0.0463
12997W        W28806   1.810   9.306   4.262 -0.0546 -0.0708 -0.2693
12998W        W28807   6.024  10.612  16.501  0.5095  0.2316  0.0440
12999W        W28808  16.540   0.353  14.013  0.1713  0.0189 -0.1488
13000W        W28809   5.180  11.062   0.320  0.0257  0.2658 -0.0513
13001W        W28810   9.949   0.013  12.890 -0.0589  0.0058  0.0920
13002W        W28811   8.761  15.942  14.423 -0.0402  0.0069 -0.0187
13003W        W28812  11.596   0.350   4.704 -0.1025  0.1954  0.0870
13004W        W28813   5.917   3.260  16.395 -0.0805  0.1591  0.0530
13005W        W28814  13.921  16.222  13.535  0.0401  0.1460  0.3600
13006W        W28815  13.125  14.281   2.947  0.0112  0.4642 -0.0227
13007W        W28816   6.424   0.407   6.458  0.0839  0.0995  0.2424
13008W        W28817   4.868   6.195  14.525  0.2335  0.0929  0.2056
13009W        W28818   8.695   7.399   1.569 -0.0104  0.0562 -0.1199
13010W        W28819   2.753  14.751  16.802  0.2487  0.0323 -0.3252
13011W        W28820  13.358  16.550  11.263 -0.1591 -0.0421  0.2942
13012W        W28821  15.597   4.898   3.585 -0.2096  0.1339 -0.2926
13013W        W28822   0.256  10.806   4.735  0.1095 -0.1730 -0.2413
13014W        W28823   3.058   4.762  14.068 -0.0198  0.0545  0.2472
13015W        W28824  11.084  14.319   0.158 -0.0803 -0.3807  0.0964
13016W        W28825   5.664   1.364   1.983  0.0361 -0.0674 -0.1889
13017W        W28826   2.789   8.630   1.885 -0.1403  0.2478  0.0156
13018W        W28827  11.095  14.458   1.181 -0.2083 -0.3498 -0.0948
13019W        W28828   9.469   3.247  16.750 -0.0003  0.1607 -0.1996
13020W        W28829   3.611  10.616  13.482  0.0362 -0.1930 -0.4036
13021W        W28830   5.394  15.916   0.206 -0.0735 -0.2256  0.0513
13022W        W28831   6.121   0.023  12.483 -0.0226 -0.2131  0.0602
13023W        W28832   9.152  16.253  16.023 -0.2034 -0.1762 -0.1164
13024W        W28833   4.293   7.319  16.515 -0.0548  0.1072 -0.0728
13025W        W28834  11.614   4.885   0.172  0.1581  0.1291 -0.0072
13026W        W28835   2.477   2.569  11.143  0.2607 -0.0620  0.2467
13027W        W28836  14.613   5.764  16.057 -0.2040 -0.3711  0.0327
13028W        W28837  11.168   0.813  11.686 -0.2659 -0.0376  0.2030
13029W        W28838   2.387   9.041  16.522 -0.0423  0.2760  0.4124
13030W        W28839   7.251   9.110   0.679  0.2307 -0.0346 -0.3852
13031W        W28840   3.299   5.183   1.122 -0.1588 -0.1213  0.2050
13032W        W28841  13.054   9.417  11.559 -0.1497  0.0431  0.2092
13033W        W28842   8.478   5.891   3.227 -0.0207  0.1067 -0.1201
13034W        W28843   1.274   6.619  12.397 -0.0361  0.1897  0.1190
13035W        W28844  16.003   2.694  12.071 -0.1304 -0.0073 -0.3556
13036W        W28845   8.114   9.199  12.284  0.2103  0.0392 -0.3215
13037W        W28846   9.306  16.177   0.357  0.3402 -0.1816  0.0081
13038W        W28847  12.005   6.862   4.400 -0.0018 -0.2046 -0.2968
13039W        W28848  16.175   7.305  11.293 -0.1767 -0.0102 -0.4192
13040W        W28849  16.035  14.729  15.044  0.0259  0.0751  0.0785
13041W        W28850   6.247   8.204   2.330  0.1664  0.2246 -0.0744
13042W        W28851   9.149  15.117   0.198  0.3077  0.3206  0.0207
13043W        W28852   9.458   5.499   4.527  0.2102 -0.4309 -0.0623
13044W        W28853  13.802  16.703   1.796 -0.0965 -0.0661 -0.2637
13045W        W28854   2.632   6.604  16.759 -0.0997  0.2167 -0.0725
13046W        W28855  12.912   4.044  16.276 -0.0811 -0.0366  0.1642
13047W        W28856   1.005   3.508  16.700 -0.2573 -0.0819  0.0337
13048W        W28857  13.378   9.568  12.425 -0.0034  0.0241 -0.2664
13049W        W28858  12.504   9.819  13.200  0.1445  0.0013  0.0096
13050W        W28859   0.746  17.514  13.332 -0.1279  0.1032 -0.1922
13051W        W28860   2.441  11.102  16.409  0.1444 -0.0642  0.0615
13052W        W28861  10.532  14.207   4.288 -0.0149 -0.3062  0.2986
13053W        W28862  15.573   2.055  12.741  0.0729 -0.0699  0.0036
13054W        W28863   0.670   7.202  12.948  0.1374  0.2398 -0.2575
13055W        W28864  11.229   1.310  12.928  0.1629  0.0700  0.1237
13056W        W28865   3.724  17.341   1.747 -0.0530 -0.0209  0.1209
13057W        W28866   3.503  17.657   3.074  0.0597 -0.2364 -0.0525
13058W        W28867  15.070  17.024   0.635 -0.1793  0.0620  0.1450
13059W        W28868   3.651   4.021   1.771  0.2825  0.1236 -0.1869
13060W        W28869  15.196   1.431   0.805  0.1641  0.0531 -0.4753
13061W        W28870  10.503   9.140   5.068 -0.2637 -0.0791 -0.0479
13062W        W28871  12.331  15.658   2.760  0.2470 -0.0001  0.2492
13063W        W28872  11.694   8.175  12.918  0.1488  0.0132 -0.7426
13064W        W28873  10.994   5.710   3.674  0.2356  0.1128 -0.2662
13065W        W28874  14.191  16.896  16.922  0.1133  0.1627  0.0844
13066W        W28875   4.137   5.387   1.060 -0.0715  0.0214  0.0930
13067W        W28876   7.052  13.252   1.657 -0.4002 -0.0159  0.0650
13068W        W28877  10.914   4.009   2.128 -0.0331 -0.0216 -0.1391
13069W        W28878   3.277   1.476   2.058  0.2468  0.1459 -0.0631
13070W        W28879   9.031   7.541   4.666 -0.1152  0.0274 -0.1371
13071W        W28880  11.808  13.990  13.198 -0.0224 -0.1354  0.0646
13072W        W28881   8.238   7.002   2.780  0.2518  0.0844 -0.3021
13073W        W28882  12.668   4.818  14.984  0.0430 -0.0003  0.0931
13074W        W28883  17.017   6.963   4.305 -0.1835  0.0628 -0.0627
13075W        W28884   7.262   8.028   0.056 -0.0988 -0.0268 -0.0774
13076W        W28885  10.366   6.425   1.889  0.0617 -0.0487 -0.0389
13077W        W28886   4.247   2.849  13.956 -0.0611  0.0306 -0.0262
13078W        W28887   3.540  16.689   1.128  0.1512 -0.0493  0.3080
13079W        W28888   3.279   7.359   2.106 -0.1420 -0.0237 -0.0199
13080W        W28889  12.871  11.784   4.443  0.1218  0.2170 -0.0840
13081W        W28890   5.087  10.913   0.811  0.0318 -0.0112  0.1230
13082W        W28891   5.774   0.360  16.129  0.0283  0.0920  0.1222
13083W        W28892   2.181   5.781   0.737  0.2010  0.0831 -0.1743
13084W        W28893  12.311   8.619   0.110 -0.1499  0.0600 -0.3301
13085W        W28894  11.120   8.979  11.628  0.4999 -0.0698  0.0872
13086W        W28895   6.645  12.268   1.657  0.2460  0.1053 -0.2032
13087W        W28896  12.675   6.814   5.588 -0.0470  0.0826  0.1567
13088W        W28897   5.534   5.086   2.245  0.0238  0.1474  0.1517
13089W        W28898  13.206   3.688  11.951  0.1777  0.0340  0.0686
13090W        W28899   9.572  11.314   3.279  0.0063 -0.0856  0.1032
13091W        W28900   2.036  13.305  14.038 -0.2014 -0.2185  0.0078
13092W        W28901  14.568  11.199  11.793 -0.0085 -0.3864 -0.3670
13093W        W28902  11.554   2.294   3.005  0.2094 -0.0431 -0.0697
13094W        W28903   7.958   3.486  15.422  0.0027  0.0307  0.2318
13095W        W28904   2.593   7.490  13.284 -0.1294 -0.0275 -0.0837
13096W        W28905  12.311  15.436  15.056  0.0422 -0.0662  0.0169
13097W        W28906  14.692   0.912   5.663 -0.2740  0.1134  0.2950
13098W        W28907   0.477  13.675  11.973  0.0145  0.1070  0.3282
13099W        W28908   1.209   3.723   5.626 -0.1655  0.2086 -0.3443
13100W        W28909  12.768  11.355  11.919 -0.0026 -0.0483  0.0990
13101W        W28910  13.922   8.420  15.024  0.2241  0.3474  0.2487
13102W        W28911   4.802   7.816   4.419  0.3726 -0.2924 -0.0526
13103W        W28912  10.902   6.620   1.798 -0.0733 -0.0160 -0.1930
13104W        W28913   4.446   9.286  11.758  0.1031 -0.1124 -0.1722
13105W        W28914   7.330   3.429   4.457 -0.0180  0.0425 -0.0370
13106W        W28915  12.763  13.524  16.152 -0.2196  0.1108  0.1547
13107W        W28916  11.864  10.259   2.515  0.0443  0.1214  0.2925
13108W        W28917  12.334  11.884  16.365  0.1593 -0.0612  0.3826
13109W        W28918  11.879   6.687   0.898 -0.0083 -0.0574  0.0576
13110W        W28919   1.121  11.452   3.719  0.0393  0.0079 -0.2663
13111W        W28920  12.971   6.582   4.106  0.2552  0.3898  0.0167
13112W        W28921  16.963   4.620   0.377 -0.1576  0.0508  0.1297
13113W        W28922   5.150  11.548   4.698  0.4328  0.2756  0.0199
13114W        W28923   1.034   4.874   1.592  0.0431  0.2497 -0.1691
13115W        W28924   7.394   3.408  13.880  0.0974  0.3186  0.3062
13116W        W28925   4.595  15.827   2.459 -0.3406 -0.0078 -0.0165
13117W        W28926   1.713  16.581  11.736 -0.0617 -0.2071  0.1714
13118W        W28927   1.533  16.845   5.122  0.3084  0.1329  0.1806
13119W        W28928  17.619  11.990  13.001 -0.1855  0.1266  0.0714
13120W        W28929  11.714   2.138  13.445  0.3409 -0.2958  0.1866
13121W        W28930   7.990   8.549   2.822  0.1465  0.4855  0.0243
13122W        W28931   1.198   4.646  16.835 -0.1456 -0.3486 -0.1004
13123W        W28932   7.765   3.208   2.998 -0.2674  0.0460 -0.2738
13124W        W28933  10.382  13.338  11.794 -0.1660  0.1375  0.1917
13125W        W28934  14.876   7.019   0.822  0.1245  0.2504  0.0774
13126W        W28935   7.152  14.487  12.369 -0.0485 -0.1739  0.0394
13127W        W28936   8.989   2.518   0.059  0.0181  0.0389 -0.0756
13128W        W28937   5.491  14.091  14.168  0.0134 -0.4312  0.2201
13129W        W28938   0.319   2.272   1.752  0.1114  0.1131 -0.0460
13130W        W28939  10.319  11.536   2.574  0.1348 -0.1956  0.0632
13131W        W28940  10.935  15.018  11.399  0.2843 -0.0431 -0.0202
13132W        W28941   1.565  12.127   1.768 -0.1098  0.0880 -0.0884
13133W        W28942   1.179   4.470   0.716  0.0228 -0.0494 -0.1830
13134W        W28943   6.166  16.581   3.473 -0.2170  0.1706 -0.0231
13135W        W28944  15.147   6.968  15.940  0.0395  0.2835 -0.2491
13136W        W28945   0.830   5.833  14.955 -0.0179  0.2729  0.0300
13137W        W28946   0.488   2.185   0.822 -0.1359  0.1261 -0.0190
13138W        W28947   6.714  14.648   4.131  0.1629 -0.1715 -0.0377
13139W        W28948   9.067   6.556  15.314  0.0463  0.0558 -0.0382
13140W        W28949   0.747  10.561   5.120  0.1598  0.3933 -0.1475
13141W        W28950   3.895   9.952  12.006  0.0264 -0.0319 -0.0092
13142W        W28951   8.474  11.442  13.820  0.1360  0.1865 -0.1848
13143W        W28952   7.360  15.307   3.360 -0.0420  0.0512  0.2035
13144W        W28953  10.787   7.487   1.475  0.2535 -0.2546  0.1478
13145W        W28954  10.786   4.550   0.635 -0.0802 -0.2405 -0.4115
13146W        W28955   1.893   0.145  15.310 -0.1825 -0.0333 -0.1444
13147W        W28956  15.846   5.540  14.150 -0.2634  0.0528  0.0236
13148W        W28957   1.267  13.341  16.542 -0.5469 -0.0241 -0.0074
13149W        W28958  13.376  12.474  11.342 -0.0811  0.3817 -0.0286
13150W        W28959  10.926  17.091   2.557  0.0153 -0.0234 -0.1637
13151W        W28960  17.177   3.148   2.281 -0.0465 -0.3000 -0.0883
13152W        W28961   3.424   7.437   4.010 -0.0876  0.2845 -0.1057
13153W        W28962   0.440   6.897   5.021  0.0770  0.0641 -0.0646
13154W        W28963   9.000   7.457   0.603  0.0476  0.2861  0.0479
13155W        W28964  10.147   0.118   1.738  0.2297 -0.0514  0.0367
13156W        W28965   3.128   2.264   2.609 -0.1371 -0.1439 -0.0001
13157W        W28966   2.615  17.254  12.242 -0.0480 -0.1396  0.0652
13158W        W28967  13.708   8.857  14.885  0.2448  0.1543  0.1164
13159W        W28968   3.328  10.030   6.676  0.0071 -0.0273  0.0382
13160W        W28969  17.136   2.108  15.501 -0.0979  0.4100 -0.0109
13161W        W28970   0.072  10.327  14.153 -0.0731 -0.0504  0.5068
13162W        W28971   8.537   4.550   1.994  0.1130 -0.0007 -0.4125
13163W        W28972  11.501   6.522  12.549  0.2914 -0.0210 -0.0979
13164W        W28973   9.059   2.920  15.573 -0.0310 -0.0034 -0.1490
13165W        W28974   4.574  15.066  13.668 -0.0200  0.1210  0.0851
13166W        W28975  14.951   8.777   1.244  0.1348 -0.1686  0.0736
13167W        W28976   4.297   8.038   0.788  0.1597  0.0411 -0.0451
13168W        W28977  11.157  14.527   2.584 -0.6146  0.2214  0.2047
13169W        W28978   8.452   3.928  16.792 -0.1087 -0.2581  0.0116
13170W        W28979   1.268   3.598  14.957 -0.0022  0.1444  0.3477
13171W        W28980   7.672  16.905   2.422 -0.3069 -0.1446  0.0940
13172W        W28981  11.911  17.510   5.363 -0.0907 -0.1237  0.2575
13173W        W28982   9.146  14.226   0.446 -0.1392 -0.1636 -0.1646
13174W        W28983  13.673   5.308   3.772 -0.0702 -0.5109 -0.0806
13175W        W28984   7.192  12.446  12.081 -0.1705 -0.1513 -0.1381
13176W        W28985  13.209   5.854  14.621  0.1910  0.3143  0.0341
13177W        W28986  16.004  12.264   0.351 -0.1851 -0.3511  0.2332
13178W        W28987  15.852   3.569   0.485 -0.0343  0.0864 -0.1280
13179W        W28988  12.954  12.741  16.262 -0.1436 -0.1607 -0.2550
13180W        W28989   0.381  15.396   5.952 -0.0425 -0.1440  0.0806
13181W        W28990  16.411   0.277  15.322  0.3818  0.0036 -0.4636
13182W        W28991   4.446  16.422   3.978  0.0250  0.0425 -0.2821
13183W        W28992   2.479   8.237   6.266  0.0992  0.2077 -0.2444
13184W        W28993   9.783  13.470   1.173  0.3181 -0.3658 -0.3422
13185W        W28994   8.297  10.616   3.856 -0.1688  0.2124  0.0104
13186W        W28995   0.438   7.658  16.311 -0.1440  0.0557 -0.1607
13187W        W28996   9.166   8.431   4.956  0.1537  0.2145 -0.1005
13188W        W28997   0.761  11.533   5.361 -0.2140 -0.0277 -0.2501
13189W        W28998   3.801   4.363   4.493  0.2249 -0.0076  0.0610
13190W        W28999   3.814  10.834   5.085 -0.1220  0.1446  0.0856
13191W        W29000  17.581   9.951   3.879  0.1617  0.1469 -0.0199
13192W        W29001   3.804   5.216  14.319 -0.3419  0.0954 -0.2359
13193W        W29002  16.466   8.508  13.407 -0.1408 -0.2753  0.1428
13194W        W29003  13.983   1.066   3.780 -0.1989 -0.0408 -0.1593
13195W        W29004  14.099   6.767   4.568 -0.0518  0.0237  0.0822
13196W        W29005   6.761  16.452   4.789 -0.1400 -0.2269 -0.1646
13197W        W29006  16.384  12.496  14.879 -0.2090 -0.3881 -0.1909
13198W        W29007   4.456   4.440   0.262 -0.4478 -0.0076  0.1805
13199W        W29008   0.231   6.441  16.860  0.0666 -0.0067 -0.0267
13200W        W29009  15.630   5.274  16.567 -0.2471  0.0928 -0.3453
13201W        W29010  17.050  11.792   4.898 -0.1845  0.2225 -0.1128
13202W        W29011   6.015   7.910   1.460 -0.0020 -0.0308  0.2229
13203W        W29012   4.243  12.528   2.724  0.2046  0.4597  0.0247
13204W        W29013   7.564   6.894   3.611  0.3865 -0.1672 -0.1461
13205W        W29014   0.614   0.417  13.507  0.0606  0.1759  0.0548
13206W        W29015   0.705  13.475  15.278  0.0385  0.2023  0.0177
13207W        W29016  15.559   7.184   3.898  0.2674  0.2365  0.1543
13208W        W29017  13.012   3.367   3.718 -0.0811  0.3301 -0.1257
13209W        W29018  14.960  10.585   4.591  0.2351 -0.1333 -0.0056
13210W        W29019  12.326   7.117  16.119 -0.1737  0.2317 -0.1952
13211W        W29020  16.048   0.804   3.420  0.1403 -0.0318  0.0694
13212W        W29021  14.983  13.926  16.222  0.0235 -0.0863 -0.1431
13213W        W29022  11.849   6.809   1.942  0.3328  0.0098 -0.0090
13214W        W29023  17.533  15.729   4.823 -0.1359 -0.3259 -0.1854
13215W        W29024  14.195  13.032   0.039 -0.0002 -0.3178  0.0487
13216W        W29025  11.138   9.474  12.983 -0.0602  0.1478 -0.1398
13217W        W29026  17.329   5.747   5.840 -0.2103  0.2489 -0.0352
13218W        W29027  17.429  17.581  14.525 -0.1520  0.0054  0.0220
13219W        W29028  12.854  12.941  15.156 -0.2131 -0.0524  0.0817
13220W        W29029  14.700   9.325   3.331  0.0777 -0.0107 -0.0413
13221W        W29030  15.793   2.692   2.211  0.1184 -0.2776 -0.0019
13222W        W29031   0.145  13.134  14.915  0.0825 -0.2770  0.0106
13223W        W29032  17.318  16.392   5.407  0.2464 -0.0554 -0.3530
13224W        W29033  17.241   5.571  15.348  0.1914 -0.3113 -0.0520
13225W        W29034   0.470   3.356  16.469  0.0839  0.0365 -0.0547
13226W        W29035  13.850   5.096   5.751  0.0926 -0.3574  0.0611
13227W        W29036   7.462   0.313  16.480  0.1518 -0.0252 -0.1073
13228W        W29037  17.497   2.389   2.546 -0.0091 -0.2559 -0.2235
13229W        W29038   6.191  10.052   4.460  0.1459  0.0753  0.0293
13230W        W29039   5.543   7.772   0.856  0.2050  0.4852  0.0320
13231W        W29040  11.405  13.683  13.189 -0.0211 -0.3308  0.1513
13232W        W29041  13.209  14.901  15.028 -0.1835  0.3633 -0.1331
13233W        W29042  10.241  10.642  12.802  0.3041 -0.1307  0.2402
13234W        W29043   8.822   1.700  12.064  0.1839 -0.1482  0.0645
13235W        W29044   2.921   3.649   5.121 -0.2298 -0.0181 -0.2441
13236W        W29045  17.343   6.482   2.632 -0.0732 -0.1158 -0.3330
13237W        W29046  13.455   4.791  11.893 -0.3013  0.0877 -0.0252
13238W        W29047   2.595  10.405  13.021 -0.0443 -0.0020  0.3324
13239W        W29048   7.534   5.096   5.296 -0.4570 -0.0756 -0.0942
13240W        W29049   1.275   3.885  16.719 -0.2232 -0.0820 -0.0036
13241W        W29050  12.310   4.106  16.715  0.0559 -0.0986  0.2522
13242W        W29051  12.330  14.632  15.706  0.1064 -0.0313  0.2646
13243W        W29052  14.299   5.358  16.354 -0.0911  0.2376  0.2192
13244W        W29053   0.676  12.717   2.972 -0.2426 -0.2211  0.0870
13245W        W29054  11.562  14.765  12.350  0.0549 -0.1666  0.1662
13246W        W29055  12.681  13.594  11.701 -0.2374 -0.0648  0.2061
13247W        W29056   1.018  13.237  14.818 -0.3313  0.1931 -0.0236
13248W        W29057   6.726  10.597   5.630 -0.1174  0.3315 -0.1644
13249W        W29058  16.243   6.368  12.682 -0.1190  0.2557 -0.1765
13250W        W29059   2.957  15.758  13.508  0.0057 -0.1979 -0.1746
13251W        W29060   7.153   0.816   6.624 -0.2548  0.2076  0.3962
13252W        W29061   4.799   9.036   5.339 -0.1399  0.1106 -0.0083
13253W        W29062  17.669   4.188   3.450 -0.0136  0.2430  0.0618
13254W        W29063   2.960   9.957  14.826  0.3191  0.1273 -0.0056
13255W        W29064  16.218   3.486  13.568 -0.1818  0.1111 -0.1979
13256W        W29065  11.366  11.927   1.095  0.0860  0.1136  0.3371
13257W        W29066   0.157  13.811  11.457 -0.0426  0.2401  0.0743
13258W        W29067   4.138   6.152   4.187 -0.2449  0.1899  0.2000
13259W        W29068  15.024  15.115  16.687 -0.0748  0.1790  0.3544
13260W        W29069  11.362   6.683   3.679  0.0235  0.1345  0.1978
13261W        W29070   9.241  15.509   0.527 -0.0051 -0.3124  0.3412
13262W        W29071  17.497   4.063  12.832  0.1297 -0.2207 -0.1291
13263W        W29072   7.431   6.363  15.214 -0.3501 -0.0980  0.1646
13264W        W29073   7.387  14.895   1.247  0.0326  0.1496  0.2589
13265W        W29074   2.050   0.976  14.822 -0.3358  0.1461 -0.1019
13266W        W29075   3.926   5.867   1.067 -0.0244 -0.0848 -0.1248
13267W        W29076  17.276  17.483   1.801 -0.0046 -0.1204  0.1608
13268W        W29077   0.360   7.558   2.313 -0.2896  0.0321 -0.1459
13269W        W29078   4.041  15.831  15.626 -0.0545 -0.2480 -0.0141
13270W        W29079  15.004   6.383   5.332  0.2980  0.2244 -0.0403
13271W        W29080   8.357   7.841  14.831 -0.1466 -0.1319  0.1298
13272W        W29081  16.741   1.414  12.556 -0.3042 -0.1044  0.0033
13273W        W29082  13.193  16.227  15.321  0.1117  0.0249 -0.4293
13274W        W29083   4.819   7.331   4.318 -0.0596 -0.2133 -0.0694
13275W        W29084   0.063   6.345   1.918 -0.0528  0.1343 -0.0897
13276W        W29085   0.981   4.724   2.258  0.0433 -0.3107  0.1325
13277W        W29086   1.031  14.267   2.383  0.2160 -0.0746 -0.1314
13278W        W29087   0.917   1.454  13.368 -0.1454  0.0755  0.1783
13279W        W29088  12.986   9.954   1.981  0.3262  0.3329  0.1852
13280W        W29089  10.886   0.640   3.524 -0.0204  0.2067  0.1521
13281W        W29090  11.990  15.041  14.273  0.3625  0.1756 -0.1532
13282W        W29091  10.143   7.322  14.058 -0.0663 -0.0217  0.0841
13283W        W29092  16.517   1.509   1.215  0.1658 -0.1158  0.0151
13284W        W29093   1.314   3.190  14.088 -0.0237 -0.1747 -0.0628
13285W        W29094  13.780   4.022  12.791 -0.2769  0.0964  0.0089
13286W        W29095   5.826  13.166  14.508 -0.1833  0.1576  0.0915
13287W        W29096   9.852  10.342   1.256  0.0014  0.0008  0.0032
13288W        W29097  16.680  11.748   3.690 -0.3439  0.0676  0.1852
13289W        W29098  15.093   0.292   6.066 -0.1676  0.1041  0.0039
13290W        W29099   2.555   4.966  12.224  0.1552 -0.0625  0.0585
13291W        W29100  14.329   5.693  15.073  0.2115 -0.0668 -0.1665
13292W        W29101  12.779   0.420  16.315  0.0955  0.2449 -0.0054
13293W        W29102   8.903  14.694   0.438 -0.3875 -0.0562 -0.2121
13294W        W29103  13.631   4.743   4.548 -0.0072 -0.0964  0.0374
13295W        W29104  17.737   9.119  13.842  0.0914  0.2032  0.2350
13296W        W29105  12.948  12.398   1.575  0.1595 -0.2525 -0.0765
13297W        W29106  12.921   4.591   1.664 -0.1296  0.0743 -0.0818
13298W        W29107   9.703  10.609  11.561  0.0993 -0.2133 -0.1482
13299W        W29108   4.752  12.198  11.859 -0.1005 -0.1379  0.3409
13300W        W29109   3.964  10.205  16.323 -0.2309 -0.0856 -0.1660
13301W        W29110   6.848  14.099   0.013  0.2624  0.3106  0.1302
13302W        W29111   2.563  12.654  12.078  0.0790  0.0877  0.1744
13303W        W29112   8.285   3.735  12.754  0.0211  0.0403  0.0320
13304W        W29113   4.953   3.749   4.091 -0.0723 -0.1903 -0.0315
13305W        W29114   3.289  15.380   1.749 -0.1850 -0.0657 -0.0724
13306W        W29115  16.313  16.999  16.926  0.0090  0.2008  0.0193
13307W        W29116   8.992  17.452  15.143  0.0901  0.1653 -0.1589
13308W        W29117   3.916  13.855   0.610  0.0906  0.2873  0.1222
13309W        W29118   2.415   1.587   2.385  0.1922  0.3493 -0.2614
13310W        W29119  12.308  16.697  13.985 -0.0941 -0.1297 -0.0565
13311W        W29120   2.366   3.683   0.294  0.2618  0.2380  0.1255
13312W        W29121  10.044   4.244   1.833 -0.1138  0.0006  0.1449
13313W        W29122   6.226   6.577   2.124 -0.4361 -0.0698  0.1985
13314W        W29123   2.976  11.732   0.551  0.2866 -0.1816 -0.0593
13315W        W29124   6.858   8.984   4.341 -0.1664  0.0905 -0.3475
13316W        W29125  13.277   6.856   1.805 -0.1296  0.0619  0.0868
13317W        W29126   3.607   5.838   5.557 -0.0298 -0.1351  0.2072
13318W        W29127  15.262   8.284  14.132  0.2644  0.1149  0.4899
13319W        W29128   0.232   1.650  12.004 -0.4096  0.1961 -0.1944
13320W        W29129  13.001  11.348  16.784 -0.2164 -0.3680 -0.3392
13321W        W29130   5.073  15.203  16.464 -0.1514  0.0090 -0.0087
13322W        W29131  17.486   0.014   2.177  0.0197  0.1660 -0.0304
13323W        W29132   0.998   2.980   4.955  0.1328 -0.0678  0.2796
13324W        W29133  12.097   1.632   4.431 -0.1172  0.0168  0.0344
13325W        W29134  11.018   9.272   5.745  0.1313 -0.0948  0.0316
13326W        W29135   8.461   9.538   1.836 -0.1256 -0.0662  0.0015
13327W        W29136  13.250  16.176  14.402 -0.0601 -0.2376  0.2250
13328W        W29137  17.696  16.995  12.890  0.3768 -0.4222  0.0916
13329W        W29138   5.884  16.347  16.555  0.1119 -0.1170  0.0988
13330W        W29139   9.459   3.546   3.360 -0.4050  0.2368 -0.2183
13331W        W29140   2.720   8.397  14.602  0.0530 -0.2896  0.0322
13332W        W29141   3.054   1.849  12.008  0.0732 -0.1112 -0.2036
13333W        W29142  10.287   6.604  14.333  0.0603 -0.4524 -0.1268
13334W        W29143   2.887  16.413   0.458  0.2810  0.1002  0.3195
13335W        W29144  17.517   1.555   4.292  0.1034 -0.0170  0.0544
13336W        W29145  10.564   5.274   3.374  0.0444 -0.0827  0.0799
13337W        W29146   7.637   5.478  15.078  0.0418 -0.0483  0.0758
13338W        W29147   4.575  15.840  13.296 -0.1083  0.1781  0.0048
13339W        W29148  11.924   1.488   0.771  0.0520  0.1273 -0.3141
13340W        W29149   4.774   6.213  16.886  0.2086  0.1944  0.2033
13341W        W29150   5.944   4.074   1.509  0.0321  0.0031 -0.2250
13342W        W29151  11.271  15.653  15.466  0.0585 -0.3613  0.3184
13343W        W29152  16.723   5.678  14.226 -0.0318  0.2032  0.1991
13344W        W29153  11.630  17.437  12.448  0.2105  0.1631  0.5191
13345W        W29154   0.731   6.962  16.476  0.0553 -0.1042 -0.3127
13346W        W29155  11.110   7.652   2.696 -0.2248 -0.0668 -0.2040
13347W        W29156   6.779   3.308   3.861  0.1299  0.1764  0.3997
13348W        W29157   4.818   4.902   0.113 -0.1412 -0.0873 -0.1118
13349W        W29158   2.507  16.385  15.185  0.0320  0.1251 -0.1618
13350W        W29159  13.679  13.717  11.966 -0.1379 -0.2237  0.0103
13351W        W29160  11.232  16.173  11.842  0.1221 -0.2243  0.0414
13352W        W29161  15.519  12.253  14.703 -0.1694  0.3457  0.0932
13353W        W29162  16.145   0.206   1.608 -0.1006  0.1517  0.0355
13354W        W29163  11.480   1.840   2.642 -0.1661  0.4158  0.1742
13355W        W29164   8.399   0.795   4.464 -0.1339  0.2753  0.1587
13356W        W29165   3.720  10.664   0.963 -0.0864 -0.1146 -0.1501
13357W        W29166   1.129  12.483  16.768  0.0722  0.2395  0.0143
13358W        W29167  13.087  16.457  13.547  0.3587 -0.2505  0.0257
13359W        W29168   8.649   9.770   0.192 -0.4165  0.0592  0.0381
13360W        W29169   7.897  13.764  15.065 -0.0195 -0.1763 -0.2252
13361W        W29170  10.791   4.296  15.771 -0.0505  0.4441 -0.2422
13362W        W29171  14.841  13.754   1.490  0.0143 -0.2948 -0.4163
13363W        W29172  12.653   8.778  14.408 -0.1019 -0.0073  0.2112
13364W        W29173   2.147   0.664   1.479 -0.1132 -0.0022  0.1611
13365W        W29174   3.943   1.767  16.996  0.3720  0.0226  0.1261
13366W        W29175  12.169   1.116   4.257  0.2206 -0.1741  0.1273
13367W        W29176  16.787  17.082  15.238  0.2155 -0.0139  0.2389
13368W        W29177   6.592   0.775  12.389 -0.0111 -0.2587  0.1073
13369W        W29178  14.753   9.250  13.223  0.2711 -0.2821  0.1858
13370W        W29179   0.998   5.447   5.090  0.0033  0.1061  0.1372
13371W        W29180   8.017   3.330   6.506  0.1382  0.2410  0.2242
13372W        W29181  10.317  13.175  15.394  0.2074 -0.1540 -0.0918
13373W        W29182  13.842   5.277  15.929  0.3047  0.1277  0.0306
13374W        W29183   6.573   9.951  15.806 -0.1280 -0.3222  0.0625
13375W        W29184   7.618  10.308   5.576 -0.1241 -0.1286  0.0958
13376W        W29185   2.599   6.831  12.622 -0.0349  0.1753 -0.0955
13377W        W29186  11.033   2.853  16.909  0.0647  0.0244  0.1798
13378W        W29187   8.520  10.584   1.570  0.1771 -0.1479  0.0178
13379W        W29188  16.460   0.836  14.604  0.0570 -0.3168 -0.0516
13380W        W29189   4.158  15.975  12.930  0.1030  0.0134 -0.0907
13381W        W29190  14.970   3.439  12.605 -0.0618  0.0052 -0.2060
13382W        W29191   0.399   9.485  15.027  0.2793 -0.2405 -0.1806
13383W        W29192  13.052   0.922  16.238 -0.3875  0.0598 -0.3109
13384W        W29193   6.856   0.501  16.085 -0.1949 -0.1318 -0.1012
13385W        W29194  17.167  15.870  12.858 -0.1636  0.0877  0.0372
13386W        W29195   6.063   8.169   1.873  0.2684  0.1184 -0.0232
13387W        W29196  10.719  15.534   4.650 -0.1563  0.1659 -0.0212
13388W        W29197  11.191   9.432   1.619  0.5239  0.1329  0.2495
13389W        W29198   9.601   7.415  14.063 -0.1718  0.1043 -0.0152
13390W        W29199   0.487   1.357   4.389 -0.1892  0.3367  0.0942
13391W        W29200   6.165   1.527   0.247 -0.0538 -0.1317 -0.1549
13392W        W29201   3.980  16.293   2.725 -0.0602  0.0014  0.0743
13393W        W29202  16.153   9.082   0.731  0.1538  0.3236 -0.1673
13394W        W29203   5.205   0.698   3.345  0.0164  0.0038  0.0446
13395W        W29204   0.642  14.065  14.120  0.2104 -0.1959 -0.0825
13396W        W29205   3.210   5.401   4.605 -0.1108 -0.0827  0.0271
13397W        W29206   3.931   0.465   5.032  0.0390 -0.0341 -0.1581
13398W        W29207   6.297   6.097  14.748 -0.1557 -0.3245  0.1177
13399W        W29208  11.733  10.858  12.466  0.1578  0.1251  0.1036
13400W        W29209  11.345   2.872  13.554 -0.2470  0.0062 -0.1440
13401W        W29210   5.187  10.424   0.746  0.0721  0.0226  0.1276
13402W        W29211   0.974  12.262   3.594  0.4841  0.2692 -0.1680
13403W        W29212   1.287   1.013   0.619 -0.1409 -0.2051 -0.0738
13404W        W29213   3.785  14.929  10.588  0.1406  0.2098  0.0855
13405W        W29214   2.181  10.896  15.024 -0.3413 -0.1692 -0.1978
13406W        W29215   3.874  17.717  11.820 -0.0296  0.0881 -0.1470
13407W        W29216   9.849   4.881  16.586 -0.0371 -0.1797 -0.1188
13408W        W29217  11.516  15.722   0.152 -0.0979  0.3567 -0.1820
13409W        W29218  16.096  10.955   1.645  0.0619  0.1923  0.0683
13410W        W29219   8.142   8.960  11.805 -0.2125  0.2813  0.0550
13411W        W29220   7.158  12.288  16.364 -0.2919 -0.0633 -0.3769
13412W        W29221  13.348   0.392   2.627 -0.2964  0.0089 -0.1685
13413W        W29222  13.282   3.946  15.748  0.1263 -0.3475 -0.0768
13414W        W29223   0.606   2.492  16.631  0.0453 -0.0559  0.0641
13415W        W29224  10.435   4.834   2.507  0.2272  0.0940 -0.3730
13416W        W29225  11.807   0.500  12.445  0.0698  0.1023  0.2399
13417W        W29226  13.403   6.296   4.447  0.2655 -0.0859 -0.0610
13418W        W29227   9.088  12.841  16.893  0.1116  0.0861  0.1735
13419W        W29228  17.699  12.571   1.839  0.0068  0.0768  0.0061
13420W        W29229  11.249   9.323  14.255  0.3770 -0.2617  0.0730
13421W        W29230   9.228  14.654  11.744  0.0036  0.0908  0.0618
13422W        W29231   7.331   2.085  15.854  0.1453  0.0241  0.2579
13423W        W29232   9.002  13.403  13.580 -0.3329 -0.3309  0.2565
13424W        W29233  12.379   7.425  14.395 -0.1907  0.1363 -0.1505
13425W        W29234   3.699  11.708   1.914  0.0207  0.1332 -0.2244
13426W        W29235  11.430   3.809   0.219  0.0119 -0.2149  0.0145
13427W        W29236   4.227   9.521  13.581  0.1791 -0.1558 -0.0254
13428W        W29237  17.432  10.054  14.004 -0.0011 -0.1254 -0.2665
13429W        W29238   9.398  14.865   4.783  0.0825  0.2156  0.1783
13430W        W29239  13.394  17.213  13.282 -0.4021  0.0056 -0.2659
13431W        W29240  11.620  11.807   2.327 -0.1816  0.2277  0.0587
13432W        W29241  12.873   6.391  16.671  0.2390 -0.3925  0.0633
13433W        W29242  11.409  11.219   0.122  0.1508  0.4010 -0.1360
13434W        W29243  10.252  17.574   0.935  0.0059  0.2213  0.3501
13435W        W29244   7.852   2.575   3.590 -0.2247 -0.1780  0.3019
13436W        W29245   5.323   6.989  12.997  0.0108  0.0069  0.0422
13437W        W29246   6.121  15.426   3.326 -0.0083 -0.2410  0.1312
13438W        W29247   7.790   6.736   2.698  0.1249 -0.2860 -0.3971
13439W        W29248  10.669   5.274   1.228 -0.0780  0.1062 -0.0931
13440W        W29249   6.780  13.855  13.645 -0.1661 -0.0353 -0.1573
13441W        W29250  16.419   7.597  11.796 -0.2298 -0.3787 -0.0359
13442W        W29251  14.103  13.393  12.006  0.1544  0.1049 -0.2031
13443W        W29252  13.215  11.669   1.016 -0.0321 -0.1323  0.1043
13444W        W29253   5.539  16.645   5.470 -0.0345  0.0603  0.0799
13445W        W29254  12.909   9.646  16.992 -0.0357 -0.3046 -0.0381
13446W        W29255  10.678   1.312  13.369 -0.0642  0.1615 -0.0691
13447W        W29256  17.367   9.491  15.856  0.1128 -0.1907  0.1491
13448W        W29257   0.385  16.433   5.418  0.0033  0.2667 -0.0687
13449W        W29258  14.418   7.732   2.252 -0.0252 -0.1615  0.2638
13450W        W29259   5.955   4.655   1.712 -0.0171  0.0216 -0.0348
13451W        W29260   1.237   5.164  12.503  0.2831 -0.1906  0.0313
13452W        W29261   8.216  11.036  11.526 -0.1223 -0.2339 -0.5063
13453W        W29262   7.850  13.859   4.303 -0.1636 -0.1747  0.0820
13454W        W29263   9.567  11.056  12.550  0.1191 -0.0121  0.0797
13455W        W29264   2.573   0.431  13.132 -0.1111  0.0778  0.0797
13456W        W29265   6.424   2.966  15.746 -0.0513  0.3022 -0.3413
13457W        W29266   2.810   6.939   3.647 -0.0373 -0.1703 -0.5578
13458W        W29267   9.593   1.851   5.078 -0.1238 -0.3339 -0.0229
13459W        W29268  10.379  12.374  11.516  0.1548 -0.4855 -0.4732
13460W        W29269   1.378   7.231  16.264 -0.0747  0.0948 -0.0738
13461W        W29270   2.837   1.731  15.528  0.0177 -0.2353  0.0832
13462W        W29271   8.547   2.635   1.523 -0.2377 -0.3716 -0.2452
13463W        W29272   6.264   5.977   4.080 -0.1459  0.0185  0.2287
13464W        W29273  12.923  14.025  14.261 -0.5137 -0.1829  0.1389
13465W        W29274   4.878   9.135  15.640 -0.0702 -0.1407  0.1247
13466W        W29275   6.913  14.678  11.889  0.0580  0.2889  0.2257
13467W        W29276   9.304   0.737  16.425 -0.2794  0.0037 -0.1777
13468W        W29277   8.523  15.864   2.469 -0.1528  0.0007  0.0608
13469W        W29278   6.791   1.813  13.678 -0.2708 -0.4373  0.2196
13470W        W29279   8.759   7.267   3.052 -0.1440 -0.2382  0.3359
13471W        W29280  14.549   6.312  12.606 -0.1832  0.0121 -0.0156
13472W        W29281   1.112  10.015   2.519 -0.0935  0.0021 -0.0397
13473W        W29282   1.746  12.835  11.923 -0.0374  0.1687 -0.0689
13474W        W29283   7.089  11.853  14.857  0.0641  0.1201  0.2881
13475W        W29284   9.261   0.349   2.709  0.0667  0.0730 -0.0102
13476W        W29285  17.600  16.493   1.943 -0.0955 -0.0251  0.2009
13477W        W29286  12.483  12.574   5.471  0.0547  0.3447 -0.1732
13478W        W29287   7.806  14.579   1.515 -0.0677 -0.0759  0.0469
13479W        W29288  10.996  14.900  12.700 -0.0955  0.0566 -0.4049
13480W        W29289  16.043  12.075   2.487 -0.0803  0.0287 -0.1160
13481W        W29290   9.039   4.955   0.341 -0.0058  0.0041 -0.2248
13482W        W29291  11.257   5.138  15.980  0.2632 -0.0389  0.0674
13483W        W29292  17.283  13.922   3.548  0.0342  0.2477  0.0567
13484W        W29293  14.181   4.539   4.684  0.0255  0.3914  0.2192
13485W        W29294   0.296  15.611  15.937  0.1965 -0.1887 -0.1267
13486W        W29295  13.854  16.650  11.164 -0.0026 -0.2066 -0.0617
13487W        W29296   3.878   6.958   3.455  0.1845  0.2668  0.1438
13488W        W29297  14.703   9.555  15.076  0.1405  0.2972 -0.3025
13489W        W29298   2.884   3.195   3.847  0.3028  0.0164  0.2576
13490W        W29299  15.126  15.418  13.598  0.0119 -0.0615  0.2618
13491W        W29300  10.164  12.438   0.348 -0.0100 -0.1280 -0.1318
13492W        W29301   3.816   3.806   3.400  0.0059 -0.0482 -0.1332
13493W        W29302   5.571   1.432  12.158  0.0385 -0.0506 -0.0870
13494W        W29303  17.123  15.727   4.452  0.2384  0.0007  0.3269
13495W        W29304   2.804  15.088   2.311  0.0599 -0.0852 -0.1676
13496W        W29305   0.782   4.214   2.853 -0.0692 -0.0181  0.3052
13497W        W29306  13.967   7.642   0.162  0.0256 -0.1868 -0.1862
13498W        W29307  13.507  11.954   4.216 -0.0433  0.0596  0.0095
13499W        W29308  17.063  13.971   2.086  0.1356 -0.0834 -0.0148
13500W        W29309  13.090  14.580  11.101 -0.0816  0.1588 -0.1670
13501W        W29310   6.683  14.528  13.711  0.0772 -0.1414 -0.1546
13502W        W29311  14.667  11.172  15.619  0.2122  0.0402  0.0513
13503W        W29312  15.668  10.856  14.939  0.0993 -0.3800 -0.3485
13504W        W29313   8.981   4.291  14.332  0.0945 -0.1535  0.1131
13505W        W29314  13.443  16.296  12.157 -0.0516  0.2070  0.1197
13506W        W29315   7.822  11.725   4.739  0.0733 -0.1152 -0.2915
13507W        W29316   4.317  15.729  12.518 -0.1950  0.1828 -0.3140
13508W        W29317  17.619   2.526   3.047  0.1455 -0.2351 -0.1068
13509W        W29318   2.577  17.621  12.731  0.1100  0.1992 -0.0394
13510W        W29319   5.352   8.354  14.310  0.1923 -0.2271 -0.1667
13511W        W29320  15.547  14.168   3.612 -0.1483  0.0040 -0.4002
13512W        W29321   0.376   3.492   4.357 -0.1241 -0.0952 -0.0621
13513W        W29322  13.609  12.080  15.720 -0.3105  0.0778  0.1676
13514W        W29323  10.036  11.993   2.687  0.1351  0.0263 -0.1546
13515W        W29324  10.369  15.777  13.302  0.3131 -0.2972 -0.0515
13516W        W29325  13.994   5.031   0.787  0.2513  0.0280 -0.0747
13517W        W29326  11.822   7.666  16.690 -0.0433  0.0564 -0.1943
13518W        W29327  10.968   9.553  13.871 -0.0941  0.1963 -0.0432
13519W        W29328  14.336   5.094  14.160  0.0723  0.0598  0.1490
13520W        W29329  10.246   4.875  15.360 -0.2373  0.2664  0.1108
13521W        W29330  12.553   7.603   6.004 -0.0424  0.0861 -0.0999
13522W        W29331  13.445  10.082   3.091 -0.0226  0.1568  0.1053
13523W        W29332   8.488   5.821  12.673  0.0041  0.2381 -0.1381
13524W        W29333  14.924  17.098  16.362  0.2866  0.0435  0.2526
13525W        W29334  13.292   7.845   6.346 -0.3115  0.0527 -0.1943
13526W        W29335   0.349   3.115   0.642  0.0544  0.0275 -0.1674
13527W        W29336   9.268   0.977  13.175  0.1102 -0.0887  0.0400
13528W        W29337  17.561   7.733  13.612  0.0660  0.2862  0.0510
13529W        W29338   7.000  15.898  14.128  0.1299 -0.0822 -0.1656
13530W        W29339   6.712  16.678  12.837 -0.0186 -0.2891  0.0885
13531W        W29340   1.615  14.201   0.047  0.3382 -0.0432 -0.0252
13532W        W29341   2.935   1.395  13.997 -0.0059 -0.1537  0.3754
13533W        W29342   4.175  11.714   5.866  0.1122 -0.1321  0.1174
13534W        W29343  17.211  13.355  12.883  0.1123  0.3333 -0.2279
13535W        W29344   9.514  10.425   1.626 -0.3482  0.4168  0.0900
13536W        W29345   0.953   0.173  15.906 -0.1434  0.0345  0.1889
13537W        W29346  12.287   5.517   3.772 -0.1239  0.0089 -0.0371
13538W        W29347   9.998  16.021   4.390 -0.0513  0.0125 -0.0577
13539W        W29348  15.600  13.009   0.518 -0.0536  0.0993 -0.1367
13540W        W29349  16.114   8.529  15.965  0.1224 -0.1027 -0.3070
13541W        W29350   5.233   1.152   1.712 -0.0120  0.0469  0.0262
13542W        W29351  16.804   2.277  14.631  0.0635 -0.1851 -0.1582
13543W        W29352   1.813   2.307   0.198 -0.1865  0.0093  0.1028
13544W        W29353  15.246   9.025  12.396  0.1087 -0.2563 -0.2123
13545W        W29354  11.300   1.892  13.182 -0.1964  0.0001 -0.2194
13546W        W29355   3.617   8.463   1.162  0.1790  0.2700  0.2050
13547W        W29356  16.220   5.466   0.399 -0.0048  0.1344 -0.4094
13548W        W29357  12.018  12.314  13.829 -0.1039  0.3191  0.0285
13549W        W29358   2.049   0.625   3.970  0.0503  0.2414 -0.1686
13550W        W29359   4.638   3.293   1.276  0.0211  0.2388  0.0135
13551W        W29360  14.989   3.560   4.433 -0.0303  0.0565  0.1947
13552W        W29361   8.457  13.175  11.915  0.0407 -0.0770  0.1789
13553W        W29362   5.465   2.423   2.231  0.1737 -0.1092 -0.3564
13554W        W29363   3.383  17.259   2.771  0.0333 -0.0779  0.3071
13555W        W29364  14.672  17.689   1.388 -0.1323 -0.1165 -0.0562
13556W        W29365   2.029  13.715   0.674 -0.2465 -0.0081 -0.1854
13557W        W29366  10.199   2.394   0.124 -0.0331  0.0506  0.3689
13558W        W29367   9.874   6.039   0.926 -0.0365 -0.0090  0.2456
13559W        W29368  13.698   1.032  15.701 -0.0201  0.0484  0.2798
13560W        W29369  10.448   7.817   2.359 -0.0318 -0.0083  0.0817
13561W        W29370   5.248   1.185  15.262 -0.1306  0.2534 -0.0380
13562W        W29371  11.842   0.311   1.968  0.1282 -0.1191 -0.3234
13563W        W29372   3.772   9.319   1.081  0.2987 -0.2195 -0.0070
13564W        W29373   8.924  14.551  13.441 -0.0317 -0.0050  0.0856
13565W        W29374  16.118  14.195   4.046 -0.0150  0.2180  0.1871
13566W        W29375   2.000   3.039   3.094 -0.0141  0.4842  0.0741
13567W        W29376  10.168   0.010   2.677 -0.0682 -0.1957  0.0262
13568W        W29377  14.008   2.006   0.559 -0.0946 -0.0350  0.2206
13569W        W29378   0.523  15.229   2.055  0.0421 -0.0547 -0.1682
13570W        W29379   6.306  13.814  15.768 -0.1435 -0.0210  0.0937
13571W        W29380  11.493  13.136  13.507  0.0271 -0.1523 -0.0568
13572W        W29381   1.853   2.784   2.512  0.0859  0.3147  0.3518
13573W        W29382   6.652   2.115  16.773  0.0362 -0.0342  0.1348
13574W        W29383   9.071  17.694   4.486 -0.1083 -0.1784  0.0990
13575W        W29384   0.864   7.271   5.871  0.2549 -0.0525  0.1712
13576W        W29385  10.495  14.302   4.948  0.2099 -0.0281 -0.2939
13577W        W29386  11.283  15.240   4.003 -0.0766  0.1255 -0.0184
13578W        W29387  17.437   1.661   5.442 -0.0313 -0.2238 -0.1030
13579W        W29388  15.010  17.567   0.379 -0.2193  0.2204  0.2747
13580W        W29389  12.066  13.106  14.609 -0.0241 -0.3135  0.1010
13581W        W29390  13.127   9.739   3.409  0.2568 -0.0402 -0.0887
13582W        W29391   2.136   2.108  16.421 -0.2663 -0.4857 -0.0353
13583W        W29392   7.048  13.498  16.748 -0.1500  0.0423 -0.2237
13584W        W29393   8.438   3.302   3.999  0.2002  0.0005 -0.1397
13585W        W29394  13.799   5.843   3.676 -0.0483  0.0716  0.1135
13586W        W29395   3.135   7.244  16.263  0.0872  0.0593  0.0832
13587W        W29396   5.651   9.848   3.602 -0.2742  0.0984  0.1258
13588W        W29397   5.070   4.754  15.921 -0.2403  0.2010  0.2639
13589W        W29398   4.487   3.157  13.061  0.0345 -0.0786 -0.1057
13590W        W29399  11.925  14.981   5.100  0.0554  0.1172  0.0241
13591W        W29400  10.710   8.908   5.994  0.1013 -0.2803  0.0686
13592W        W29401  16.229  14.338   1.524  0.0156 -0.0349  0.0199
13593W        W29402  15.510  13.726   4.904 -0.0021  0.1164  0.1124
13594W        W29403  16.694   8.405   0.493 -0.1083  0.0201 -0.1189
13595W        W29404  11.223   8.384   3.263 -0.1741 -0.2326 -0.4137
13596W        W29405  16.197   8.891   4.328 -0.0531  0.0645 -0.0294
13597W        W29406  14.054   5.410   1.138  0.2590 -0.0815 -0.2080
13598W        W29407  12.585   0.127   4.477  0.2832  0.1540 -0.1184
13599W        W29408   4.687  15.711   3.495  0.2334 -0.0069  0.2957
13600W        W29409  10.555   0.730   3.893  0.1717  0.1037  0.3108
13601W        W29410  14.113  10.380   2.349  0.0231 -0.3366 -0.1933
13602W        W29411   5.307   7.508  12.951  0.0571 -0.0670  0.2417
13603W        W29412  15.522   1.687  13.138 -0.1372  0.2193 -0.2154
13604W        W29413   4.263  15.611  16.575  0.0919 -0.2842  0.0346
13605W        W29414  16.444  16.441  14.243 -0.1125 -0.1213 -0.1610
13606W        W29415   5.604  12.584   0.370 -0.1794 -0.1058 -0.0621
13607W        W29416  11.677  17.670   0.565  0.0570 -0.3061 -0.0683
13608W        W29417   0.423   3.471   1.099 -0.1031 -0.0032  0.3447
13609W        W29418   3.973   9.788   3.772 -0.1163 -0.0284  0.1085
13610W        W29419   5.523   0.759   1.563  0.0021 -0.0682  0.1965
13611W        W29420   8.567   1.782  16.044 -0.0882  0.1927 -0.3656
13612W        W29421   5.457  17.354  13.240 -0.2103  0.0113  0.2414
13613W        W29422  12.627  11.173   0.735 -0.3417 -0.1944  0.2362
13614W        W29423   0.189  15.708  14.901  0.0204 -0.1355 -0.0463
13615W        W29424   0.715   6.458  16.772  0.2319  0.1030 -0.0189
13616W        W29425   6.701  10.444  13.766 -0.0396 -0.0356 -0.0104
13617W        W29426  16.444   7.569  12.341 -0.2738 -0.0290  0.2855
13618W        W29427   1.988   3.835   3.460 -0.2177  0.1654  0.0134
13619W        W29428  15.842   8.131   2.544  0.0840 -0.1994 -0.0525
13620W        W29429   3.019   6.735   5.509  0.1934  0.0451 -0.2726
13621W        W29430   5.246  17.675   6.345 -0.1103 -0.0421  0.2599
13622W        W29431  14.385  12.957  14.995 -0.1957  0.0505  0.1113
13623W        W29432   1.823   1.527   3.838  0.0270 -0.3303 -0.0495
13624W        W29433  16.955  15.148  16.958 -0.0436  0.1852  0.1585
13625W        W29434   7.804   6.215   4.765  0.2043 -0.0350 -0.2249
13626W        W29435   4.521   7.647  13.475  0.1656  0.0344 -0.0574
13627W        W29436  11.788   5.252   5.124 -0.0097  0.0175 -0.0798
13628W        W29437  17.551  14.648  14.082 -0.0448 -0.3895 -0.0360
13629W        W29438   9.383  17.023   0.973  0.1750  0.1163 -0.3422
13630W        W29439  12.133   9.412  15.321 -0.0738 -0.1287  0.1786
13631W        W29440   1.468  10.299  12.087  0.0138 -0.2142  0.0889
13632W        W29441  16.855   8.046  15.361 -0.0288 -0.1399 -0.3288
13633W        W29442   5.898   8.276  15.257  0.0429 -0.0809  0.0415
13634W        W29443  13.158  12.693   1.241  0.1512 -0.2269  0.3252
13635W        W29444  13.213   4.017   4.899 -0.1313  0.1111 -0.0379
13636W        W29445  16.038   0.433  12.689 -0.0490 -0.0972  0.0259
13637W        W29446   3.209  11.467  14.854  0.0438 -0.0447  0.1776
13638W        W29447   7.737  10.476  12.989  0.1865  0.1597  0.2430
13639W        W29448  10.662  15.303   3.526  0.0037 -0.0834 -0.1662
13640W        W29449  14.217  12.554  13.983 -0.0023 -0.1910  0.0437
13641W        W29450  10.406   1.043   0.167 -0.3249 -0.0773  0.0674
13642W        W29451  12.995   5.668  16.070 -0.0621  0.2969  0.2587
13643W        W29452   7.107  11.700   0.512 -0.1284 -0.0165 -0.0728
13644W        W29453   0.479  12.774  16.075  0.1500 -0.0840  0.3002
13645W        W29454  12.897  10.247   0.660  0.0114 -0.0380  0.2164
13646W        W29455  11.586   0.007   2.997 -0.0321  0.3659  0.1197
13647W        W29456  15.983  11.257  16.294  0.2227  0.3028 -0.3087
13648W        W29457   8.319  11.180  13.460 -0.2357  0.0364 -0.1744
13649W        W29458   2.795  10.420   4.091  0.1295 -0.0246  0.2157
13650W        W29459  16.275   4.307   1.819 -0.0983 -0.0241  0.0217
13651W        W29460  16.004   3.297  15.088 -0.2233  0.0006 -0.3111
13652W        W29461   4.516   2.508   3.797  0.1484  0.2433  0.0192
13653W        W29462   2.229   2.417   5.285 -0.2396 -0.0450  0.0582
13654W        W29463  17.042   1.033  14.282  0.1149  0.0737  0.3220
13655W        W29464  10.011  16.470   4.804 -0.4297 -0.3154  0.1215
13656W        W29465   9.362  11.686   1.232  0.0123 -0.2671 -0.0095
13657W        W29466   6.665  17.544   5.242  0.1832  0.1593  0.1149
13658W        W29467  17.005   9.651  13.343 -0.0344 -0.1644  0.2017
13659W        W29468   0.653   5.660   2.739 -0.0537 -0.0016  0.0182
13660W        W29469  13.132  16.044  10.784  0.0886 -0.4061 -0.0712
13661W        W29470  13.806   5.875   4.660  0.1502 -0.1123  0.2458
13662W        W29471   6.705   4.491  12.337  0.1263  0.0298 -0.0767
13663W        W29472  14.125   0.329   2.268  0.1667 -0.0052 -0.1866
13664W        W29473   1.118  16.870   3.370  0.1725 -0.0649 -0.1512
13665W        W29474  15.295   9.771   0.229  0.0079 -0.4078  0.1025
13666W        W29475  16.890  13.008   3.956 -0.0044 -0.1520  0.1277
13667W        W29476  16.218   7.023   0.030 -0.2798  0.2281  0.1529
13668W        W29477  13.911   8.556   1.936  0.0459 -0.0847  0.0498
13669W        W29478  15.916  10.973  11.457  0.1375 -0.1348 -0.2235
13670W        W29479  13.457   2.711  14.082 -0.1904 -0.1659  0.2838
13671W        W29480   4.377   5.732  11.554 -0.0190 -0.2184 -0.1419
13672W        W29481   2.057  16.235  13.963 -0.0232 -0.0747 -0.1256
13673W        W29482   7.126  10.283   5.696  0.1422 -0.0963 -0.2981
13674W        W29483   3.569   3.979  13.417  0.0138  0.0693  0.0422
13675W        W29484  16.929   3.443   1.464 -0.0580  0.0553  0.1927
13676W        W29485   9.053   6.451  12.070  0.2725 -0.0339  0.0006
13677W        W29486  17.587  13.434  13.695  0.5061  0.2349  0.1441
13678W        W29487  10.575   5.966   5.259 -0.3376  0.0482  0.1817
13679W        W29488   7.359  13.972  11.008 -0.0154  0.1477 -0.0824
13680W        W29489   9.499   3.427  14.320 -0.0448 -0.2102  0.2981
13681W        W29490   8.776  11.643  14.145 -0.2993  0.3167  0.2778
13682W        W29491  10.717   6.195   2.755  0.0368  0.1579 -0.1212
13683W        W29492  13.216   7.853  13.362  0.0276 -0.3133 -0.1115
13684W        W29493   5.897  10.959  16.880  0.2390  0.1797  0.2913
13685W        W29494   7.345   8.377   6.233  0.0942  0.1773 -0.4335
13686W        W29495   2.227   5.845  11.895 -0.0153 -0.1945 -0.1487
13687W        W29496   5.284  16.953  16.119 -0.0658 -0.1774 -0.1424
13688W        W29497   8.960   8.628   1.153  0.1776  0.2253  0.1096
13689W        W29498   4.897  15.650  15.147 -0.1038  0.3817 -0.3122
13690W        W29499  14.865  12.574  16.602 -0.1552 -0.0823  0.0215
13691W        W29500   5.894   1.051   2.907  0.0495  0.1522 -0.1861
13692W        W29501  10.752   3.896  16.411 -0.1995  0.0874 -0.5444
13693W        W29502   1.495  12.005  15.508 -0.2260 -0.1243 -0.0105
13694W        W29503  15.578   1.064   0.139 -0.2352  0.0316  0.0006
13695W        W29504  16.998   1.979  13.508  0.1684 -0.6391  0.0765
13696W        W29505  16.742   4.009   2.556  0.0369  0.0046  0.1738
13697W        W29506   7.718   5.738  12.060 -0.1649 -0.0322 -0.1287
13698W        W29507  11.327   2.460   3.399 -0.3159  0.0387 -0.1986
13699W        W29508   7.578   4.711   2.225  0.0557 -0.2737 -0.2755
13700W        W29509   1.344   9.266   5.992  0.2687  0.2993  0.0411
13701W        W29510   0.831  14.307  16.454  0.1842  0.0953  0.1697
13702W        W29511  11.406   7.537  11.990  0.1836 -0.2868  0.0245
13703W        W29512   5.728   1.321   0.929  0.0888  0.1294 -0.1442
13704W        W29513  16.756  14.987  15.672  0.1883  0.2156 -0.0829
13705W        W29514   7.895   3.066   0.590 -0.2526 -0.2217  0.0243
13706W        W29515   0.510   3.946   0.328 -0.0968  0.0260 -0.0602
13707W        W29516  13.876   1.655   2.750  0.1609  0.1064  0.1579
13708W        W29517   6.551  13.442  15.965  0.1083  0.0019  0.0271
13709W        W29518   7.658   8.086   0.397  0.0225  0.0214  0.0073
13710W        W29519   7.359  12.318  14.376 -0.0303 -0.1017 -0.1407
13711W        W29520  10.989   9.651   4.390 -0.2106 -0.0979 -0.0332
13712W        W29521  17.083   7.548   6.183  0.3040  0.0787 -0.0526
13713W        W29522  11.068   8.500   2.279 -0.3011 -0.0113  0.2625
13714W        W29523  10.722   8.190  15.520  0.0305  0.1014  0.0415
13715W        W29524  16.694  10.659   0.503  0.2430  0.2198  0.1086
13716W        W29525   5.420  10.334  16.807  0.0244  0.0551 -0.0543
13717W        W29526   1.548   8.045  12.007  0.0467 -0.1081  0.2382
13718W        W29527   5.140   7.153   3.095  0.2490 -0.2187  0.2198
13719W        W29528  13.768  11.367   3.478  0.2049 -0.0550  0.1748
13720W        W29529  13.420   0.208  15.088 -0.3818 -0.1276  0.1894
13721W        W29530  15.957   5.923   2.598  0.0546 -0.0614  0.0354
13722W        W29531  10.493  10.790  15.871  0.0136  0.3506  0.4371
13723W        W29532  17.449   1.363  14.003  0.0241 -0.0314 -0.2919
13724W        W29533  13.098   6.036   0.626  0.2178 -0.0943 -0.0613
13725W        W29534   6.717   4.818   4.962  0.1218  0.0193  0.2763
13726W        W29535  16.981  11.982  12.620  0.2734  0.4216  0.2291
13727W        W29536  15.787  16.476   0.414 -0.4069 -0.0275 -0.4623
13728W        W29537  15.176  10.890  13.601 -0.1288  0.1159  0.1103
13729W        W29538  14.127  12.190   3.620  0.1534 -0.2252  0.2218
13730W        W29539   8.486  16.587   0.776  0.0021 -0.0533 -0.0215
13731W        W29540   3.917  10.257  15.365  0.0931  0.0115 -0.0065
13732W        W29541   2.617  16.017  12.718  0.1861 -0.1576 -0.3464
13733W        W29542  13.440  12.458  10.366  0.2762 -0.1640 -0.1317
13734W        W29543  17.454  11.272  11.850  0.1818 -0.1093 -0.2807
13735W        W29544  15.618   0.061   3.497 -0.2830 -0.0667  0.0921
13736W        W29545  12.050  10.560  16.170 -0.0453  0.1486  0.1152
13737W        W29546   4.231   1.066  12.013 -0.1167  0.0813 -0.0285
13738W        W29547   1.061  10.693  15.154 -0.1052 -0.0439 -0.3189
13739W        W29548  15.568  13.784  14.255 -0.0812  0.0974  0.1125
13740W        W29549   5.670   0.424   0.472  0.1324 -0.2356  0.1089
13741W        W29550   1.524   6.274  13.213  0.1064  0.1302 -0.0626
13742W        W29551   5.648   3.304  13.438 -0.0644  0.1284  0.0000
13743W        W29552   8.857   1.677   4.295  0.4184  0.0917  0.1477
13744W        W29553   3.675  15.166   4.651 -0.1181  0.1652  0.0954
13745W        W29554   3.435   9.383   1.473 -0.0232 -0.0498  0.3985
13746W        W29555   4.425  14.707   5.431  0.0200 -0.0242  0.4147
13747W        W29556   0.522  12.138  16.674  0.1907 -0.1893  0.2540
13748W        W29557  15.770   8.798  15.233  0.1341  0.1448 -0.2282
13749W        W29558  16.451   6.576  15.130  0.1728 -0.3148  0.1909
13750W        W29559   0.417   6.788  14.091  0.1697 -0.2079 -0.2463
13751W        W29560  15.493  10.433  16.317 -0.1535  0.0130  0.1104
13752W        W29561   6.865   7.962   0.349  0.1537 -0.1501  0.3058
13753W        W29562  10.823   8.209  14.824 -0.0941  0.0633 -0.0784
13754W        W29563   8.224  17.628  14.740 -0.0024  0.1119 -0.2240
13755W        W29564  15.848   1.554  16.167 -0.1089 -0.0570  0.0658
13756W        W29565   7.028  14.917   3.177 -0.0631  0.2493  0.0675
13757W        W29566   7.961  12.193  12.229  0.1862 -0.1816  0.2015
13758W        W29567  17.620  17.658  12.080 -0.4375 -0.2501 -0.0674
13759W        W29568   0.610   8.694  17.005 -0.0070 -0.0643 -0.0307
13760W        W29569  17.572  12.988  11.467 -0.1925  0.0560  0.1212
13761W        W29570  15.998  16.362  16.425  0.0889 -0.1450 -0.0689
13762W        W29571  10.854  13.624   2.704  0.0720  0.0409 -0.0487
13763W        W29572   4.721  14.979  14.706  0.0627  0.1016 -0.1251
13764W        W29573   8.718   2.752  15.215 -0.2588 -0.1408  0.1108
13765W        W29574  12.198  11.238  13.762 -0.1518 -0.0572 -0.1762
13766W        W29575  12.791   6.830   2.617  0.3447 -0.0004  0.1495
13767W        W29576   5.076   0.710  12.639 -0.0578 -0.0484 -0.2446
13768W        W29577  12.094   2.094   3.691 -0.3400 -0.1603  0.0724
13769W        W29578   1.339   4.618   5.516  0.1935 -0.2571 -0.3105
13770W        W29579   7.383  11.185   2.529  0.0834 -0.2464  0.2833
13771W        W29580   0.855   0.741  12.273  0.1584 -0.2290 -0.2280
13772W        W29581   4.777   1.370   3.107  0.0575  0.2627 -0.1232
13773W        W29582   6.128  12.456  15.169  0.0682 -0.2055 -0.0485
13774W        W29583   0.343  16.018  16.903 -0.0997 -0.2064 -0.1308
13775W        W29584  16.377   7.742   1.736 -0.0771  0.0412 -0.1688
13776W        W29585   0.907   1.978   5.121  0.2189  0.3539  0.1114
13777W        W29586   3.493   1.996  16.099  0.1456  0.0340 -0.1430
13778W        W29587   4.714  17.104   1.062 -0.0401 -0.1959 -0.4448
13779W        W29588   7.311  15.267  15.091 -0.3114  0.0654 -0.1613
13780W        W29589   6.318   0.232   2.617 -0.1513  0.2001  0.0541
13781W        W29590  13.749  12.896   4.167  0.1981  0.0628  0.0125
13782W        W29591  13.185  11.684   3.301  0.0446 -0.0221 -0.1492
13783W        W29592   2.675   9.828  14.298 -0.1729 -0.3085 -0.0469
13784W        W29593  11.834   2.128   4.652  0.0603 -0.2249  0.1414
13785W        W29594   5.122   3.051   1.466 -0.2147 -0.0751 -0.2050
13786W        W29595   8.087   0.468  16.352  0.1528 -0.1044 -0.1314
13787W        W29596   8.708   3.917   5.433 -0.0358  0.1376  0.2788
13788W        W29597   2.719   9.797  16.232 -0.1305  0.0611  0.0732
13789W        W29598  13.956   6.448  15.617 -0.1335  0.1599  0.0729
13790W        W29599   2.675  16.253   5.409  0.1509 -0.1039  0.2915
13791W        W29600  16.019  16.106   3.711  0.0971 -0.0965  0.0994
13792W        W29601   8.326  16.619   4.974 -0.0222  0.0067 -0.0423
13793W        W29602  17.312  16.021  13.838  0.2380 -0.3846  0.1152
13794W        W29603   5.947   1.720   1.303  0.2665 -0.0153  0.3243
13795W        W29604   3.184  14.268  12.740  0.2269 -0.2099  0.1034
13796W        W29605  13.182  15.501  15.070  0.1506  0.0828  0.0143
13797W        W29606  15.843   5.906   1.836 -0.3451 -0.3207 -0.2412
13798W        W29607   2.978  12.524  16.513  0.3177 -0.1097 -0.0718
13799W        W29608   2.390  17.434   3.731 -0.1866 -0.0873 -0.0489
13800W        W29609   3.721  13.068  11.500  0.0667 -0.2083 -0.0801
13801W        W29610   7.268  15.056   0.103 -0.1833 -0.2380 -0.0555
13802W        W29611   8.563   3.134  14.411 -0.2959  0.0287 -0.0858
13803W        W29612   6.351  13.033   0.077 -0.0134 -0.1503  0.0092
13804W        W29613  12.665   2.626  14.386 -0.1526 -0.0885  0.1382
13805W        W29614  13.488   6.227  14.059  0.1588 -0.0026 -0.0803
13806W        W29615  17.217  15.510   4.004 -0.0746  0.0206 -0.1083
13807W        W29616  11.997  10.933  11.640 -0.0206 -0.5257  0.1570
13808W        W29617   9.368   6.704  13.792  0.0493 -0.0210 -0.0274
13809W        W29618   5.022  13.149  13.398 -0.2041 -0.1534  0.1273
13810W        W29619  16.181   1.447   3.002  0.1040 -0.2152  0.0615
13811W        W29620  17.724   3.490   6.188  0.2865 -0.1839  0.1066
13812W        W29621   8.976   0.854   3.587 -0.0966  0.0390  0.2307
13813W        W29622  10.515   0.735  16.642  0.0414  0.1134  0.2543
13814W        W29623  16.436   0.348   2.956  0.2066  0.2142  0.0062
13815W        W29624   2.649   6.183  11.400 -0.2199 -0.0277 -0.0747
13816W        W29625  14.387   8.803   1.026 -0.1300  0.0712  0.0143
13817W        W29626  17.222   1.824   0.045 -0.1062  0.4224 -0.2979
13818W        W29627  14.481   7.912   0.925  0.1250  0.1778  0.1754
13819W        W29628   6.224   3.215   5.089  0.0451 -0.1163  0.0797
13820W        W29629  14.333  13.955  13.271  0.0711 -0.2343 -0.2182
13821W        W29630  11.345   7.570  16.706  0.2334  0.0322 -0.0810
13822W        W29631   3.658   6.827   4.811  0.1230  0.1354 -0.1556
13823W        W29632  12.692  12.017   3.176 -0.0904 -0.0449  0.0831
13824W        W29633  11.823   5.027  14.755  0.0249  0.2469  0.1653
13825W        W29634  14.874   7.235   5.887  0.3142  0.0313  0.0671
13826W        W29635   7.436  14.945   0.677  0.4442  0.1891  0.1254
13827W        W29636   0.641  14.758  14.808  0.1883  0.0490  0.0942
13828W        W29637   5.726   8.541   1.997 -0.0299  0.0401  0.1139
13829W        W29638   5.443  12.850  11.433 -0.1583 -0.0408 -0.0701
13830W        W29639   3.525   0.305  14.206  0.3926 -0.0471 -0.0878
13831W        W29640   0.416  14.313   1.467  0.2502  0.0927 -0.0869
13832W        W29641   1.516   9.781  14.950 -0.1590 -0.2670  0.0720
13833W        W29642  11.499   9.844   0.664  0.2703  0.3174 -0.3737
13834W        W29643  12.649  11.080  13.918  0.0520 -0.3829 -0.1715
13835W        W29644   6.663   3.884   5.029 -0.1724 -0.1381 -0.0017
13836W        W29645  11.720   8.370  13.903 -0.1921  0.2009  0.0892
13837W        W29646   9.870   4.442  11.729  0.1769 -0.1853 -0.0083
13838W        W29647  16.923  14.859   0.554 -0.0407 -0.2298 -0.0991
13839W        W29648  12.191   6.042   2.506 -0.0335 -0.0320 -0.2739
13840W        W29649   5.185  12.994  16.645 -0.0405 -0.1284 -0.3697
13841W        W29650   7.907   9.880   4.434  0.3518  0.1968  0.0767
13842W        W29651   4.543   1.775  16.383  0.1391 -0.0484 -0.0910
13843W        W29652   6.200  14.919  12.694 -0.0231 -0.1476 -0.1806
13844W        W29653  13.876  16.629  13.893  0.2542 -0.0030 -0.0111
13845W        W29654  15.131   1.607  11.015 -0.0422 -0.1670 -0.0991
13846W        W29655  14.155  14.555   1.298 -0.0116  0.0641 -0.1023
13847W        W29656  12.483  15.871   3.228 -0.1189 -0.0778  0.0282
13848W        W29657  14.585  10.188  11.923  0.0951 -0.1938  0.3198
13849W        W29658   1.576   8.159   1.363 -0.1409 -0.1390  0.1115
13850W        W29659   8.751  17.341  13.694  0.1195  0.0397  0.1450
13851W        W29660  12.761   0.050   2.152  0.2464 -0.0415 -0.1160
13852W        W29661  13.199   1.402  16.131 -0.1383 -0.3998  0.0293
13853W        W29662   4.035   2.861   2.337  0.3647 -0.2687  0.2950
13854W        W29663  14.447  15.113   4.711 -0.0030 -0.0222  0.3068
13855W        W29664   7.495  17.545  16.400 -0.2358  0.0711  0.1191
13856W        W29665  11.196   2.102  16.681 -0.2026  0.0361  0.0047
13857W        W29666   0.408   9.057  14.078  0.0842 -0.3514  0.1028
13858W        W29667   6.812   1.672  12.777 -0.0846  0.3573 -0.2390
13859W        W29668   7.632   6.023   3.732  0.0054 -0.0649  0.0234
13860W        W29669  17.075   1.119  13.632 -0.1481 -0.0600 -0.1643
13861W        W29670   5.980   0.905  14.167 -0.2872 -0.0689 -0.1835
13862W        W29671  10.179  10.284   0.590 -0.0853 -0.3566 -0.2837
13863W        W29672  11.578   5.543   2.677 -0.2228 -0.1240 -0.0354
13864W        W29673  10.298   3.646   2.514 -0.2808 -0.1855  0.0950
13865W        W29674   2.794  10.574   1.897  0.0200 -0.2623  0.1537
13866W        W29675  11.962   9.353   2.880 -0.3021  0.4120 -0.1721
13867W        W29676   1.348   0.551  12.900  0.0089  0.2247  0.0852
13868W        W29677  11.839   2.641  16.545 -0.0035 -0.0986  0.0064
13869W        W29678   0.247  10.239   0.477  0.0306 -0.1619 -0.1303
13870W        W29679   2.414   9.019  15.659 -0.0717 -0.0146  0.0192
13871W        W29680   5.055  16.049  16.818  0.1591  0.2120 -0.0852
13872W        W29681   4.789   2.718   1.635 -0.0580 -0.3724  0.1652
13873W        W29682   5.352   9.242  15.879 -0.1938  0.1229  0.0907
13874W        W29683   8.453   7.657   3.196 -0.0196 -0.0655  0.0680
13875W        W29684  17.177   3.333  15.387 -0.4916 -0.0862 -0.0225
13876W        W29685   5.665   9.999   1.859 -0.0467  0.0536  0.1377
13877W        W29686   0.629   8.870   5.638 -0.0077 -0.2245 -0.1947
13878W        W29687  15.013  13.092   6.338  0.0722 -0.2018  0.2633
13879W        W29688  13.082  12.312  11.793 -0.1485  0.1858 -0.0901
13880W        W29689  17.686   7.494  15.938  0.0141 -0.0446  0.0943
13881W        W29690   6.674   6.792   6.223  0.0484 -0.0735  0.1060
13882W        W29691   8.050   9.110  16.461  0.1171 -0.0408  0.1326
13883W        W29692   2.457   6.166  14.446 -0.2667 -0.2632  0.3589
13884W        W29693   5.077  15.830   5.704 -0.0258  0.0090  0.0247
13885W        W29694   6.734  15.326  16.327  0.0448 -0.0414 -0.0651
13886W        W29695  17.587  11.622   3.055  0.1096  0.0731 -0.0414
13887W        W29696   5.309   1.211   3.394 -0.4005  0.0404 -0.2108
13888W        W29697   3.430  14.016   3.800  0.0325 -0.0366  0.0575
13889W        W29698  12.187   9.083   2.467 -0.0343  0.1594 -0.0089
13890W        W29699  17.570   8.211   4.765 -0.1321 -0.2065 -0.3421
13891W        W29700   0.768   3.573  14.834  0.1386  0.1872  0.0980
13892W        W29701  17.145  15.373  16.217  0.1266  0.1330 -0.1080
13893W        W29702   5.316  14.980  14.089 -0.0635 -0.1660 -0.0923
13894W        W29703   3.481   6.141   5.065 -0.2077 -0.1115  0.0356
13895W        W29704  14.080  13.832  15.854 -0.4249 -0.0856 -0.1753
13896W        W29705  16.659  15.553   1.430 -0.1248 -0.2038  0.2499
13897W        W29706   7.025   4.507  12.776  0.0583  0.0925 -0.1668
13898W        W29707   5.218  12.239   1.607  0.0683  0.1854 -0.0499
13899W        W29708   6.261  15.168  13.176 -0.0711 -0.2309 -0.3697
13900W        W29709   3.825  15.025  14.293 -0.1287 -0.1368  0.0676
13901W        W29710  10.683   8.473   1.441 -0.0168 -0.2635  0.0887
13902W        W29711  14.352   6.592   2.281  0.0606  0.0747 -0.0305
13903W        W29712   6.449   4.099   3.089 -0.3449  0.0401 -0.1245
13904W        W29713  13.080   5.618   5.683 -0.0677  0.0867 -0.3420
13905W        W29714  11.736  11.665  11.092 -0.2530  0.2910  0.1105
13906W        W29715  17.374   5.425   0.294  0.2869 -0.1205 -0.1310
13907W        W29716  12.424   2.453   5.634  0.1220  0.1333 -0.3646
13908W        W29717   2.156  11.783  12.540 -0.0725 -0.0154  0.0525
13909W        W29718   5.570   4.739  12.225 -0.3777 -0.0542 -0.2844
13910W        W29719  16.094  10.699   2.048  0.2169  0.1311  0.0391
13911W        W29720   8.397   3.056  13.113 -0.0228  0.0940  0.3329
13912W        W29721   5.789   7.336   2.460  0.2597 -0.1430 -0.0087
13913W        W29722  14.200   5.877   3.933  0.2706 -0.0033  0.0623
13914W        W29723   9.371  11.217   2.237  0.0775 -0.2856  0.0068
13915W        W29724   5.305   3.063   4.776  0.0188  0.1627 -0.1140
13916W        W29725   7.312  11.235  12.409  0.0469  0.1827 -0.0243
13917W        W29726   9.717  15.390   1.762  0.1010  0.0889  0.0066
13918W        W29727   7.009   6.575  16.425 -0.1409  0.2970 -0.3414
13919W        W29728   4.371   0.629  15.341  0.1185  0.0521 -0.3189
13920W        W29729  11.022   4.356  14.510 -0.1186 -0.1652 -0.1194
13921W        W29730   8.073   4.165  11.360 -0.0885  0.3751 -0.1775
13922W        W29731  13.715  11.607  11.395 -0.0916  0.0754 -0.2843
13923W        W29732  11.717   3.975  14.297  0.2920 -0.1654 -0.0220
13924W        W29733   7.004   7.680   2.458 -0.2190  0.1628 -0.4275
13925W        W29734   8.694  17.258  12.380  0.0683  0.2092  0.0861
13926W        W29735   9.879   6.176  12.449  0.3454  0.0470  0.2299
13927W        W29736  17.046   7.244   3.886  0.0078 -0.2076  0.1473
13928W        W29737   3.767   1.467   1.261  0.2245  0.2544 -0.3548
13929W        W29738   2.568   4.487  12.088 -0.1332 -0.1093  0.4717
13930W        W29739  14.757  15.757   4.445 -0.1297 -0.2215 -0.0173
13931W        W29740  14.760  13.119  13.323 -0.0782 -0.1635  0.2478
13932W        W29741   7.800   4.049  14.620  0.0577  0.0325  0.2276
13933W        W29742   6.033   3.087   4.636 -0.3351  0.0927  0.0685
13934W        W29743  12.083   7.609   6.142  0.1375 -0.0979 -0.0548
13935W        W29744  15.638   6.287   3.363  0.0632  0.1674  0.1655
13936W        W29745   0.108   3.377  16.852 -0.0188 -0.0166  0.2095
13937W        W29746  11.614  16.979  15.211 -0.0180 -0.0740 -0.1090
13938W        W29747  12.030  14.349   3.467 -0.0775 -0.0763  0.0412
13939W        W29748   8.974   7.266   5.672  0.1389 -0.0428  0.2263
13940W        W29749   2.029   9.095  14.100 -0.2265 -0.2914 -0.0375
13941W        W29750   2.687  16.511   4.963  0.0823  0.0598  0.1225
13942W        W29751  16.300   9.403  11.618  0.4565 -0.0892  0.1346
13943W        W29752   3.990   1.247  14.883 -0.0204  0.1869  0.2674
13944W        W29753  14.881   5.103  16.776  0.2340  0.4495  0.2510
13945W        W29754  11.702   4.576  11.243 -0.2445  0.2069  0.0747
13946W        W29755  13.716   1.662   0.703  0.1007 -0.0260 -0.0716
13947W        W29756  16.856  14.719   4.502  0.0617 -0.0204  0.0464
13948W        W29757   7.649  13.589  12.281  0.1488  0.0874 -0.0958
13949W        W29758  10.881  13.504  16.746  0.1303 -0.1156 -0.0787
13950W        W29759   2.947   4.670   6.311  0.0634  0.1011  0.0897
13951W        W29760  17.102  13.703   0.157  0.0362 -0.1422  0.0359
13952W        W29761   7.600  11.364  15.433  0.0001 -0.0202 -0.2277
13953W        W29762   7.584  14.183  14.673  0.1287  0.0151 -0.1705
13954W        W29763   4.456  12.671   4.730  0.0588 -0.1243  0.3034
13955W        W29764   0.724  13.867   5.905 -0.2022 -0.1731 -0.2600
13956W        W29765  14.849   2.737  16.885  0.0559 -0.1987  0.2476
13957W        W29766  14.840  16.430  14.664 -0.2139 -0.2905 -0.4576
13958W        W29767   1.181   3.696   3.919  0.2432 -0.1228  0.1089
13959W        W29768  11.481   7.320   5.294 -0.0584  0.3851 -0.0361
13960W        W29769   2.586   0.445  16.295  0.1459  0.2256  0.0267
13961W        W29770  12.617   8.503  13.066  0.2134 -0.1761  0.2149
13962W        W29771   8.838   0.911   2.466 -0.2029  0.0150  0.0495
13963W        W29772  11.738   4.917   6.046 -0.1436 -0.0732  0.0669
13964W        W29773  13.151  13.415   1.774  0.4269 -0.0310  0.2381
13965W        W29774   9.149  10.109  14.658  0.2420  0.1193 -0.0608
13966W        W29775   7.790   2.931  13.879 -0.0091 -0.4149 -0.0909
13967W        W29776  12.940  17.036  16.964  0.0843 -0.0983 -0.0746
13968W        W29777   7.996   9.718   2.292  0.0151  0.2016  0.0622
13969W        W29778  17.197   4.199   3.743 -0.0215 -0.1109 -0.0021
13970W        W29779  17.558   8.547   3.961  0.3661 -0.0754 -0.2159
13971W        W29780   8.927   7.465  11.908  0.0476 -0.1399  0.0446
13972W        W29781   3.702   3.352  14.192  0.0001 -0.0814  0.0072
13973W        W29782   9.782   0.085  15.312  0.2304  0.1055 -0.3184
13974W        W29783  10.252  16.919   3.766  0.0885  0.1532  0.0811
13975W        W29784  17.156  12.705   0.452 -0.1207 -0.2716  0.1236
13976W        W29785   2.330   0.786   5.593  0.0558  0.3635  0.0514
13977W        W29786   6.543  17.099   2.795  0.0842  0.2509  0.0304
13978W        W29787  11.533  11.548   1.884  0.1549 -0.1170 -0.1525
13979W        W29788   8.057   2.171   5.840  0.2461 -0.0578 -0.2108
13980W        W29789  14.386   3.382   2.548 -0.1537  0.1602  0.0551
13981W        W29790  10.991   7.047   3.460  0.0583 -0.3194 -0.1136
13982W        W29791   9.345  14.549   5.638 -0.0276  0.1390  0.0608
13983W        W29792   4.405  11.835   4.894  0.0390 -0.2082 -0.2684
13984W        W29793  14.514  12.101  13.120 -0.2124 -0.0463  0.0663
13985W        W29794  12.162   4.087   6.158  0.1572  0.4281  0.3496
13986W        W29795   2.814   5.979   3.506  0.3844  0.1394 -0.0562
13987W        W29796   2.364  12.040   3.275 -0.2094 -0.3348 -0.0636
13988W        W29797   7.745  14.869  11.321 -0.0003 -0.0365 -0.1514
13989W        W29798   4.199  13.311   3.954 -0.1402  0.1686 -0.0683
13990W        W29799  14.879  11.130   3.991  0.3635 -0.0998  0.2086
13991W        W29800   2.364   2.652   6.001  0.3263  0.0161  0.1398
13992W        W29801   8.904   4.217  12.165 -0.1672  0.0786  0.2839
13993W        W29802   4.223   2.734  14.575 -0.2635  0.3397  0.1939
13994W        W29803  14.659  11.009   1.777  0.1377 -0.1898  0.0749
13995W        W29804  10.427  15.650  13.882  0.1892 -0.2021  0.0375
13996W        W29805   2.292  14.500  13.747 -0.2228 -0.1175  0.0334
13997W        W29806   0.680  10.696   1.097 -0.2548  0.1872 -0.0263
13998W        W29807   2.161  10.270  11.640  0.4745 -0.0094 -0.1898
13999W        W29808  11.031   4.058   5.021  0.1272  0.0779  0.0234
14000W        W29809   1.365  16.377   1.693 -0.2864  0.0979  0.3167
14001W        W29810   3.576   6.773  15.804  0.1654 -0.1969 -0.2981
14002W        W29811  13.497   7.003  11.624  0.3568 -0.0282 -0.0721
14003W        W29812  10.889   5.495   5.983  0.1431  0.1628 -0.2109
14004W        W29813   5.536   6.829  13.490  0.1231  0.0786 -0.2144
14005W        W29814   2.174   3.770  11.599  0.0117  0.0885 -0.0860
14006W        W29815   3.998  12.512  16.161  0.0271  0.2519  0.0166
14007W        W29816   2.077   4.218   3.078  0.3432  0.0352  0.1702
14008W        W29817   4.037  17.304   0.115 -0.0174 -0.1693 -0.2220
14009W        W29818  11.453   1.883   5.606  0.0187  0.0325 -0.0697
14010W        W29819   4.251   3.506  13.819 -0.1250 -0.2164 -0.0856
14011W        W29820   3.284   8.815  13.881  0.0634 -0.0053 -0.1291
14012W        W29821   0.623  15.480  14.765 -0.1043  0.0356 -0.2168
14013W        W29822   6.642  13.697  14.203  0.2609 -0.0708 -0.2466
14014W        W29823   0.375   6.586  16.434 -0.1902 -0.0865  0.2876
14015W        W29824  17.190  13.733  16.085 -0.0561  0.3153 -0.0308
14016W        W29825   1.333  13.587   3.280 -0.2054  0.1723 -0.3110
14017W        W29826   2.938   9.201  13.918  0.0831  0.1174 -0.0171
14018W        W29827   7.522  17.129   0.947  0.0603 -0.2346 -0.2712
14019W        W29828   8.377   0.427   3.981 -0.1412  0.1219  0.2912
14020W        W29829   9.304  11.599   3.601 -0.2840 -0.1603 -0.0392
14021W        W29830  12.477   1.902   1.213 -0.2031  0.0780 -0.0053
14022W        W29831   8.288  14.220  12.977  0.1994 -0.2027  0.2258
14023W        W29832  16.032   9.166   5.246  0.1007  0.0016 -0.2264
14024W        W29833  11.147  14.417   1.657 -0.0660  0.1386 -0.0771
14025W        W29834  16.488  14.689  15.319  0.3605 -0.2422  0.0924
14026W        W29835   1.586  16.685   4.253  0.1084 -0.0882 -0.0829
14027W        W29836  11.808  16.683  13.837  0.3510  0.1970  0.0808
14028W        W29837  10.285   1.116   2.366  0.1664 -0.0984  0.1030
14029W        W29838  17.607   9.065   3.237  0.1223  0.0439 -0.0320
14030W        W29839   8.967  13.092   2.744  0.2995  0.0300 -0.0140
14031W        W29840   6.065   5.391  14.429 -0.0581 -0.3964  0.1505
14032W        W29841   1.872   8.948   1.184 -0.3059  0.1801  0.3270
14033W        W29842   2.592  12.797   1.353  0.0458 -0.3296 -0.1556
14034W        W29843  11.033  15.121  13.164 -0.0385 -0.2697 -0.3786
14035W        W29844  16.300  10.856   4.184 -0.2890 -0.3305 -0.0592
14036W        W29845   1.227   8.079  14.605 -0.0893  0.1763 -0.3194
14037W        W29846   3.192  16.756  15.834  0.0247 -0.0046  0.0163
14038W        W29847  15.050   9.261   1.396  0.1130  0.1057 -0.0336
14039W        W29848  11.677   2.132   5.204  0.3370 -0.0397  0.4267
14040W        W29849   2.163  16.488  12.004  0.2877  0.0470 -0.0602
14041W        W29850   6.751   9.190  16.640  0.3003 -0.2921 -0.2433
14042W        W29851   1.672   6.147   1.842  0.0012  0.2792 -0.0360
14043W        W29852   2.648  12.394  11.678 -0.2942 -0.1667 -0.0924
14044W        W29853   1.331   8.727   1.287 -0.2322 -0.2053  0.2802
14045W        W29854  16.172  10.580   2.498  0.1857 -0.2187 -0.1274
14046W        W29855  14.642   2.111  16.797 -0.2298 -0.1250 -0.0647
14047W        W29856   7.519  15.208  14.514  0.3428 -0.2744 -0.2083
14048W        W29857   0.008  15.187  15.002  0.0536  0.3572 -0.0129
14049W        W29858  16.274   4.917   2.595 -0.4238  0.1525  0.0832
14050W        W29859  13.506   0.042   2.943 -0.0405  0.1707 -0.0541
14051W        W29860   9.598   5.790  13.327 -0.0164  0.1117 -0.1697
14052W        W29861  12.360  11.227  15.367  0.0059  0.0361  0.0069
14053W        W29862  12.973   6.028  13.165 -0.0228  0.2331  0.1579
14054W        W29863  12.108   6.537   3.758  0.0263 -0.3421 -0.1202
14055W        W29864   0.935   1.522   3.540  0.1162  0.2069  0.2352
14056W        W29865  15.429  15.351   1.710  0.1626 -0.0850  0.2149
14057W        W29866  10.398   6.552  16.340 -0.0684 -0.0673 -0.1343
14058W        W29867  14.064   8.138  12.562 -0.0694 -0.0795  0.2250
14059W        W29868  13.994   0.583   5.182  0.2009 -0.0598  0.1944
14060W        W29869   1.292   5.315  13.264 -0.0169  0.0740  0.1390
14061W        W29870   6.048   5.808  12.075 -0.0004  0.0994 -0.1875
14062W        W29871  16.316  11.449  15.884  0.0202  0.0184  0.4420
14063W        W29872   6.720  10.576  11.449 -0.1055 -0.2361 -0.0773
14064W        W29873  14.273   4.596   1.673  0.1732  0.2495 -0.0034
14065W        W29874  16.656   6.180  16.087 -0.1547  0.3573  0.1248
14066W        W29875   3.268  10.875   3.543 -0.1046 -0.1402  0.0085
14067W        W29876  12.509   1.132  12.340 -0.0355 -0.2674 -0.1007
14068W        W29877  10.915  10.968  16.832  0.0806  0.1201  0.1523
14069W        W29878   6.329   3.026   3.776 -0.1095 -0.0754  0.1654
14070W        W29879  16.076   2.950  14.184  0.0406  0.2269  0.1745
14071W        W29880   6.484   2.680   1.180  0.1469 -0.0267 -0.2514
14072W        W29881  12.716  13.928   3.081  0.2361 -0.0681  0.1423
14073W        W29882   8.022  15.726   0.586  0.2902 -0.1287  0.1594
14074W        W29883   5.499   9.322   5.782 -0.1003  0.1900 -0.2913
14075W        W29884   0.320   7.159  16.226  0.0717  0.0392 -0.1058
14076W        W29885  11.858  13.893   3.553  0.1156 -0.1782  0.0052
14077W        W29886   1.641  10.167  13.312  0.1813 -0.3885  0.1089
14078W        W29887   7.742  17.426   3.191 -0.2838 -0.0207 -0.0924
14079W        W29888   3.553   6.727   1.033  0.1069  0.4598  0.1890
14080W        W29889   2.482   3.156   3.438  0.0535  0.2483  0.0016
14081W        W29890  17.594  13.066   5.406  0.0896 -0.1127 -0.0551
14082W        W29891  17.546   6.302   4.679  0.0141 -0.2194  0.2913
14083W        W29892  10.385   6.705   3.436 -0.1669  0.1165 -0.2022
14084W        W29893   6.933   3.707  13.720  0.0263 -0.1063 -0.1176
14085W        W29894  14.647   7.107   2.283 -0.1237 -0.0360  0.1933
14086W        W29895   3.980  13.625  16.653 -0.0678 -0.0208 -0.0523
14087W        W29896   2.175   5.735   4.790 -0.0641 -0.0413 -0.0629
14088W        W29897  16.809   8.371  14.605 -0.0570 -0.3007 -0.1470
14089W        W29898   8.840  10.743   1.117  0.1197 -0.1334 -0.0456
14090W        W29899   3.379   0.447   2.937  0.2820  0.0137  0.1295
14091W        W29900  12.725   4.479  16.023  0.1432  0.1680  0.2681
14092W        W29901   0.309   4.055   2.978  0.0174  0.0442  0.1601
14093W        W29902   9.580  15.391  15.391 -0.1347  0.0515  0.0870
14094W        W29903   6.004   8.637   2.448 -0.0598 -0.1932  0.1213
14095W        W29904   5.801  13.247  16.979  0.0396  0.1409 -0.0910
14096W        W29905   9.305   3.155  16.263  0.2958  0.0299  0.0168
14097W        W29906   7.347  17.305   0.089 -0.1141  0.2189  0.2370
14098W        W29907   5.823   6.256   3.752  0.0557 -0.0118  0.1995
14099W        W29908   8.842   7.761  14.886 -0.0497 -0.2366  0.1278
14100W        W29909   9.111  16.006   3.921 -0.2543  0.3106 -0.2428
14101W        W29910   2.593   7.862  15.949  0.0898  0.0586 -0.3237
14102W        W29911  16.480   1.925   3.035 -0.0559  0.1052 -0.1392
14103W        W29912  15.004   4.217   0.697 -0.0220 -0.2093  0.1869
14104W        W29913   2.986  12.446   0.078  0.2079  0.0415 -0.0106
14105W        W29914  15.001   9.936  12.127  0.1215 -0.0160  0.0256
14106W        W29915  12.829   8.137  12.702  0.0423 -0.1064 -0.1553
14107W        W29916   4.723  16.227  11.636  0.2116 -0.0360 -0.2467
14108W        W29917  11.587   2.580   4.643  0.0458  0.1575 -0.0316
14109W        W29918   5.945  14.322   4.492  0.5511  0.1592 -0.0382
14110W        W29919   9.478  15.480  13.056  0.0966  0.0384 -0.0762
14111W        W29920  14.569   2.577   4.997  0.1333 -0.0115  0.0837
14112W        W29921   6.714   2.079  15.940  0.0013 -0.0773  0.0941
14113W        W29922   4.236  11.389  11.935  0.1000  0.1046 -0.1097
14114W        W29923   5.688   6.307   6.441 -0.0379  0.0566 -0.0801
14115W        W29924  13.593  10.811  16.439 -0.2948 -0.0950 -0.0968
14116W        W29925  17.701  15.397   2.138  0.0263  0.1005  0.1302
14117W        W29926   4.026  11.054   0.897  0.3263 -0.2841 -0.1267
14118W        W29927   4.023   3.289   1.618  0.1633 -0.0637  0.1939
14119W        W29928   0.106   3.201  12.572  0.1485  0.1667 -0.1510
14120W        W29929  10.191  11.472  14.721  0.1407  0.2229  0.0659
14121W        W29930  11.394   6.010  13.327 -0.0901 -0.0005 -0.0992
14122W        W29931   0.862  16.820  12.748  0.1338 -0.0456 -0.1371
14123W        W29932  15.516   5.035  13.188 -0.1456 -0.0971 -0.0666
14124W        W29933  17.543   8.467  12.887  0.2807 -0.0511 -0.0159
14125W        W29934   2.411   6.894   0.101  0.2327  0.1411 -0.0631
14126W        W29935  10.492   9.337  11.818  0.1915 -0.2137 -0.1283
14127W        W29936  17.226   2.730   6.246  0.0128 -0.2590  0.5205
14128W        W29937   4.419   8.558   6.200  0.0920  0.1273 -0.2262
14129W        W29938   0.008  16.037   0.773  0.1630  0.1942 -0.2470
14130W        W29939  11.066  14.666  12.176  0.1185 -0.1279 -0.2913
14131W        W29940  12.598  16.782   5.385  0.1048 -0.3517 -0.1003
14132W        W29941   9.873   9.135   1.401 -0.0576 -0.3644 -0.4001
14133W        W29942  14.307  12.899   2.751 -0.0802  0.0005 -0.1114
14134W        W29943   7.842  16.869  15.776 -0.1574 -0.1996 -0.1060
14135W        W29944  16.107  16.216   0.744  0.0741  0.1024 -0.0864
14136W        W29945   7.262   9.007   3.479  0.3244  0.0148 -0.1702
14137W        W29946  14.437   8.587   2.168  0.2015  0.0975 -0.1335
14138W        W29947  14.398  15.137  14.749  0.3680  0.0632  0.3854
14139W        W29948   7.256   7.498   3.579  0.1559 -0.0025 -0.1985
14140W        W29949   1.175  11.660  12.323 -0.2980  0.0700  0.1091
14141W        W29950  16.002   5.643  13.654  0.2483  0.3591 -0.0345
14142W        W29951   2.308  17.333   4.666  0.3250  0.2995 -0.0784
14143W        W29952   8.592  10.100   3.239  0.2745 -0.0236 -0.0172
14144W        W29953  11.613   4.893  14.029 -0.0908  0.1998 -0.1577
14145W        W29954   9.594  12.413  14.535 -0.1343  0.0768 -0.1173
14146W        W29955   4.941   1.780   1.203  0.4140  0.0205  0.1109
14147W        W29956  17.375   1.509   1.570 -0.1835  0.1408  0.3252
14148W        W29957  13.868  17.438   2.907  0.0533  0.1663 -0.1349
14149W        W29958   9.907   9.841  14.133  0.0573 -0.1072  0.1684
14150W        W29959  14.550   7.408  13.016 -0.0246  0.1688  0.0751
14151W        W29960   8.010   1.747  16.361 -0.1957 -0.0255 -0.0356
14152W        W29961   6.336  17.064   2.093 -0.0758 -0.0127  0.1731
14153W        W29962  12.308   9.727   0.112  0.1183 -0.0220  0.0122
14154W        W29963   3.166   1.210   0.291  0.2768  0.1464 -0.0329
14155W        W29964  11.951   4.029  11.922 -0.0164  0.2651 -0.1062
14156W        W29965   5.466  12.801  15.632  0.0492  0.0883  0.0299
14157W        W29966   1.772  13.315  15.338  0.0134 -0.0424  0.1218
14158W        W29967   5.403  16.456   4.724  0.2292 -0.2398 -0.5906
14159W        W29968  12.689  15.068   4.438  0.0793  0.0345 -0.0045
14160W        W29969  13.529  10.956  13.413 -0.0079  0.5297  0.1096
14161W        W29970  10.674  12.685  11.011  0.4338 -0.1191 -0.0757
14162W        W29971   5.457  16.280  15.735  0.1441  0.0873  0.1513
14163W        W29972   1.500   6.693  13.476 -0.2561  0.4926 -0.0106
14164W        W29973  15.502   0.656  16.124 -0.0403  0.1172 -0.1351
14165W        W29974   8.677   0.357   4.774  0.1275 -0.0625 -0.1587
14166W        W29975   1.391  12.073  12.780  0.2637 -0.0818 -0.0606
14167W        W29976  13.317   1.516  15.625 -0.0867  0.4315 -0.2243
14168W        W29977   1.413  14.795  15.982 -0.0791 -0.1220 -0.1478
14169W        W29978   7.625  13.998  15.499 -0.0372 -0.0318 -0.0835
14170W        W29979  12.157  15.405   3.662 -0.0159 -0.1201  0.1414
14171W        W29980   7.302  15.537   2.704  0.0587  0.1068 -0.1150
14172W        W29981   6.832   0.428  14.601  0.2349 -0.2282  0.3278
14173W        W29982  13.573  13.708  11.480 -0.0604  0.2755  0.0372
14174W        W29983   4.569   7.905   1.790  0.0176 -0.0855  0.0391
14175W        W29984  16.122  11.357  11.722  0.0250  0.1218 -0.0555
14176W        W29985  10.374  15.649   1.180 -0.0101 -0.1452  0.3589
14177W        W29986  14.967  16.438   1.537  0.1568 -0.1702  0.0176
14178W        W29987   8.083  12.482  12.851 -0.1228 -0.0458 -0.2334
14179W        W29988   4.697  13.600  14.395 -0.2661 -0.0523  0.0499
14180W        W29989  11.595   5.757   0.673 -0.2756  0.1950  0.2631
14181W        W29990  10.718   6.097  12.082  0.2930  0.0565 -0.1574
14182W        W29991  17.574  14.587   5.988  0.1419 -0.0552 -0.1131
14183W        W29992   2.000   3.073   5.235  0.1467  0.1199 -0.1238
14184W        W29993   9.853  14.886  14.564  0.0957  0.1479 -0.0231
14185W        W29994   6.691  10.848  11.871  0.4958  0.0339  0.0731
14186W        W29995   8.887  10.640  12.970 -0.0637 -0.2294  0.0515
14187W        W29996   0.135  12.323  15.898  0.1192  0.0792 -0.6427
14188W        W29997  13.626  14.057  16.356 -0.1409  0.0056  0.0103
14189W        W29998   4.620   6.313   3.145 -0.2185  0.2302 -0.2321
14190W        W29999   5.378  13.222   4.719  0.0745 -0.0012 -0.0846
14191W        W30000  14.928   0.664  16.774 -0.1511 -0.3299 -0.1291
14192W        W30001   9.810   3.035   1.787 -0.0993 -0.0496  0.0358
14193W        W30002   1.795   3.166   5.760 -0.1445  0.1094 -0.2013
14194W        W30003   8.667  11.160  15.634 -0.1853 -0.1620  0.2039
14195W        W30004  15.812   9.806   3.311 -0.1664 -0.1331  0.0843
14196W        W30005   4.224   3.583   2.702 -0.0292  0.2585  0.2059
14197W        W30006   4.953   8.725  14.239  0.0693 -0.1158  0.0464
14198W        W30007  11.775   8.275   6.234  0.1289 -0.1877 -0.0486
14199W        W30008  15.524   9.323   4.487  0.0029  0.4468 -0.1022
14200W        W30009   8.939   0.887   4.498 -0.4117  0.0541  0.0412
14201W        W30010   3.328   7.318   4.949 -0.2481  0.2906 -0.0409
14202W        W30011  16.749  17.310   0.984  0.0156  0.1660 -0.2340
14203W        W30012  14.706  12.371  16.978  0.3067  0.2707 -0.2592
14204W        W30013   8.434  14.666  16.844 -0.2174 -0.2947 -0.0573
14205W        W30014  12.483   4.944   3.060  0.3146 -0.1512 -0.0015
14206W        W30015  16.219   1.295   4.146  0.1253  0.0239 -0.1390
14207W        W30016   3.762   5.863  12.359  0.0551 -0.1498  0.1527
14208W        W30017   9.396  10.618   3.019  0.0716 -0.3127 -0.0757
14209W        W30018   0.680  15.800  11.295 -0.1468 -0.0170  0.1484
14210W        W30019   5.817   0.340   2.494 -0.0331  0.1012 -0.0683
14211W        W30020  14.278  14.262   3.074  0.1611  0.1373  0.0757
14212W        W30021   0.815   5.509  15.899 -0.1514 -0.0966  0.0167
14213W        W30022   2.992   8.506  13.124 -0.0198 -0.1443  0.2387
14214W        W30023  17.381   8.976   1.394  0.0695 -0.1799 -0.0813
14215W        W30024   3.737  16.849  16.498  0.0327 -0.2307 -0.0727
14216W        W30025  10.400   1.458  15.403  0.3384  0.0263 -0.0349
14217W        W30026  15.262   6.710   1.891  0.0776 -0.0786 -0.0980
14218W        W30027   4.922   2.818  14.359  0.1030 -0.0732 -0.3139
14219W        W30028  14.788   5.118  11.537 -0.1215 -0.0692 -0.1869
14220W        W30029   5.931  14.848   3.267 -0.0818  0.2606 -0.3329
14221W        W30030   6.634  11.836  14.621 -0.0607 -0.0823 -0.0280
14222W        W30031   3.895   1.774  14.841 -0.1815  0.0761 -0.1472
14223W        W30032   8.680   9.607   5.243 -0.0374  0.1076  0.1815
14224W        W30033  14.299  12.241   5.768 -0.1292  0.0372 -0.0821
14225W        W30034  14.759   4.384   2.344  0.1436 -0.2971 -0.1492
14226W        W30035   4.257  10.612  16.282 -0.0423 -0.0942 -0.3519
14227W        W30036   5.009   3.595  15.222 -0.0617 -0.0885 -0.1333
14228W        W30037  13.173   4.511  13.190 -0.3832 -0.3779 -0.0535
14229W        W30038   7.672   4.248  15.895  0.0501 -0.0898 -0.2090
14230W        W30039   8.217   6.401  15.695  0.3555 -0.3451 -0.0317
14231W        W30040   8.667  12.470  15.084 -0.1657  0.0821 -0.0301
14232W        W30041   7.217   9.706   2.921  0.0733  0.6338  0.3044
14233W        W30042  12.847  12.845   0.934  0.0104 -0.2651  0.1844
14234W        W30043  16.530   4.285   5.868 -0.3019 -0.0169 -0.1446
14235W        W30044   0.982   7.715  14.395 -0.2418  0.0664 -0.0811
14236W        W30045   1.568  12.709   2.589  0.0323  0.5765  0.3042
14237W        W30046  11.959  14.985  14.770 -0.0094 -0.3272 -0.1140
14238W        W30047   6.087   3.455   0.896  0.2604 -0.0659  0.1380
14239W        W30048  11.765  10.391   1.449 -0.1884  0.2809 -0.1502
14240W        W30049   4.184  15.968   1.242 -0.1894 -0.1157 -0.2766
14241W        W30050   2.041   0.280   3.356 -0.4067 -0.0696  0.0152
14242W        W30051  15.026   1.332   4.347  0.2989 -0.0953  0.1398
14243W        W30052  12.684  10.434   2.979 -0.5049  0.2464  0.0448
14244W        W30053  15.958  12.010   1.454  0.1702  0.2905 -0.1085
14245W        W30054  14.028   8.799  15.434 -0.0276  0.2236 -0.0339
14246W        W30055   1.571   0.026   2.465 -0.1395  0.1352  0.1756
14247W        W30056   1.168  16.717  12.337  0.0269  0.0802 -0.1596
14248W        W30057   7.257   4.179   2.028  0.3143  0.1962 -0.0175
14249W        W30058  16.148   7.013  15.829 -0.0175 -0.0946 -0.3344
14250W        W30059   6.729  13.261  12.165 -0.0994  0.4291  0.0912
14251W        W30060   8.426   3.699   0.802  0.0965 -0.1074  0.0738
14252W        W30061   9.499   7.783  16.706  0.0606 -0.4287 -0.3475
14253W        W30062   2.207   8.272   4.955 -0.1922  0.2312 -0.1283
14254W        W30063  15.221   5.933   4.021  0.3062  0.0731  0.2654
14255W        W30064  16.698   9.001   6.304 -0.2794 -0.1097  0.1315
14256W        W30065  10.690   5.914   4.443 -0.1407  0.1010 -0.2152
14257W        W30066   2.509  10.008   4.749  0.1272 -0.0223 -0.1516
14258W        W30067   2.857  13.676  13.670 -0.0158 -0.0353 -0.3523
14259W        W30068   9.504   4.991  12.661  0.3244  0.1816  0.0263
14260W        W30069  10.259   5.500  13.757 -0.0067 -0.1383 -0.1043
14261W        W30070   3.307  14.599  13.110  0.1712 -0.0095  0.0357
14262W        W30071   8.873  13.069   4.187 -0.3292  0.1497 -0.0537
14263W        W30072  10.582  12.865   2.200 -0.3752 -0.1743 -0.1891
14264W        W30073   8.365  12.787  13.185 -0.0981 -0.0103  0.0858
14265W        W30074   9.653   2.261   5.469 -0.3219 -0.1601 -0.0675
14266W        W30075  13.368   7.889  10.950  0.6609  0.1246 -0.0004
14267W        W30076   6.878  13.028   3.563 -0.0141 -0.0884  0.0601
14268W        W30077   3.137   5.599  13.614 -0.0904  0.3012 -0.0663
14269W        W30078  16.581  12.207  12.166  0.0031  0.0634  0.4388
14270W        W30079  10.785  16.427  12.699  0.4476  0.0015  0.2755
14271W        W30080  17.343   5.917   1.144 -0.1023  0.0754  0.2169
14272W        W30081   7.173   7.947  16.151 -0.1266  0.0159  0.2903
14273W        W30082  14.941   4.851   6.438  0.4037 -0.1139 -0.2892
14274W        W30083   4.566  13.798  16.408 -0.0889  0.1419 -0.0240
14275W        W30084  12.746   7.791   4.121  0.0680 -0.2182 -0.0223
14276W        W30085   9.880   7.950   1.696  0.0582 -0.4273  0.2032
14277W        W30086   1.547   4.526   4.485  0.1465  0.0905  0.1205
14278W        W30087  16.271   2.660  14.557  0.1021  0.1003 -0.0757
14279W        W30088  14.209  13.964   1.277 -0.2632  0.1235 -0.0095
14280W        W30089   4.041  17.076   4.363 -0.0891  0.0679  0.3891
14281W        W30090   0.836  16.598  16.114  0.1238  0.1962 -0.2274
14282W        W30091  14.894  11.560  14.379  0.2409  0.1010 -0.1115
14283W        W30092   6.021   6.323  12.109  0.0716 -0.0844  0.2520
14284W        W30093   5.280   9.533  14.149  0.0773 -0.0975  0.1300
14285W        W30094  11.771   4.546   5.357  0.0302  0.1283  0.2124
14286W        W30095  17.204  14.984  14.264  0.2648 -0.0294 -0.0417
14287W        W30096  12.359   5.625   6.167 -0.2011  0.1530  0.3110
14288W        W30097  15.972   2.524   2.688  0.0476 -0.1946  0.1678
14289W        W30098  13.341  12.581   3.959  0.0415 -0.0024 -0.0044
14290W        W30099   2.664   3.606  13.095  0.1461 -0.2653 -0.1208
14291W        W30100  11.098  14.637  14.779  0.1830  0.1014  0.3443
14292W        W30101  13.032   5.069  15.351  0.2512 -0.1343 -0.2497
14293W        W30102   6.056   1.232  13.617  0.0895 -0.0170 -0.0110
14294W        W30103   4.335   1.169  16.663  0.1173  0.0604  0.3280
14295W        W30104   2.192   6.912  13.966 -0.0580 -0.2638 -0.3216
14296W        W30105   4.947   2.566   0.762 -0.1685 -0.0849 -0.2231
14297W        W30106   7.515  15.144   5.037  0.0434 -0.3139  0.2437
14298W        W30107   3.111  15.502  11.864  0.0135 -0.0878 -0.2096
14299W        W30108  15.043  12.949   4.620  0.3065 -0.1118  0.2299
14300W        W30109   4.955  14.062   4.580 -0.1054  0.1412  0.1035
14301W        W30110   7.387  13.850   1.208 -0.0044 -0.0784 -0.0817
14302W        W30111  10.015   7.903   3.080  0.0223 -0.2161 -0.0296
14303W        W30112   1.734   8.554   1.603  0.2803 -0.1904 -0.4615
14304W        W30113   0.836   1.677  12.143 -0.3473 -0.1489  0.1639
14305W        W30114   2.287   3.045  16.842 -0.0433 -0.2528  0.1529
14306W        W30115  10.001  16.618  11.953  0.0409 -0.0396  0.3725
14307W        W30116   5.578  15.664  12.719 -0.1345  0.0597 -0.4280
14308W        W30117  15.904  15.633  13.729  0.1578  0.0951 -0.3005
14309W        W30118   1.455  13.106   1.556  0.0320 -0.1888 -0.1349
14310W        W30119   4.742   9.774  13.238  0.3166 -0.0736 -0.0861
14311W        W30120   4.334  11.394   0.590  0.1471  0.0327 -0.4059
14312W        W30121  13.145   6.111   4.006 -0.4376 -0.0175  0.2276
14313W        W30122   2.132  10.910  11.589  0.0445 -0.2298  0.0691
14314W        W30123   8.185  16.782   2.580 -0.1697  0.1731  0.1436
14315W        W30124  16.211  11.832  11.552 -0.1763  0.4800  0.2921
14316W        W30125   8.120  10.441   5.446 -0.1830 -0.1675  0.0420
14317W        W30126  12.464  13.093   0.591 -0.0942 -0.1002 -0.0072
14318W        W30127   5.725   6.056  11.770  0.1210  0.1438 -0.0876
14319W        W30128  13.672  15.325  13.812 -0.3797 -0.1117 -0.0546
14320W        W30129  15.171   9.969   3.680 -0.1616  0.1153  0.0062
14321W        W30130  10.596  10.140   0.383  0.0174 -0.0455 -0.0654
14322W        W30131   3.648  15.019  16.567  0.2156 -0.2008 -0.1953
14323W        W30132  16.546   5.170   6.419  0.0317  0.1087 -0.0959
14324W        W30133  17.287  12.697   1.483  0.1349  0.1386 -0.1165
14325W        W30134   3.785  12.901  12.368  0.1138 -0.2116 -0.0306
14326W        W30135  12.691  15.505   4.180 -0.1994 -0.2373 -0.1876
14327W        W30136   4.273   7.446  10.851 -0.0994 -0.0675 -0.0773
14328W        W30137   4.310   6.378   0.015  0.1037 -0.1565  0.1082
14329W        W30138   9.473  10.039   0.526  0.0285  0.0305 -0.1937
14330W        W30139   7.569   4.101  11.274  0.0767 -0.1114  0.0763
14331W        W30140  16.506   6.226   1.345 -0.2895  0.1174  0.3577
14332W        W30141  17.419   7.220  15.048 -0.1652 -0.1202  0.0489
14333W        W30142   4.016   4.557   0.550  0.0353  0.1138  0.0790
14334W        W30143  10.443   6.864   4.231 -0.4092 -0.1076  0.2894
14335W        W30144   9.476   4.127  13.325 -0.0736  0.2851 -0.1008
14336W        W30145   3.846   2.778   0.070  0.0771 -0.2500  0.1337
14337W        W30146   1.107   9.648  14.749  0.2311 -0.1257  0.0480
14338W        W30147   7.906   6.779   5.411 -0.1096 -0.2991  0.0648
14339W        W30148   9.038  12.581  10.885 -0.1805  0.3658  0.2625
14340W        W30149  14.956   5.091   5.090 -0.0261  0.1687 -0.3092
14341W        W30150   6.809  11.612  16.032  0.0815 -0.1192  0.0742
14342W        W30151  17.261   8.835   0.102  0.0657 -0.2922 -0.3293
14343W        W30152  17.591  10.863   4.399  0.2271  0.0277  0.0805
14344W        W30153   5.823  14.457   3.626 -0.1431  0.0694  0.3735
14345W        W30154  15.964   4.467   2.607  0.1653  0.0476 -0.0350
14346W        W30155   7.938   3.673   0.582  0.1266  0.0281  0.0889
14347W        W30156   2.448   1.571   4.178 -0.2049 -0.1157 -0.1614
14348W        W30157   4.046   1.631   0.870  0.3007 -0.1095 -0.4609
14349W        W30158   7.139   5.741   4.918 -0.1759 -0.2017  0.0483
14350W        W30159  16.201  16.864   3.113  0.2289 -0.3303 -0.2424
14351W        W30160  13.083  13.787  11.328  0.1616 -0.0098  0.3546
14352W        W30161   1.624  12.221   0.800 -0.0184  0.0713 -0.1577
14353W        W30162   1.756  11.291  14.224  0.1147 -0.0343  0.1813
14354W        W30163  12.366   6.803  15.147  0.1711 -0.4208  0.1039
14355W        W30164   0.895   0.528   5.806 -0.1243 -0.1090 -0.1431
14356W        W30165   1.304   1.017  15.579 -0.2330 -0.2342  0.1449
14357W        W30166  13.524   8.925  14.439 -0.2518  0.0907  0.4034
14358W        W30167   3.434   8.292  12.549  0.0913  0.1786 -0.0232
14359W        W30168   5.205   0.377  15.977 -0.0652  0.1663 -0.1140
14360W        W30169   0.858   3.039   1.166 -0.1857  0.0777  0.1065
14361W        W30170   9.165  14.462  11.263 -0.0950  0.5312  0.0336
14362W        W30171   0.447   0.052   5.314  0.1378 -0.0145  0.1409
14363W        W30172   4.726   3.539   2.213 -0.0939  0.2568  0.3045
14364W        W30173  12.499   8.117   0.023 -0.0506 -0.1184 -0.0163
14365W        W30174  16.888  17.124  11.355 -0.2169 -0.2202  0.1321
14366W        W30175   2.422  13.763   3.644  0.0745 -0.2130 -0.1609
14367W        W30176  15.604   7.186  15.930 -0.3624 -0.2065 -0.0415
14368W        W30177  16.191  17.562  16.295  0.0826  0.3025 -0.1335
14369W        W30178  17.320   0.335  16.716  0.1884 -0.2115 -0.2878
14370W        W30179   4.397   0.168   3.142  0.0445 -0.0762 -0.1838
14371W        W30180  17.168  10.199   4.025  0.1743  0.0854  0.1832
14372W        W30181  17.578   9.551   2.952  0.0744  0.0746  0.2768
14373W        W30182   2.915  10.212   0.402 -0.2504 -0.1296 -0.0050
14374W        W30183   2.882  14.665  11.107  0.0361  0.0187  0.2395
14375W        W30184  13.143   8.615   5.129  0.1990 -0.1560  0.1633
14376W        W30185  13.896   4.104   6.043  0.0363 -0.0792  0.2662
14377W        W30186  17.374   6.777  12.058 -0.1564 -0.0756 -0.2071
14378W        W30187   3.036   5.641   0.696 -0.1407  0.1665 -0.3073
14379W        W30188  10.045   8.186  11.801 -0.0907 -0.0682  0.0923
14380W        W30189   8.354  10.220  16.286 -0.3328 -0.0939 -0.0336
14381W        W30190   4.908  11.938  12.825  0.1095  0.2380  0.0975
14382W        W30191   4.282   7.214  13.555 -0.0128  0.2744  0.2680
14383W        W30192  14.432   2.155  13.112  0.0833  0.0682  0.2613
14384W        W30193   0.055   8.525   4.463  0.4634 -0.3457 -0.0567
14385W        W30194   9.677   9.830  13.708  0.0263 -0.1948 -0.2113
14386W        W30195  13.893   1.574   0.232  0.2479  0.1985 -0.2840
14387W        W30196  12.783  13.415   3.068 -0.1043 -0.0303 -0.1149
14388W        W30197  11.549  12.069   1.732  0.1339 -0.1058  0.2660
14389W        W30198  14.224   6.721  15.229  0.2573 -0.0138  0.2023
14390W        W30199   9.068  13.842   3.942  0.3530  0.0954 -0.0324
14391W        W30200   3.604  15.062  13.775  0.1173 -0.0498 -0.2610
14392W        W30201   2.692   6.106  16.905  0.1885  0.2385 -0.0830
14393W        W30202   3.298   5.361  16.969  0.1482  0.1191  0.0184
14394W        W30203   2.214  13.209  16.202  0.0311  0.1215  0.1339
14395W        W30204  14.513  10.647  15.371 -0.1535  0.1419 -0.1012
14396W        W30205  15.210   9.881   2.415 -0.2426  0.2356 -0.2930
14397W        W30206   0.189   6.318  15.625 -0.2163  0.2151 -0.0991
14398W        W30207  10.545   0.133   0.398  0.0700  0.1044  0.0274
14399W        W30208   0.551   2.472   1.331  0.0033 -0.0957  0.0075
14400W        W30209   9.293   2.643  14.580 -0.3660  0.1183  0.1697
14401W        W30210   1.875  12.849  16.365  0.2456  0.2085 -0.1671
14402W        W30211   0.843  14.515   1.484  0.0871  0.0796 -0.0958
14403W        W30212   9.940  15.551   0.944  0.2157  0.1913  0.0151
14404W        W30213  17.713  14.010   1.456 -0.2496 -0.0951  0.0533
14405W        W30214   6.366   0.959  15.484  0.0427 -0.1899  0.1603
14406W        W30215   9.569   6.129   0.573 -0.0125 -0.0938  0.1330
14407W        W30216   8.975  13.038   1.873 -0.0144 -0.0178 -0.1498
14408W        W30217   8.835   5.108  16.902 -0.1092  0.1757  0.1553
14409W        W30218  12.472   9.086   4.441  0.3573 -0.1475 -0.0043
14410W        W30219   0.894   3.707  15.912 -0.0489 -0.1260  0.2513
14411W        W30220   8.086   4.978   0.379  0.2724  0.1965  0.0159
14412W        W30221   3.031  13.401  14.166 -0.1797  0.1060 -0.1068
14413W        W30222  11.652   7.739  14.792  0.3134  0.3287 -0.0601
14414W        W30223  15.525  12.202  15.175 -0.0641  0.1761 -0.2199
14415W        W30224  13.553   9.902  12.847 -0.1175  0.0820 -0.0048
14416W        W30225   2.244   0.150   3.785  0.2221 -0.0533 -0.1449
14417W        W30226  15.026   7.856   3.836  0.0044 -0.1777 -0.0993
14418W        W30227  14.434  16.163  11.844  0.0306  0.0299 -0.1930
14419W        W30228  15.569   3.252   3.123  0.1301 -0.2053  0.0602
14420W        W30229   8.516   2.819   4.216 -0.2165  0.0613  0.3748
14421W        W30230   8.353   6.272  12.815  0.0073  0.1935 -0.0942
14422W        W30231  16.917   3.096   0.043  0.3220 -0.1611 -0.2434
14423W        W30232  10.571   4.453   5.636  0.2020  0.0127 -0.0624
14424W        W30233  16.924  10.188   3.092 -0.0328 -0.2067 -0.3164
14425W        W30234   3.290  15.568   2.678 -0.2659  0.2435  0.0834
14426W        W30235   5.813   5.523  11.694 -0.0374 -0.0015  0.0786
14427W        W30236  14.761  12.662   4.277 -0.1734 -0.3848 -0.2019
14428W        W30237  11.636   6.332   2.819 -0.1317 -0.0578 -0.2381
14429W        W30238  11.714   3.582  16.084  0.0826  0.2131 -0.3370
14430W        W30239  15.711   9.084   1.812 -0.0880 -0.0272 -0.0061
14431W        W30240  17.576   2.098  15.776  0.1041  0.4020  0.0149
14432W        W30241   2.457  11.492  11.627  0.1342 -0.0084 -0.2712
14433W        W30242   8.972   3.178   0.890  0.1042 -0.0785 -0.0850
14434W        W30243  14.011   9.225   3.373  0.1871  0.2138 -0.0120
14435W        W30244   7.790  10.863   2.368 -0.1271 -0.1456  0.0846
14436W        W30245   7.199  16.025   1.831 -0.1901  0.1614  0.1560
14437W        W30246  11.666   5.232  12.876  0.0604  0.0567 -0.0238
14438W        W30247   6.403   5.399   0.604  0.0225  0.0156 -0.0934
14439W        W30248   4.572   6.525  15.911 -0.2485  0.3442  0.0634
14440W        W30249  11.656   1.068  15.450  0.1005 -0.0756 -0.1264
14441W        W30250  14.691   5.409  14.875 -0.0227 -0.2640 -0.0263
14442W        W30251  11.278   2.423  13.277 -0.0642  0.0417 -0.2379
14443W        W30252   6.505   7.404   4.328  0.2055  0.2915  0.0356
14444W        W30253  16.336  10.759   1.228  0.3995 -0.1826 -0.0331
14445W        W30254   4.090   7.208   2.217  0.0994 -0.1318  0.1411
14446W        W30255  11.097   4.761   3.116 -0.0972 -0.0515 -0.1494
14447W        W30256  13.692   6.055  16.301 -0.0777  0.1183  0.2452
14448W        W30257   1.732   6.228   4.136  0.0653  0.0122 -0.3431
14449W        W30258  10.437  12.421  14.867 -0.0005  0.1408  0.2756
14450W        W30259  11.802   3.527   0.046  0.1112  0.1189  0.1762
14451W        W30260  15.825  16.006   0.222 -0.3224 -0.1561  0.2918
14452W        W30261  10.668   1.523  11.223  0.0012  0.3848  0.2297
14453W        W30262   3.151   9.028  16.262  0.0027  0.1693  0.5240
14454W        W30263   9.177   7.978  12.101 -0.2887  0.0744 -0.2157
14455W        W30264   7.712  17.623  15.062 -0.0857 -0.0155  0.0830
14456W        W30265   5.739   7.763  15.488  0.3134 -0.3509  0.1200
14457W        W30266  16.694   9.550   3.693  0.3696 -0.0635 -0.1165
14458W        W30267   5.469  13.706   5.633  0.1770  0.1414  0.1016
14459W        W30268  14.143   7.969   2.623  0.0865 -0.0850  0.1462
14460W        W30269   6.460   1.724  13.297 -0.0686 -0.1019 -0.2307
14461W        W30270   6.983   8.277  12.489 -0.2247 -0.0092  0.1309
14462W        W30271  16.727   3.508  10.856  0.1284  0.0354  0.2582
14463W        W30272   8.775  14.418  13.882  0.1335 -0.2781 -0.1854
14464W        W30273   7.283  11.164   1.417  0.1722  0.0522 -0.3171
14465W        W30274  11.885  11.379  11.470 -0.3065  0.1060  0.0376
14466W        W30275  10.931  17.395  16.102  0.0170  0.0760 -0.0176
14467W        W30276  17.656   7.883   2.595 -0.1871 -0.1984  0.0131
14468W        W30277   4.249   9.240  13.148 -0.2997  0.1014  0.2623
14469W        W30278   1.155  12.861   5.396 -0.2384  0.0042 -0.0984
14470W        W30279   7.768  10.580   5.971 -0.2952 -0.0814  0.3825
14471W        W30280   9.718   7.023   0.326 -0.1676  0.2195 -0.3508
14472W        W30281  12.898  10.433  12.767  0.0773  0.2232 -0.1618
14473W        W30282   3.952  15.546  14.410 -0.0476 -0.3157 -0.1789
14474W        W30283   3.970  11.653   5.085  0.1040 -0.1435 -0.1090
14475W        W30284   1.666   2.865  11.581  0.1021 -0.1808  0.0396
14476W        W30285  13.386  13.095   0.435 -0.0442 -0.0974  0.3271
14477W        W30286   4.067  14.969  13.499 -0.0101 -0.0322 -0.1012
14478W        W30287   7.345   7.795  16.607 -0.1150  0.0505 -0.0393
14479W        W30288   0.640  11.170  12.104 -0.0246 -0.3114  0.0605
14480W        W30289  10.527   4.749  14.957 -0.1638  0.2583 -0.2882
14481W        W30290  10.136  17.275  15.351 -0.4811  0.2047  0.1771
14482W        W30291  15.486   3.714  13.454  0.0591  0.0289 -0.0306
14483W        W30292  14.490  16.829   5.019  0.0451  0.0035  0.1382
14484W        W30293  13.367   3.896   6.845 -0.0568  0.0031 -0.0005
14485W        W30294  17.578  13.536   1.462 -0.0548 -0.1353 -0.1989
14486W        W30295  14.198  10.209  16.611  0.3129  0.1417  0.0358
14487W        W30296  12.348  16.644   1.097 -0.1569 -0.2789 -0.0477
14488W        W30297  10.669  14.538  15.505 -0.0744  0.2100  0.3621
14489W        W30298   8.949   9.760  14.367  0.0036 -0.0544  0.0541
14490W        W30299  12.080   8.563  12.924 -0.1877  0.1330 -0.2085
14491W        W30300  17.256   6.383   4.222 -0.0847  0.0775  0.1329
14492W        W30301   4.640  12.394   1.562  0.2724 -0.1806 -0.1844
14493W        W30302   3.874   9.398  12.855  0.0919 -0.0146  0.1691
14494W        W30303   4.689   2.717   3.373  0.0724 -0.0849 -0.1518
14495W        W30304  10.405  15.611   2.782  0.2850 -0.2728 -0.0107
14496W        W30305   4.986   6.851  11.140 -0.2293 -0.1472  0.0844
14497W        W30306   0.099  12.768  15.763 -0.1187 -0.2131  0.1514
14498W        W30307   4.625   5.619  11.983 -0.0711 -0.1534  0.2458
14499W        W30308   5.184  10.647   2.992  0.0202  0.0093  0.1473
14500W        W30309  17.260   5.922  12.077 -0.1786  0.0711 -0.5035
14501W        W30310  12.178  13.792   3.919  0.0719 -0.2201  0.3126
14502W        W30311  13.153   2.662   4.403 -0.0950  0.3401  0.0101
14503W        W30312  10.904  11.662   3.689 -0.2597 -0.0152 -0.0297
14504W        W30313  16.493  16.528   0.887  0.1084 -0.0133 -0.1336
14505W        W30314  12.656   3.403   4.651 -0.1361  0.1289 -0.2070
14506W        W30315  12.688   2.231  16.519  0.2980 -0.1552  0.1695
14507W        W30316  17.441  14.067   0.825  0.0291 -0.3640  0.0113
14508W        W30317   5.505  11.965   2.986 -0.2003 -0.1078  0.0255
14509W        W30318  13.387   1.188  15.282  0.0443 -0.3832  0.0105
14510W        W30319   4.866   6.581   4.895 -0.2065 -0.2205 -0.2338
14511W        W30320   3.327   0.705   0.311 -0.0215  0.0904  0.0961
14512W        W30321  16.332  13.118   0.471  0.0497 -0.1283 -0.1226
14513W        W30322   8.552  12.157   2.870 -0.2391 -0.1849  0.0043
14514W        W30323   4.779   2.290  13.301  0.3013  0.0061  0.2800
14515W        W30324   1.562   0.982   1.087 -0.0584  0.1668  0.0289
14516W        W30325  15.730  10.231   5.565 -0.1238  0.3363 -0.0581
14517W        W30326   6.783   3.435   1.659 -0.0547  0.0279 -0.0827
14518W        W30327  10.078  12.735   5.477 -0.3436  0.0510 -0.1721
14519W        W30328   9.505  15.563  12.400 -0.1093  0.0672 -0.1352
14520W        W30329   6.505  11.938  15.161 -0.0652  0.0744 -0.2130
14521W        W30330   8.345  13.108   0.488  0.1661 -0.3527 -0.0787
14522W        W30331   0.760   8.837  14.971 -0.2140 -0.3354 -0.1084
14523W        W30332  10.041   3.554   1.117  0.3046 -0.1011 -0.0454
14524W        W30333   9.485  13.085  17.004 -0.0757  0.2231 -0.2460
14525W        W30334   4.481  11.041  13.124  0.0871  0.0958 -0.2688
14526W        W30335   0.987   2.655  12.736 -0.1100 -0.3583 -0.2710
14527W        W30336  16.258  12.759  13.278 -0.0029 -0.0712 -0.1767
14528W        W30337   3.566   2.990  11.731 -0.1388 -0.2041  0.1509
14529W        W30338   3.420   8.183  13.108  0.1595  0.2525 -0.0455
14530W        W30339   7.332   0.595  12.021 -0.0802 -0.1710  0.0918
14531W        W30340  12.748  10.664  11.339 -0.1872 -0.0600 -0.1062
14532W        W30341   0.181  15.106   2.912  0.1434 -0.0683 -0.2689
14533W        W30342   0.864   3.365   4.275  0.2192  0.0324 -0.2432
14534W        W30343  17.426  16.198   1.104 -0.1320  0.0005  0.1271
14535W        W30344   6.498   2.354   0.812  0.1349 -0.3261  0.1105
14536W        W30345   9.030  14.186   3.540 -0.0942 -0.1371  0.3514
14537W        W30346   4.888  15.767   0.209 -0.1346  0.2346  0.1242
14538W        W30347   6.457   4.370  15.538 -0.2120 -0.1622  0.1558
14539W        W30348   0.617   1.116   0.370 -0.1411 -0.0273  0.2266
14540W        W30349   8.897   0.497  15.175  0.2607  0.2338  0.1371
14541W        W30350  16.797  13.005   0.268  0.3234 -0.0467 -0.0196
14542W        W30351   8.319  11.866  12.127 -0.1304 -0.0763  0.0733
14543W        W30352  16.101   9.998  15.856 -0.1927 -0.1972 -0.3241
14544W        W30353   4.003   8.173   2.364  0.1063 -0.0038  0.1677
14545W        W30354   6.361   0.209   3.197  0.0415  0.0025  0.0300
14546W        W30355  12.037  12.540   2.609 -0.0196  0.0139 -0.1839
14547W        W30356   5.483  10.048   6.475 -0.2307  0.2456 -0.3382
14548W        W30357   8.612   1.205   0.367  0.2296  0.0016  0.3313
14549W        W30358  10.968   3.306  14.174 -0.1862 -0.2223 -0.0957
14550W        W30359   3.823  14.426   5.367 -0.0575 -0.1201  0.1401
14551W        W30360  15.748   2.414   6.199 -0.1718  0.2678  0.1662
14552W        W30361  11.406   3.102  14.393 -0.2922 -0.3555 -0.0700
14553W        W30362  11.558   6.179  15.463 -0.1510  0.2127 -0.0445
14554W        W30363  12.419  11.239   5.634  0.3023 -0.1173  0.1152
14555W        W30364  13.971   5.782   0.287 -0.1077  0.0632  0.1165
14556W        W30365  16.037  13.923   2.292 -0.1152  0.0281 -0.2247
14557W        W30366   8.525   0.435  14.839 -0.1457  0.2512 -0.0727
14558W        W30367  17.571  12.777   0.172 -0.0380 -0.2785  0.2491
14559W        W30368   9.417  15.721   1.572  0.1533 -0.3000 -0.2783
14560W        W30369   6.951   2.550  16.854 -0.1806  0.1549 -0.0461
14561W        W30370   8.682  17.072   5.606 -0.0123  0.3586 -0.0507
14562W        W30371   6.089   3.638   3.329  0.1442  0.1752 -0.0176
14563W        W30372  14.030   7.753   3.102  0.1727  0.0897  0.1094
14564W        W30373   3.607   1.781   4.489  0.1213  0.1158  0.1927
14565W        W30374  10.967  16.407  10.938 -0.1242  0.1588 -0.1306
14566W        W30375   1.395   3.751  15.798  0.1428 -0.2364 -0.1317
14567W        W30376   2.000   4.123  16.496  0.0366  0.0239  0.2955
14568W        W30377  12.127   8.695   5.219  0.0981 -0.0568  0.1688
14569W        W30378  11.291   5.681   2.221 -0.3105  0.1940 -0.0289
14570W        W30379   8.162  14.865  15.034  0.3359 -0.0283 -0.1771
14571W        W30380   5.290   2.198   5.513  0.3231  0.2999  0.0674
14572W        W30381  13.074  12.450  15.839  0.2045  0.0362 -0.0474
14573W        W30382   0.709  16.600   0.934  0.0928 -0.0572 -0.0125
14574W        W30383   8.400   3.476   5.645 -0.0963 -0.1216  0.0889
14575W        W30384  10.891   9.649  12.616 -0.1222 -0.1354 -0.0982
14576W        W30385   5.827  16.295   0.303 -0.2411 -0.0762  0.0757
14577W        W30386  17.435   5.382   3.615  0.0580  0.1136 -0.0175
14578W        W30387   0.356   2.171  14.657  0.3206 -0.0908  0.0353
14579W        W30388  17.402  17.130  14.808  0.1609  0.2368  0.0014
14580W        W30389  14.485  13.082   3.625  0.2574  0.1176  0.0822
14581W        W30390   0.027  16.094  16.004  0.1928  0.2520  0.2113
14582W        W30391   0.927  14.781   4.966 -0.0124  0.3091 -0.1768
14583W        W30392   4.333  10.093  13.900 -0.3195  0.0009  0.1055
14584W        W30393  16.608   3.706   1.127 -0.2103 -0.1478 -0.2359
14585W        W30394  10.542  13.938  15.562 -0.0655  0.0383  0.1379
14586W        W30395   7.035  15.868   4.623 -0.1086  0.0471 -0.0737
14587W        W30396  16.816   0.401  14.431 -0.2318 -0.3930 -0.3405
14588W        W30397   0.203   8.494   3.455  0.1762 -0.0149 -0.0134
14589W        W30398  10.842  10.175  11.942  0.1787  0.1381  0.2785
14590W        W30399  16.333   1.609  12.200  0.1062  0.2873 -0.0875
14591W        W30400  15.865  14.692   1.326  0.0063 -0.2995  0.4363
14592W        W30401  15.372   5.221   4.929  0.0597  0.0055  0.3498
14593W        W30402   4.173  15.627   3.405  0.2084 -0.4355  0.1234
14594W        W30403   8.849  15.470  14.978 -0.2312 -0.0312 -0.3500
14595W        W30404   0.338   7.009   2.991  0.1967 -0.2588  0.1398
14596W        W30405  11.399  17.091  15.673  0.2423  0.1394 -0.3504
14597W        W30406   8.281   9.087   1.947 -0.0157  0.0426  0.0929
14598W        W30407  11.040   2.670  14.936 -0.0381  0.1580  0.0593
14599W        W30408  17.702  12.333   1.120 -0.0443 -0.2104  0.1567
14600W        W30409  11.313  13.196  12.244 -0.0336  0.3388  0.2393
14601W        W30410   0.449   1.681  14.038  0.1425  0.1040  0.1753
14602W        W30411  11.776  15.478   4.033  0.0235  0.4099 -0.3955
14603W        W30412   5.508   3.395   0.657 -0.2965  0.0106  0.0123
14604W        W30413   2.693   4.200   3.847  0.4245 -0.0231  0.0449
14605W        W30414  16.731   0.571   2.005 -0.1735  0.0273  0.0075
14606W        W30415  15.741   9.293   3.181  0.3656  0.1693  0.2733
14607W        W30416   8.559  13.264   1.926  0.0723 -0.2507  0.2480
14608W        W30417   3.506  10.917   6.535  0.2302 -0.2791  0.1505
14609W        W30418   7.357   0.961   5.103 -0.0038 -0.0969 -0.0756
14610W        W30419   2.369  11.506   2.941 -0.1845 -0.2937  0.0646
14611W        W30420   2.658  11.602  15.140  0.4694 -0.2246  0.0364
14612W        W30421   2.235  11.581  11.100 -0.2147  0.3234  0.0466
14613W        W30422   7.883  11.353   2.545  0.0787  0.3084 -0.2075
14614W        W30423   3.382  14.218   4.684 -0.0048 -0.3440  0.2478
14615W        W30424  13.504  13.399   6.017 -0.1217 -0.1470 -0.0494
14616W        W30425  16.646   0.269   1.607 -0.1973 -0.2732 -0.0338
14617W        W30426  15.273  14.693  12.215  0.1995 -0.1065  0.2099
14618W        W30427  12.396  12.357  11.231 -0.0540 -0.2772 -0.0888
14619W        W30428   7.698  15.469  15.727  0.1020 -0.2648  0.1415
14620W        W30429  17.060   7.264   5.554  0.3502  0.1657  0.0486
14621W        W30430  13.554  16.028  12.779  0.1662 -0.0104  0.0701
14622W        W30431  14.418   3.526  14.552  0.0353  0.1784 -0.0427
14623W        W30432   1.666   1.079   5.510  0.2990 -0.1697 -0.1617
14624W        W30433   3.175   9.488   0.163 -0.3854  0.1677 -0.0185
14625W        W30434  17.100   2.986   0.860 -0.0060 -0.0871 -0.2695
14626W        W30435  14.102   0.570   1.731 -0.2242 -0.2120 -0.2542
14627W        W30436  14.906   0.489  15.349 -0.2375  0.1274 -0.0889
14628W        W30437  15.339   8.526  13.676 -0.0808 -0.0436  0.1002
14629W        W30438   1.318   0.035   4.920 -0.2170  0.0782  0.0790
14630W        W30439   2.475   8.603  13.379  0.1710  0.2517 -0.0878
14631W        W30440   1.645   7.187   1.839  0.0523  0.0416  0.0741
14632W        W30441  16.978   1.676   3.053  0.1042 -0.0933  0.2221
14633W        W30442   5.510   1.784   1.095  0.1530 -0.1335 -0.2301
14634W        W30443   8.352   0.719   2.559 -0.4283 -0.2012  0.1294
14635W        W30444  17.159  11.913  13.181 -0.1459  0.2644 -0.0713
14636W        W30445  10.850   2.256   1.462 -0.1218 -0.0914  0.3045
14637W        W30446   8.099   5.524   4.080 -0.0357  0.1204  0.0943
14638W        W30447   7.430   5.770  16.212  0.2015 -0.0733 -0.0247
14639W        W30448   6.191  13.628  13.570  0.2471  0.1050  0.2094
14640W        W30449   3.644  10.004   2.290 -0.0216  0.0374  0.2004
14641W        W30450   0.359   2.467   3.991  0.0123  0.0065 -0.1361
14642W        W30451   0.566   9.018  11.859 -0.3160  0.2371  0.3052
14643W        W30452   1.287  14.852   0.547  0.0906 -0.1955  0.1924
14644W        W30453  13.088  15.681   1.783 -0.0028 -0.0298  0.1799
14645W        W30454   8.267   0.826  14.178  0.0525  0.1596 -0.3647
14646W        W30455  17.061   8.371   2.298 -0.2841 -0.1468  0.1186
14647W        W30456  10.317   4.373  15.558  0.2345 -0.1954  0.1632
14648W        W30457  10.451   0.916   4.814  0.0625 -0.0846  0.0799
14649W        W30458  11.232   5.889   2.958  0.0665 -0.2899  0.1158
14650W        W30459   5.890   1.925   3.355 -0.0796  0.2840 -0.1773
14651W        W30460   6.117  12.837   5.495  0.0511 -0.1906 -0.1107
14652W        W30461  10.708   3.464   1.530  0.2224  0.2018  0.0086
14653W        W30462   8.863   9.655   5.776  0.0952 -0.0110  0.0637
14654W        W30463  15.134   4.312  13.863 -0.0284  0.0075  0.2485
14655W        W30464  12.482   9.864   1.854  0.3744  0.2901 -0.0136
14656W        W30465   9.857   5.914   3.213  0.0459 -0.3438 -0.0859
14657W        W30466  15.936  11.195   1.213  0.0407  0.0596 -0.3447
14658W        W30467   7.528   1.947  14.256 -0.2626 -0.1375  0.1602
14659W        W30468   2.972  14.178  12.266 -0.2934 -0.4136 -0.1740
14660W        W30469   0.245  13.167   0.864  0.0559 -0.1209 -0.2683
14661W        W30470  16.968  17.296  16.185 -0.0240 -0.0227 -0.1326
14662W        W30471  11.189   7.951   4.400 -0.1355  0.0540  0.5470
14663W        W30472  15.116   5.418  15.203 -0.0426 -0.0076  0.2434
14664W        W30473  13.287  17.721   5.214  0.0360 -0.1798  0.0945
14665W        W30474  15.736   4.779  16.645  0.0958  0.1247  0.1613
14666W        W30475  16.449  12.204   3.740 -0.1100 -0.0410  0.0006
14667W        W30476   5.088   0.716  13.702 -0.1738  0.0212  0.2447
14668W        W30477   0.185  12.253   0.007  0.2036 -0.2778  0.1269
14669W        W30478   6.289   8.116   4.906  0.0809  0.1606  0.0379
14670W        W30479   8.860   4.031   1.269  0.0683  0.1798 -0.1488
14671W        W30480   7.357  14.283   4.475 -0.0899  0.0736  0.0267
14672W        W30481   7.073   2.548   3.895  0.2418 -0.1852  0.2469
14673W        W30482  13.825   0.664   0.296 -0.3789 -0.0771 -0.2148
14674W        W30483   6.011   9.703   1.617 -0.0178  0.1752  0.2248
14675W        W30484   3.367   1.637  16.552 -0.1421 -0.1728  0.0214
14676W        W30485   7.094   1.840   3.717  0.0199 -0.0276 -0.1342
14677W        W30486   2.024  11.372  16.601  0.0928 -0.0224  0.0970
14678W        W30487  13.011   1.431   4.699  0.1089  0.3865  0.3038
14679W        W30488  10.704   9.056  13.685 -0.2439  0.0128  0.2234
14680W        W30489  17.204   6.054  15.349  0.2396  0.0652 -0.3254
14681W        W30490   8.628   6.883  14.941 -0.2020 -0.0072  0.0528
14682W        W30491   1.103   2.556  15.671 -0.0435 -0.0595 -0.0639
14683W        W30492   1.909   9.366   0.359  0.1113  0.2690  0.0467
14684W        W30493  13.853  14.360  12.360 -0.0567 -0.1841 -0.0884
14685W        W30494   3.267  17.434   5.043 -0.0732 -0.1941  0.0982
14686W        W30495  12.741   6.037   5.464  0.0106 -0.1217 -0.1408
14687W        W30496  11.573   5.234   1.583  0.1646  0.0136 -0.3712
14688W        W30497   9.250  10.019  15.202 -0.0446 -0.0719 -0.2322
14689W        W30498   3.121  16.792  14.047 -0.0126  0.0418 -0.0456
14690W        W30499  16.976   3.743   3.810  0.1260  0.3084 -0.2463
14691W        W30500   6.988   5.386   2.409  0.0698  0.2595 -0.0127
14692W        W30501  15.268   6.906  16.825  0.1136  0.4632  0.0548
14693W        W30502  15.038  16.677   2.904  0.3195  0.4456  0.1746
14694W        W30503   2.405  12.571   1.774  0.0177  0.2577  0.3180
14695W        W30504   5.757  14.702  12.771 -0.2175  0.1618 -0.0805
14696W        W30505  12.064  14.785   2.754 -0.3038 -0.1027 -0.0775
14697W        W30506   6.514   2.365  13.076  0.0985  0.0793 -0.0353
14698W        W30507   4.591   2.245  13.760  0.3539  0.1549 -0.2723
14699W        W30508   7.963   1.885   3.185 -0.1542  0.0767  0.0842
14700W        W30509   5.904   1.653  15.801 -0.0548 -0.1111 -0.1045
14701W        W30510   7.992   3.523   1.033  0.1728  0.1160  0.1120
14702W        W30511  12.406   9.498   2.599  0.1772 -0.1013  0.0694
14703W        W30512   8.471   8.435  14.032 -0.1549  0.0274  0.0919
14704W        W30513  12.928   8.759  16.073 -0.2742 -0.1307 -0.1352
14705W        W30514  16.036   0.843   5.028  0.3276 -0.0980 -0.1925
14706W        W30515  12.660   4.787  14.460 -0.4500 -0.0697 -0.0914
14707W        W30516   6.367   1.770   5.313 -0.1058 -0.0724  0.3741
14708W        W30517   5.588   3.915   4.678 -0.0537 -0.0092  0.1259
14709W        W30518   3.067  12.887   5.870 -0.1586  0.0617  0.1132
14710W        W30519   7.697   3.462  16.379  0.0184 -0.0162  0.0752
14711W        W30520   4.183   8.511  15.422 -0.0343  0.0598  0.1034
14712W        W30521   3.397   9.655  15.788  0.4205  0.2198  0.3166
14713W        W30522  17.326   9.049   3.699  0.1635 -0.0072 -0.2153
14714W        W30523   2.009   2.289   4.564 -0.1724  0.0357  0.1610
14715W        W30524   1.775  10.753  12.353  0.0988  0.2623  0.0087
14716W        W30525  11.395  14.942   1.501 -0.0682  0.2554 -0.0245
14717W        W30526   8.804  10.361  11.879  0.1622 -0.0773  0.5035
14718W        W30527   2.936   4.592  15.342  0.1445 -0.1190  0.0691
14719W        W30528  11.734   7.570   4.930  0.2768 -0.2520 -0.0488
14720W        W30529  14.711   7.782   0.131 -0.1116 -0.1695 -0.0017
14721W        W30530  17.645  13.621   5.681  0.3062  0.1410 -0.0393
14722W        W30531  11.977  10.577  12.829  0.0966 -0.2640  0.0314
14723W        W30532  15.292   2.971   4.975 -0.2774 -0.1309  0.3173
14724W        W30533   5.912   5.685   3.828  0.1904  0.2921  0.0778
14725W        W30534   6.165   1.963  16.963 -0.1611  0.2169 -0.1800
14726W        W30535  10.159  12.632  11.115 -0.1486  0.1138  0.0301
14727W        W30536  12.481   1.710  13.204 -0.3338 -0.1651 -0.1244
14728W        W30537  12.871  15.946  15.051 -0.1278 -0.0018 -0.1170
14729W        W30538   1.684   0.879   2.088 -0.0867 -0.0392 -0.0868
14730W        W30539   2.840   5.126  11.760  0.0429 -0.1964  0.0380
14731W        W30540   6.316   4.557  13.617 -0.0191 -0.0896  0.3298
14732W        W30541  11.612  10.074  13.648 -0.1975 -0.0534 -0.0839
14733W        W30542   1.963   8.106   0.563 -0.0498  0.1072  0.0435
14734W        W30543   9.063   8.994  13.281  0.0371 -0.0257  0.2067
14735W        W30544  16.078   2.607   0.157 -0.1173 -0.0667 -0.0436
14736W        W30545   5.906  11.778   4.774 -0.0886  0.1106  0.5201
14737W        W30546  13.354   0.245  13.663 -0.1902  0.2788 -0.0199
14738W        W30547   1.772  11.828  10.722 -0.1050 -0.1057  0.3470
14739W        W30548  12.689   3.864  11.961 -0.0428  0.0103  0.1629
14740W        W30549   8.106   4.403   3.056  0.0339 -0.1895  0.1414
14741W        W30550  10.311  14.740  15.770  0.1427 -0.1161 -0.0445
14742W        W30551   2.326   8.461  12.173 -0.1406  0.0437  0.2209
14743W        W30552   1.863  14.258   5.602 -0.0653  0.0480  0.1089
14744W        W30553  14.311  17.120  15.060 -0.1454  0.2412  0.2882
14745W        W30554   7.695   9.878   0.594 -0.2964 -0.1689  0.1772
14746W        W30555   9.364   4.514  11.846 -0.1228  0.2429 -0.1614
14747W        W30556   5.359   9.974   0.453 -0.1126 -0.0944 -0.0254
14748W        W30557   4.602   5.307   4.904  0.1886 -0.4438 -0.0613
14749W        W30558   0.552  10.719  15.501 -0.0763 -0.0240  0.0987
14750W        W30559   9.433  14.908   1.663 -0.1537  0.2212  0.2037
14751W        W30560   3.363   4.626  16.148 -0.0249 -0.0878 -0.0501
14752W        W30561   3.253   0.726  13.479 -0.2415  0.0043  0.0033
14753W        W30562   2.864  17.322  14.332 -0.1462  0.2712  0.2066
14754W        W30563   9.601   6.502   2.336 -0.1216 -0.0277 -0.1591
14755W        W30564   9.975  12.065  14.696 -0.0077 -0.3041 -0.2745
14756W        W30565  10.621   1.528  16.318  0.0950 -0.2240 -0.1228
14757W        W30566   4.590   9.632  10.871 -0.0188 -0.0824 -0.0161
14758W        W30567   6.625  15.196   3.264 -0.1516 -0.1523 -0.0692
14759W        W30568  16.952   3.734   4.321  0.0774  0.0198 -0.0069
14760W        W30569  16.987  17.037  13.542  0.3020 -0.1611  0.0235
14761W        W30570  14.805   4.949  15.103  0.0188 -0.2059 -0.1252
14762W        W30571  14.864   2.112   3.060 -0.1068 -0.0516  0.1175
14763W        W30572   1.700   5.161   2.786  0.1312  0.0786  0.0367
14764W        W30573   5.858   9.024  12.187 -0.1703  0.1855  0.2699
14765W        W30574   6.788  12.240  16.013 -0.0062 -0.0244  0.0513
14766W        W30575   2.127   8.799   4.862  0.1236  0.0226 -0.1317
14767W        W30576  10.955  11.396   0.030 -0.1304  0.0325 -0.1062
14768W        W30577  12.356   5.210   1.146  0.1751 -0.1323 -0.1303
14769W        W30578  16.425   5.434   4.787  0.0487  0.0098 -0.0415
14770W        W30579   0.971  13.551  15.690 -0.1016 -0.2280  0.1715
14771W        W30580   6.886   4.632  13.793 -0.0206  0.2503  0.2271
14772W        W30581  15.460   4.488   0.098 -0.0861  0.3302 -0.0367
14773W        W30582  15.687  10.473   5.089  0.0479 -0.1412 -0.1668
14774W        W30583   9.589  16.194   3.912 -0.0271  0.0052  0.2479
14775W        W30584   3.242  13.133   3.541 -0.0158  0.1785 -0.1041
14776W        W30585  10.463   4.068  13.863 -0.0532  0.1175 -0.1348
14777W        W30586  17.360  14.074  13.023  0.3157 -0.0908 -0.1346
14778W        W30587   0.657   8.295   3.530  0.0306 -0.0890 -0.1559
14779W        W30588   6.148   0.936   4.337 -0.2136 -0.1646  0.0402
14780W        W30589  15.026   4.174   1.516  0.0535  0.0116 -0.1832
14781W        W30590  11.478  15.815  14.800  0.0971 -0.0828  0.0453
14782W        W30591   5.426   2.271   1.067  0.3255  0.1329  0.2196
14783W        W30592  13.948  12.642   1.536  0.2485 -0.0886  0.1552
14784W        W30593   6.915  10.755  15.003  0.0718  0.2070 -0.0520
14785W        W30594   1.162  12.087  14.289 -0.0612 -0.3168 -0.2308
14786W        W30595   3.979  12.790  15.721  0.1015 -0.1505  0.1150
14787W        W30596   7.261   7.637   5.416 -0.0243  0.0745  0.1745
14788W        W30597   9.134  10.570   5.545  0.1864 -0.1221  0.4731
14789W        W30598  10.760   8.770   1.841 -0.2819  0.2775 -0.1625
14790W        W30599  13.763   2.467  13.763  0.1224 -0.1620  0.2815
14791W        W30600  11.844  16.813   4.602  0.2177  0.2680  0.0164
14792W        W30601   8.184  11.169  11.985 -0.1371 -0.2510  0.0780
14793W        W30602   8.762   9.619   4.701  0.0968  0.2572 -0.1866
14794W        W30603   1.611  13.565   4.389 -0.1779  0.0612 -0.1823
14795W        W30604   1.555   2.813  15.830  0.2061 -0.0417 -0.1405
14796W        W30605   7.046  15.500  11.862 -0.1653 -0.1157 -0.0792
14797W        W30606   3.632  10.170   1.005  0.3112  0.0725  0.2048
14798W        W30607  15.483  17.051  12.782  0.1006 -0.2248 -0.2936
14799W        W30608  10.138  14.527  11.753 -0.2260 -0.1075 -0.0154
14800W        W30609   1.130  11.777   2.014 -0.0758 -0.0094 -0.0179
14801W        W30610   7.085  10.732  12.381  0.1459 -0.1041  0.1711
14802W        W30611  14.155  10.875  11.932 -0.1470 -0.3344  0.1513
14803W        W30612  15.297  13.166   1.931 -0.1868 -0.3413  0.1725
14804W        W30613  13.689   7.947  15.034  0.0923 -0.0923  0.2570
14805W        W30614   0.218   5.243   1.603 -0.1027 -0.1823 -0.2167
14806W        W30615  15.859   1.855  13.486 -0.2071 -0.4512 -0.1000
14807W        W30616   5.023   2.344   3.592  0.2325 -0.0513 -0.3440
14808W        W30617  15.751   9.305  11.861 -0.1233 -0.1532 -0.2776
14809W        W30618   5.566  16.269   1.533  0.0876  0.1363 -0.1392
14810W        W30619  14.582  17.410   0.623 -0.0323  0.2516 -0.1031
14811W        W30620  15.430  16.457  14.723  0.1743 -0.0547 -0.0158
14812W        W30621   2.904   7.539   5.176  0.2132  0.0228  0.1467
14813W        W30622  10.373   7.418  14.867  0.0108 -0.1309  0.1483
14814W        W30623   2.308   0.708   4.751 -0.4867 -0.0673  0.2398
14815W        W30624   3.460  12.930   1.356 -0.1391 -0.0500 -0.0002
14816W        W30625  14.529   5.267   1.400 -0.0725  0.0534  0.3107
14817W        W30626   8.735  14.961  16.517  0.1370  0.0450 -0.0805
14818W        W30627  10.008  10.672  13.697 -0.1775 -0.0911  0.1619
14819W        W30628   6.972   3.491   0.111  0.0280  0.1360  0.5766
14820W        W30629  14.075   0.956   0.608  0.0987  0.0710  0.1295
14821W        W30630   4.711  12.224   3.953  0.0634  0.0879 -0.3942
14822W        W30631   8.422  17.278   2.628 -0.1470 -0.4787 -0.0431
14823W        W30632   4.332   8.284  14.626 -0.1046 -0.1392  0.2138
14824W        W30633  17.559   3.504   5.694 -0.0750  0.0638 -0.2944
14825W        W30634   7.496  13.686   5.714 -0.3177  0.0007 -0.0165
14826W        W30635   0.966   2.233   1.064  0.1467 -0.1230 -0.0788
14827W        W30636  15.094  11.936   0.208 -0.2634 -0.0451  0.0115
14828W        W30637   8.199   3.869  13.772  0.1616  0.2265 -0.0477
14829W        W30638  16.638  16.485   4.273  0.0863  0.0719  0.0722
14830W        W30639  16.835   9.040   3.583  0.0792  0.1388  0.2246
14831W        W30640  11.112  16.907   1.277 -0.0558  0.2180 -0.0408
14832W        W30641   6.605   3.490   0.763 -0.0369 -0.4396 -0.0031
14833W        W30642  15.968  17.151  16.099 -0.0369  0.1896  0.1131
14834W        W30643   7.715  14.140   0.421 -0.3907 -0.3752 -0.1868
14835W        W30644   9.331  10.767   4.794  0.0073  0.0752  0.1322
14836W        W30645   9.614   5.257   0.296  0.1693  0.3454  0.3049
14837W        W30646   9.465   9.296  15.587  0.3453  0.4985 -0.3494
14838W        W30647   6.586   0.735   3.053  0.1907 -0.1372  0.1729
14839W        W30648  16.534   0.735   5.120  0.0617 -0.0876  0.0344
14840W        W30649   3.199   6.272   2.875  0.0133  0.0589 -0.0077
14841W        W30650  10.352   9.786   0.772 -0.1449  0.1742  0.0356
14842W        W30651   3.992   4.819   3.736  0.2019 -0.1166 -0.0001
14843W        W30652   1.426   6.542  13.986 -0.1224  0.1475 -0.0067
14844W        W30653   8.256   6.921   0.452 -0.0930 -0.2670  0.2029
14845W        W30654   0.304   7.395  11.899  0.0810 -0.1272 -0.3362
14846W        W30655   5.667   3.503   2.419  0.2911 -0.0539 -0.0146
14847W        W30656  17.389  14.555  14.572 -0.2190 -0.1017  0.1321
14848W        W30657   3.392   6.131  14.918 -0.0037 -0.0311  0.2160
14849W        W30658  11.899  12.866  14.095  0.0776  0.0698 -0.0297
14850W        W30659   3.107   3.407   2.218 -0.2073  0.1848  0.0681
14851W        W30660   5.333   2.607   3.975  0.0360  0.1192 -0.1543
14852W        W30661   8.605  12.176   3.671  0.2339 -0.0742  0.2795
14853W        W30662   9.943  14.828   1.855 -0.4201 -0.0161 -0.0322
14854W        W30663  15.557  12.730   1.966 -0.2154 -0.0948 -0.1621
14855W        W30664   7.604  16.014   2.845 -0.0431  0.0773 -0.1036
14856W        W30665  14.775   4.246  12.011  0.2819  0.1799 -0.0203
14857W        W30666   2.196  12.087   4.123  0.0129 -0.0018 -0.1542
14858W        W30667   0.325  12.722  16.814 -0.0777  0.3504 -0.0990
14859W        W30668  13.104  11.072  11.657 -0.0346  0.0303  0.4713
14860W        W30669   3.637   4.204  13.843  0.1729 -0.0276  0.0745
14861W        W30670   8.016  16.198   2.611  0.1756 -0.1776 -0.0369
14862W        W30671  15.233   9.012   3.531  0.2609  0.1613  0.0143
14863W        W30672  16.304   3.998   1.376 -0.0987 -0.1839  0.0610
14864W        W30673   6.744  15.494   5.046 -0.1742  0.3515 -0.0138
14865W        W30674   8.981   3.343   2.213 -0.0887 -0.1293 -0.1108
14866W        W30675   2.320  14.920  12.112  0.1870 -0.1668 -0.1665
14867W        W30676  10.565   1.297  15.838 -0.1416 -0.0986  0.0496
14868W        W30677   3.457   8.480   4.111 -0.2156  0.2400 -0.3203
14869W        W30678  15.331   0.558  15.684  0.1441  0.0364  0.2745
14870W        W30679   4.423   5.219  12.311  0.1769 -0.1551 -0.1025
14871W        W30680   3.071  15.261   0.971  0.0023  0.2237 -0.0031
14872W        W30681   3.330   4.408  12.214  0.1760  0.1168 -0.0419
14873W        W30682  13.630  16.778   3.394  0.0804  0.0962 -0.0313
14874W        W30683  14.324   3.076  14.337 -0.2588 -0.1530  0.0007
14875W        W30684   5.311   3.682  13.470  0.0381  0.0828 -0.1142
14876W        W30685   6.965   4.887  12.413  0.4328 -0.0581 -0.5165
14877W        W30686  14.764   3.706  14.890 -0.0552 -0.2715 -0.2602
14878W        W30687  10.510   8.448   5.636  0.3490 -0.0896  0.1904
14879W        W30688  16.771  14.189   4.725  0.1669  0.2254  0.0546
14880W        W30689   1.229  16.016  11.276 -0.2355 -0.1115 -0.0387
14881W        W30690   6.697   9.514   1.619 -0.0758  0.0359 -0.2235
14882W        W30691   1.706   3.404  12.007  0.4034 -0.1537  0.0264
14883W        W30692   9.918  12.058   0.608 -0.1875  0.0600 -0.2587
14884W        W30693  17.490   5.075   6.698  0.0314 -0.1949 -0.2816
14885W        W30694   3.092   6.045  16.266  0.0061  0.1397  0.3176
14886W        W30695   9.011  15.305  12.390  0.1111  0.2596 -0.0032
14887W        W30696  10.730  13.030  16.686  0.1909 -0.3042  0.2500
14888W        W30697  11.622  15.154   2.151 -0.0722 -0.2046 -0.0334
14889W        W30698  10.934  11.268   5.624 -0.1276 -0.1229 -0.0071
14890W        W30699  13.050  13.364   4.823  0.0570 -0.1139 -0.2234
14891W        W30700  13.966   8.652  13.296 -0.2850  0.2817 -0.1573
14892W        W30701   3.885   0.162   5.556 -0.2244 -0.1133 -0.0844
14893W        W30702   8.953  15.026   1.952 -0.3022 -0.0593 -0.0112
14894W        W30703  17.524   5.455   0.936  0.0408  0.0032 -0.0763
14895W        W30704  12.335   8.912   1.611  0.1243  0.3017  0.1423
14896W        W30705  15.561   7.239  14.178  0.0880  0.2064  0.1344
14897W        W30706  15.721   3.563   2.718 -0.2473  0.0975  0.1861
14898W        W30707   2.368   2.297   0.395 -0.0761  0.0328 -0.0547
14899W        W30708   8.710  11.073  16.099  0.0156  0.0083  0.0092
14900W        W30709   8.159   3.162   4.396 -0.2723  0.1183 -0.3086
14901W        W30710   4.555   3.075  14.623  0.0577 -0.2019 -0.0057
14902W        W30711  12.890  10.074  16.164  0.0277 -0.2699 -0.1782
14903W        W30712  14.374   8.437  14.187  0.1323 -0.1712  0.0438
14904W        W30713  10.670  11.544  12.589 -0.2569 -0.2827 -0.1163
14905W        W30714   1.904   1.246  16.160 -0.3650 -0.0066  0.0884
14906W        W30715   1.236  15.917   4.038  0.3138  0.1823 -0.1361
14907W        W30716   7.205   9.376   1.159 -0.1513  0.1517  0.0453
14908W        W30717  11.608   8.636  12.806  0.3792  0.1401  0.1762
14909W        W30718  13.470   1.656  12.864 -0.2210  0.0599  0.2559
14910W        W30719  12.838   0.943  13.264 -0.0320  0.0988  0.0192
14911W        W30720   5.666   5.121   5.704  0.1062 -0.2979 -0.2083
14912W        W30721  10.705   3.948  15.414  0.1574  0.0888  0.0193
14913W        W30722   2.346   4.492   1.863 -0.0991 -0.1758 -0.0926
14914W        W30723   3.614   1.020  14.701 -0.3581 -0.3236 -0.1346
14915W        W30724  17.355  12.424   4.833  0.2742 -0.1198  0.3737
14916W        W30725   8.307  13.647  10.489  0.1844 -0.2537  0.1687
14917W        W30726  17.705   1.292  15.258  0.0976 -0.0938 -0.1289
14918W        W30727  15.780   1.403  15.331  0.1150 -0.0859  0.0262
14919W        W30728   6.831   7.899   4.166  0.1631  0.0202  0.2680
14920W        W30729   5.634   2.686   1.418  0.0089  0.1625  0.2347
14921W        W30730  16.463   3.853   4.105 -0.1209  0.1935 -0.3967
14922W        W30731  17.625   4.371   2.699 -0.2249  0.1855  0.0478
14923W        W30732   2.004   9.937  14.796 -0.0198  0.0961 -0.2171
14924W        W30733   5.081  10.921  14.575  0.4342 -0.0068  0.3161
14925W        W30734   9.288   2.400   3.550 -0.0715 -0.0725  0.1145
14926W        W30735   0.602  11.263  14.223  0.0588 -0.2663  0.2954
14927W        W30736   5.975  11.947  15.185 -0.0841  0.3697  0.0825
14928W        W30737  14.420   6.172   1.460  0.1940 -0.0495 -0.0813
14929W        W30738  10.967   1.690  11.597  0.1584  0.2583 -0.2860
14930W        W30739   5.731   2.270   5.197 -0.2249  0.3922 -0.4348
14931W        W30740  14.972   4.640  14.613 -0.0815 -0.3766  0.0000
14932W        W30741   1.280   9.278   0.444  0.0068  0.0679  0.2087
14933W        W30742   1.845   0.701   2.973  0.0462 -0.1305  0.0468
14934W        W30743  15.681  12.517  12.726  0.1038 -0.1947  0.1296
14935W        W30744   2.651  10.593   5.318  0.0165 -0.1883 -0.0070
14936W        W30745   4.841   4.578  16.362  0.1269 -0.0000  0.0524
14937W        W30746   1.168  12.313  14.753  0.3775 -0.0907  0.0766
14938W        W30747   7.469  17.434  12.535  0.1887  0.1641 -0.0901
14939W        W30748  16.179   6.406   5.965  0.0170  0.2100  0.2056
14940W        W30749   9.159   5.644  15.165 -0.3954 -0.0686 -0.0376
14941W        W30750   0.051   0.729  14.679  0.0315  0.2289  0.0005
14942W        W30751  12.332   6.079   4.392  0.3029 -0.1495 -0.0087
14943W        W30752  13.445  16.195   5.671  0.1024 -0.1315 -0.1735
14944W        W30753   4.424   5.668  13.213  0.3226  0.0981  0.0102
14945W        W30754   9.787   2.355  16.164 -0.0648  0.3188  0.1645
14946W        W30755   8.732  13.689   0.247 -0.2463 -0.1086 -0.2092
14947W        W30756  10.836  17.332  13.773  0.3182 -0.1478  0.2129
14948W        W30757   6.181   2.572   4.507  0.0957  0.3907 -0.2153
14949W        W30758  16.042  10.404  11.448 -0.0726 -0.1532 -0.3172
14950W        W30759   1.368   7.713   2.139  0.2023  0.2716  0.1897
14951W        W30760  12.973  14.585   4.255 -0.1830 -0.0736 -0.0581
14952W        W30761   5.844  16.515  15.644  0.1539 -0.0462 -0.0121
14953W        W30762  15.349   1.610  12.509 -0.1604  0.1959 -0.4660
14954W        W30763  14.826   5.898   5.356 -0.1102 -0.0834 -0.0129
14955W        W30764  10.072   2.397  13.685  0.1088 -0.1098  0.0329
14956W        W30765   4.155   5.703  15.110  0.1433  0.0708  0.3136
14957W        W30766  14.697   6.073  13.515 -0.0191 -0.0284 -0.0059
14958W        W30767  15.961   7.873  11.859 -0.0164  0.1619  0.0992
14959W        W30768  12.278  17.293  16.784 -0.0995  0.2194  0.0739
14960W        W30769   5.487  13.103   0.659  0.1727 -0.2429  0.2897
14961W        W30770   2.058   4.734   2.835  0.0751  0.2841 -0.0703
14962W        W30771   1.286   1.602   4.476  0.0251 -0.3438  0.0803
14963W        W30772   4.229  13.350   1.414  0.1255 -0.0860  0.0829
14964W        W30773  16.908   0.821  13.218 -0.1420 -0.0632  0.1171
14965W        W30774   7.246   2.018  12.795 -0.2808  0.1721 -0.1128
14966W        W30775   2.061   0.402  14.011 -0.2272  0.1564  0.0912
14967W        W30776   4.394  17.377   2.952 -0.0179 -0.0773  0.0153
14968W        W30777   6.876   2.707  15.447 -0.2194  0.1316 -0.1566
14969W        W30778  17.144  16.524   1.471 -0.1139 -0.0643 -0.0830
14970W        W30779  15.636   5.280   5.947 -0.0594  0.0009 -0.0314
14971W        W30780   5.030  13.276   3.215 -0.0743 -0.0715  0.2431
14972W        W30781   3.962  13.710   2.136 -0.3983  0.1138 -0.0468
14973W        W30782  11.815   6.761  13.343  0.1092 -0.0548 -0.1996
14974W        W30783   7.471  10.282  11.815  0.0203 -0.3448 -0.1240
14975W        W30784  10.867  10.222   1.511 -0.0587 -0.1076  0.3415
14976W        W30785   4.959  11.994   4.737  0.1750  0.2611  0.3165
14977W        W30786  14.183   3.761   5.360 -0.2167 -0.0613  0.1886
14978W        W30787  15.329   3.998   0.188  0.0858 -0.1497 -0.0584
14979W        W30788   8.840   0.487  13.470  0.0591  0.1466  0.2238
14980W        W30789   5.574   6.501  11.821 -0.2424 -0.1790  0.0334
14981W        W30790   8.384   7.099  14.309 -0.0835  0.0467 -0.0471
14982W        W30791  12.011   4.575   6.994  0.2921 -0.0272 -0.0553
14983W        W30792  14.865   7.957  13.241 -0.0820  0.1557  0.0539
14984W        W30793   7.269  13.019  16.713  0.1348 -0.3509 -0.0359
14985W        W30794  13.299   5.280   5.977  0.0309 -0.0037  0.0382
14986W        W30795   2.292  16.395  16.270 -0.1796 -0.0146  0.0738
14987W        W30796   0.190   1.719   2.069 -0.0990  0.1673  0.1571
14988W        W30797  11.642  11.733  15.879 -0.1808 -0.3058  0.2138
14989W        W30798   2.696   6.788   5.919  0.1732  0.0098 -0.1783
14990W        W30799  14.271   9.670   3.306  0.2320  0.0735 -0.0232
14991W        W30800  14.567  14.822   1.386  0.0270  0.1227 -0.2911
14992W        W30801  16.111  16.396   1.802 -0.1715  0.0849  0.0656
14993W        W30802  13.752   3.192  15.955  0.0284 -0.2423 -0.2015
14994W        W30803  12.947  15.078  15.454 -0.1384  0.1699  0.0756
14995W        W30804  15.230   1.327  15.428  0.1104 -0.0847  0.1561
14996W        W30805  14.593  14.664  14.867 -0.0552 -0.1348 -0.1850
14997W        W30806  15.966  15.743   0.873  0.2405  0.1954 -0.0084
14998W        W30807  12.940   9.769   0.517 -0.2449 -0.2363 -0.0261
14999W        W30808  15.498   9.172  12.917  0.0639 -0.0573  0.2481
15000W        W30809  14.757   4.614   5.422 -0.3278 -0.0373  0.0916
15001W        W30810  14.471   8.607   0.443  0.1147 -0.0024 -0.0495
15002W        W30811  12.791   2.879   0.747 -0.0032  0.1034 -0.0668
15003W        W30812  15.735   5.415   3.505 -0.0122 -0.0984 -0.3135
15004W        W30813  12.651   5.967  16.846  0.3367 -0.2658  0.0837
15005W        W30814  17.203   7.464   1.641  0.2863  0.4098  0.3267
15006W        W30815   3.234   7.914   5.977 -0.1618  0.3826 -0.1369
15007W        W30816   1.110  15.778   2.283 -0.0330  0.0330  0.0120
15008W        W30817   2.924   6.360   5.165 -0.3043 -0.0082 -0.0003
15009W        W30818   9.586   3.821   3.833 -0.1071 -0.2433 -0.1266
15010W        W30819  14.636  16.648  16.965  0.1618  0.1339 -0.3096
15011W        W30820   2.747   3.432   3.072  0.0105 -0.2082  0.1581
15012W        W30821   7.078  11.358  11.138  0.0053 -0.2208 -0.3346
15013W        W30822  11.446  10.486  12.348  0.1070  0.0475  0.0234
15014W        W30823  11.329   4.057   3.608  0.0658  0.2863 -0.0186
15015W        W30824  10.088  13.919   0.665  0.0914 -0.1151 -0.0078
15016W        W30825   7.528   1.480  14.018  0.0353 -0.0343  0.1097
15017W        W30826   0.555  10.353  16.708  0.1903 -0.0531  0.1580
15018W        W30827  15.351   8.138   2.636  0.2507 -0.1785  0.1008
15019W        W30828   6.428  10.816  13.098 -0.1193 -0.1900  0.1550
15020W        W30829   2.181  15.731  14.060 -0.2725  0.0489 -0.1518
15021W        W30830  14.579   7.541   3.865 -0.0052  0.0424  0.1083
15022W        W30831  17.255  15.103   3.237  0.1126  0.3789 -0.3455
15023W        W30832   1.274   4.942  14.617 -0.0733  0.1228  0.1409
15024W        W30833   9.371  12.844  15.425 -0.2835  0.0199  0.4237
15025W        W30834   3.827  17.737  14.736 -0.1075 -0.0871 -0.2313
15026W        W30835  17.173  13.043   2.917  0.0909 -0.2915  0.1960
15027W        W30836  14.990   5.708   3.590  0.0499  0.0408 -0.1830
15028W        W30837  16.928   9.468  14.974  0.1311 -0.2959  0.2442
15029W        W30838   2.568  13.081  12.330  0.0159 -0.1333  0.1699
15030W        W30839   0.862   6.562   4.186 -0.2735 -0.2191  0.0518
15031W        W30840  10.053   8.580   4.618  0.2116 -0.2535 -0.1239
15032W        W30841  16.346   9.130   3.592 -0.2441  0.3278  0.1549
15033W        W30842   7.516   0.879   4.555 -0.0654 -0.1008  0.2831
15034W        W30843   8.043   1.346  13.155  0.0652  0.0099 -0.4438
15035W        W30844  13.698  10.874   5.089  0.1056 -0.1056 -0.1676
15036W        W30845  15.769  13.185   2.112  0.0086  0.0242  0.1289
15037W        W30846  13.309  15.709  13.069  0.0439 -0.0286 -0.1880
15038W        W30847   3.208   5.463   5.491 -0.1479  0.0467 -0.0932
15039W        W30848   9.006   1.998   0.258 -0.0204 -0.1040  0.2151
15040W        W30849  11.072   5.005   3.565  0.1309  0.2387  0.0026
15041W        W30850   3.267   7.283  13.548 -0.1427  0.1461  0.1763
15042W        W30851   7.943   0.860  13.248 -0.0815  0.0648  0.1970
15043W        W30852  16.195   2.814   1.894 -0.0928  0.1353 -0.0453
15044W        W30853  10.847   3.309   1.115  0.1709  0.0837 -0.0908
15045W        W30854   3.417   3.357   3.522 -0.0589  0.0149  0.1220
15046W        W30855   9.317   0.055   2.289 -0.0599 -0.2385  0.0938
15047W        W30856   9.001   1.672   2.347 -0.1452  0.0434  0.2516
15048W        W30857  11.591  14.349   1.898 -0.0033 -0.2973  0.3556
15049W        W30858   4.808   2.606  12.090 -0.3965  0.4809 -0.0175
15050W        W30859  15.392  13.144  13.455  0.0615  0.0299 -0.0539
15051W        W30860   6.126  12.766   4.534  0.1494  0.0663  0.0083
15052W        W30861  14.140  15.378  11.638 -0.0913 -0.0627  0.2260
15053W        W30862   3.112   2.782   0.751  0.0046  0.1733  0.2548
15054W        W30863   6.528   2.219  13.583  0.1244 -0.2972  0.0372
15055W        W30864   7.950   0.399   0.305  0.1205  0.1663 -0.1940
15056W        W30865  11.556  11.251   3.606  0.1419  0.0156  0.1767
15057W        W30866  14.020   2.923   2.625 -0.0297 -0.0313 -0.0979
15058W        W30867  16.988   7.509   4.300  0.1596  0.0421  0.0093
15059W        W30868  13.269  12.638   0.741  0.0254  0.2522 -0.0938
15060W        W30869  15.934   4.444   5.234  0.1981  0.1127  0.0892
15061W        W30870   8.449  13.340  16.162 -0.0320  0.0812 -0.1018
15062W        W30871  17.126  11.900   1.579 -0.0801 -0.2310  0.3955
15063W        W30872   8.367   7.660  15.931  0.0104 -0.3003 -0.0149
15064W        W30873  10.873  10.661   5.285  0.0472  0.2801 -0.0169
15065W        W30874  15.781   0.593  16.940 -0.1783 -0.3365 -0.1940
15066W        W30875   3.264   5.956   4.649 -0.0772  0.0964  0.2033
15067W        W30876  14.728   5.797   4.010  0.1355  0.0406  0.2014
15068W        W30877  16.766   7.497  15.335  0.1282  0.0409 -0.1507
15069W        W30878   4.314   6.843   4.040 -0.2149 -0.1036  0.0720
15070W        W30879  10.848   0.057  15.200  0.1024 -0.2710  0.2227
15071W        W30880   1.609   6.863  15.468  0.3475  0.1577  0.0895
15072W        W30881   5.686   4.977  16.862 -0.4722 -0.0164  0.1453
15073W        W30882  14.866  10.799  16.022  0.0122 -0.2110 -0.0381
15074W        W30883   0.481   6.145   0.616 -0.1285 -0.4226 -0.0449
15075W        W30884  12.642  13.129  13.812 -0.1553  0.1523  0.4084
15076W        W30885  14.691  12.164  14.903  0.1302 -0.2046 -0.2269
15077W        W30886   5.530   2.882  12.166  0.0809 -0.2392 -0.1532
15078W        W30887   8.716   5.784   1.458  0.0753 -0.0460  0.3819
15079W        W30888  17.426  14.353  15.372  0.3070 -0.0269 -0.1971
15080W        W30889   9.675   0.532  11.315 -0.0525 -0.2973  0.0340
15081W        W30890   6.368   7.584   5.025 -0.0660 -0.1700  0.0649
15082W        W30891   0.370  15.498  10.282  0.0553 -0.2610  0.1132
15083W        W30892   9.565   9.703   1.807  0.0555 -0.0816  0.0885
15084W        W30893  15.012  13.178   5.129  0.2815 -0.0121  0.0401
15085W        W30894  10.119   0.664  16.878  0.3432  0.1108 -0.0325
15086W        W30895   3.045  17.725  15.989  0.0210 -0.3588 -0.0317
15087W        W30896   4.039  16.369   5.079 -0.0840  0.2918  0.2435
15088W        W30897   7.591  13.489   3.441 -0.0167 -0.0010 -0.0624
15089W        W30898  12.174  13.341   3.373 -0.0127 -0.0591 -0.2049
15090W        W30899  11.948  12.002   2.767  0.2321 -0.0937 -0.5250
15091W        W30900  14.744  17.294   4.980 -0.1782 -0.1082  0.1017
15092W        W30901   6.814  15.740  11.233 -0.0171 -0.1310  0.3107
15093W        W30902  15.713  15.493  16.538  0.1106  0.3321  0.1114
15094W        W30903  13.928   4.827   0.227  0.0030  0.0483 -0.0494
15095W        W30904   5.299   0.513  14.181  0.1678  0.2141 -0.1893
15096W        W30905   6.157  14.202  11.413  0.5503  0.0481  0.1105
15097W        W30906  17.738   9.596  15.342  0.0974 -0.0242  0.2449
15098W        W30907  10.470   9.404   3.204  0.1902  0.0330  0.1768
15099W        W30908  13.041  11.073  13.576 -0.0038  0.0350  0.2070
15100W        W30909   0.328  17.635  16.720  0.0267 -0.0175 -0.0187
15101W        W30910   2.691   6.861  14.475 -0.1212  0.3223 -0.2507
15102W        W30911  17.229   5.931   2.679 -0.0339  0.2175 -0.0841
15103W        W30912   7.146  14.387  16.738 -0.0184 -0.2853 -0.1508
15104W        W30913   8.511  15.265   4.200 -0.3004 -0.0779  0.0849
15105W        W30914   1.407   4.050   2.281 -0.1776  0.0551 -0.0882
15106W        W30915   4.665  13.779   3.383 -0.5252 -0.0598  0.0502
15107W        W30916  12.974   2.808  15.844 -0.0459  0.1799  0.0839
15108W        W30917  11.272   3.000  15.683  0.3794 -0.0990  0.0643
15109W        W30918   9.126   9.916   4.168 -0.0408 -0.1265 -0.2809
15110W        W30919  11.890   4.449  15.049 -0.0949  0.0290  0.0626
15111W        W30920  12.063  16.374  14.345  0.0780  0.3515 -0.1875
15112W        W30921  12.652   8.155   5.832 -0.2177 -0.0003 -0.3295
15113W        W30922   4.944  15.521   5.317 -0.0227 -0.0235  0.0519
15114W        W30923  17.341   4.576  15.681  0.2001 -0.1781 -0.1011
15115W        W30924  11.152   7.215   4.834 -0.4006 -0.2846 -0.0668
15116W        W30925  15.408  13.083   3.279 -0.2142 -0.3445  0.0860
15117W        W30926  11.191  12.245   4.693  0.2584 -0.3346 -0.1094
15118W        W30927  16.005   9.550  14.862  0.1829 -0.0780  0.3046
15119W        W30928   0.767  12.747   5.752  0.0307  0.1515  0.1663
15120W        W30929  13.142  14.541  11.974  0.3520  0.0739  0.1520
15121W        W30930   3.879   1.414  12.196  0.0776 -0.0276  0.1048
15122W        W30931   6.487  14.280   2.798  0.0155  0.3921  0.0764
15123W        W30932   2.450   3.288   4.366 -0.0206  0.1589 -0.1113
15124W        W30933   5.137   9.700   1.340 -0.0989  0.1381 -0.2036
15125W        W30934  10.900  12.537   1.966  0.0169  0.0849 -0.2424
15126W        W30935   9.654   7.282  15.426 -0.1600  0.1113  0.0714
15127W        W30936   7.690   0.122   2.901 -0.0537 -0.0566 -0.0856
15128W        W30937   2.649  10.639  15.497  0.1854  0.1683 -0.2815
15129W        W30938   3.102   4.833  12.187  0.1284  0.0935 -0.1620
15130W        W30939   3.837  14.989  15.336 -0.1438 -0.2347  0.2033
15131W        W30940   2.932  14.562   2.397 -0.2654 -0.2488  0.4695
15132W        W30941  11.302   1.391   5.524  0.0184 -0.0447  0.0173
15133W        W30942  14.670   0.494  12.841 -0.2507  0.0283 -0.1778
15134W        W30943   0.211  10.038   4.394 -0.0414  0.0667 -0.0516
15135W        W30944  14.340   8.695  13.623  0.1261  0.0041  0.0192
15136W        W30945   3.820  10.462   5.942 -0.1072  0.1187  0.4386
15137W        W30946   3.798   3.310   2.584  0.1366 -0.1514  0.2409
15138W        W30947   8.917   4.583  13.839  0.0058  0.3458  0.0377
15139W        W30948   1.741   9.437   5.726 -0.0437 -0.1366 -0.2189
15140W        W30949   1.801  11.849  16.809  0.5913 -0.0133  0.0235
15141W        W30950   9.111  10.550  15.956 -0.3403 -0.0100 -0.0729
15142W        W30951   8.450   6.451   0.257 -0.2079 -0.0594  0.1184
15143W        W30952   9.461   8.091   5.783  0.0714 -0.1481 -0.0497
15144W        W30953   9.053  17.346   1.649  0.0548 -0.1347  0.0416
15145W        W30954   8.830   2.215   3.625  0.0140  0.1733  0.1388
15146W        W30955  16.718   2.987   2.462 -0.1780 -0.1390 -0.0402
15147W        W30956   0.966   2.698  14.796 -0.0847  0.1076 -0.1380
15148W        W30957   9.915   2.919   2.974 -0.0630 -0.1394 -0.0260
15149W        W30958   7.487   2.542  13.807 -0.2445  0.1612  0.1445
15150W        W30959   7.726   2.573  15.175  0.1861 -0.0083  0.0507
15151W        W30960  13.782   6.899  14.911 -0.0499  0.1508  0.0878
15152W        W30961  10.337  16.954   4.289  0.0384 -0.0991  0.0021
15153W        W30962   1.879   6.237  12.803 -0.1206 -0.1847  0.1442
15154W        W30963  14.154   6.340   5.674  0.0920 -0.2215 -0.2386
15155W        W30964  12.143   9.982   5.445  0.0520  0.0661 -0.1390
15156W        W30965  17.594   5.597  12.314 -0.1928 -0.2670 -0.0110
15157W        W30966  17.562  12.417  15.503 -0.1514 -0.0012 -0.3881
15158W        W30967  16.437  14.228   2.517 -0.0151 -0.0289  0.1788
15159W        W30968  15.002   6.751  12.536 -0.3071 -0.0232 -0.1077
15160W        W30969  11.067   2.202  12.842  0.0471  0.0956  0.1128
15161W        W30970  16.011  14.405  15.954 -0.0224  0.0608 -0.0992
15162W        W30971  11.910   8.554  16.252 -0.1248 -0.0081 -0.0360
15163W        W30972  16.027   8.719  13.130 -0.0110 -0.0232  0.0624
15164W        W30973   9.313  16.977   5.238 -0.1623 -0.0244 -0.2823
15165W        W30974  16.071   9.535   3.829  0.0549 -0.1412  0.0091
15166W        W30975  16.165   5.453   6.620 -0.0979 -0.0984  0.1391
15167W        W30976  10.838  10.983   3.080  0.2445  0.1776  0.0529
15168W        W30977  11.172   6.619   2.656  0.1100  0.2671  0.0881
15169W        W30978   1.966  15.501  13.639 -0.2038 -0.1412 -0.1512
15170W        W30979   3.527   4.634   4.121 -0.0981  0.5559 -0.3010
15171W        W30980  11.660  11.594   4.819 -0.0034  0.0194 -0.0307
15172W        W30981  10.513  14.945  16.813 -0.3305  0.3111  0.1113
15173W        W30982  16.891  12.738  15.977  0.1520 -0.0642 -0.0047
15174W        W30983   0.497  12.222   4.957 -0.5085  0.2152 -0.2093
15175W        W30984   3.596   8.040   3.221 -0.0003 -0.0884 -0.0442
15176W        W30985   2.615  11.339  12.694 -0.2197 -0.0690 -0.0140
15177W        W30986  17.503  11.990  13.521 -0.2847  0.0908  0.0317
15178W        W30987  13.746   6.892  15.393  0.3932 -0.2107 -0.0925
15179W        W30988   2.905   6.705   1.538 -0.0084  0.0473  0.1620
15180W        W30989   7.141  12.578   0.872  0.0294  0.1050 -0.1247
15181W        W30990   3.779   3.589  15.073  0.1174  0.2964  0.1768
15182W        W30991   9.256   2.436  12.678  0.0781 -0.2587 -0.1459
15183W        W30992   7.041   7.679  13.158  0.2485  0.1072  0.3357
15184W        W30993   3.023   7.846  15.107 -0.0331  0.0164  0.0486
15185W        W30994  16.259   2.255   5.957  0.0778 -0.3291  0.1900
15186W        W30995   3.276   1.044  11.573 -0.2130 -0.0401 -0.1239
15187W        W30996   0.484   1.940   4.239 -0.2843  0.1967  0.2323
15188W        W30997   7.277  15.817   1.163  0.0381 -0.0860 -0.0759
15189W        W30998   2.144   1.761   5.473 -0.0154  0.0271 -0.3422
15190W        W30999  13.453   3.135   3.867 -0.0997 -0.0335  0.1267
15191W        W31000   5.558   0.600  12.358 -0.0946 -0.1776 -0.0703
15192W        W31001   0.423   8.654  15.414 -0.0042  0.2053  0.2408
15193W        W31002  13.311  15.948   9.995  0.1033 -0.0797  0.0748
15194W        W31003   9.888  10.824   4.917 -0.0503  0.0684  0.1446
15195W        W31004  13.855  14.473  16.550 -0.0199  0.1515 -0.0028
15196W        W31005   7.029   5.270   6.056  0.1299 -0.1300  0.1268
15197W        W31006   9.343   4.242  15.344 -0.1739 -0.3206  0.1708
15198W        W31007  16.233   4.761   5.781  0.1553 -0.2133  0.0718
15199W        W31008   1.513  11.140   2.879  0.0913  0.1073 -0.2592
15200W        W31009  17.534  17.612   4.713  0.1396 -0.2755 -0.2572
15201W        W31010   1.597   4.781   5.107 -0.2468 -0.1258 -0.1745
15202W        W31011   9.018   3.287   3.497 -0.2317  0.0348  0.4083
15203W        W31012   4.205  12.018  12.103 -0.2286 -0.1024 -0.0910
15204W        W31013  11.175   5.682  14.779 -0.2860 -0.3117 -0.1815
15205W        W31014   8.981   4.486  16.143  0.0467  0.0298  0.1641
15206W        W31015   7.711  11.092   1.083 -0.1994  0.0724  0.1425
15207W        W31016  13.516  10.413   3.465 -0.1530 -0.2653 -0.0526
15208W        W31017   2.968   1.082   1.162 -0.3025  0.1331  0.1478
15209W        W31018   0.647  12.927  15.012 -0.2778  0.1491 -0.0927
15210W        W31019   8.337   6.266   4.725  0.0992 -0.0606 -0.0200
15211W        W31020  13.156   1.006   3.753  0.1988  0.2131  0.0420
15212W        W31021  10.981  15.355  11.795 -0.0917 -0.0460 -0.3220
15213W        W31022   5.900   8.245  13.123 -0.1411  0.0160 -0.2746
15214W        W31023   4.528   3.688  15.370 -0.0384 -0.0680  0.3341
15215W        W31024  12.605   4.670   4.090 -0.2761  0.0007 -0.2316
15216W        W31025  10.233   1.472   0.629 -0.0904  0.2010  0.1871
15217W        W31026   7.754  13.905   3.701 -0.0702 -0.0266 -0.1968
15218W        W31027  17.626  11.750  16.311 -0.2909  0.0790  0.0298
15219W        W31028   6.382  15.593   1.063  0.0100 -0.0136 -0.1319
15220W        W31029   6.826   6.127   0.338 -0.1653  0.0679 -0.2971
15221W        W31030  17.545  13.168  13.301  0.1817  0.1319  0.2232
15222W        W31031   0.401  15.386  16.754  0.0501 -0.1807 -0.2602
15223W        W31032   7.429  15.652  12.440  0.0289  0.1080  0.2045
15224W        W31033  14.662   7.293  13.963 -0.0971 -0.0488  0.1579
15225W        W31034  11.726  12.932   5.074  0.2195  0.0412 -0.2185
15226W        W31035   6.171  17.486   5.246  0.0925 -0.5305 -0.4023
15227W        W31036   3.625   4.809  12.065  0.1679  0.0055  0.1593
15228W        W31037   9.866  17.264   4.031 -0.0783  0.0438  0.3535
15229W        W31038   6.690  14.282   3.728 -0.1694  0.1896 -0.2538
15230W        W31039   4.167   3.422  16.890 -0.0443 -0.1227 -0.0424
15231W        W31040   3.999  10.403  11.837 -0.0704 -0.3658 -0.0736
15232W        W31041  15.350   3.409   4.765  0.0789 -0.0456 -0.1413
15233W        W31042   3.138  12.984  16.357 -0.0470 -0.0263  0.0167
15234W        W31043   4.199  13.994   1.734  0.0656 -0.0427 -0.1609
15235W        W31044  11.808   7.212   1.629  0.3517 -0.3857 -0.0155
15236W        W31045   0.492   4.285   0.697  0.3311  0.0492 -0.2181
15237W        W31046  12.538   5.335   1.665  0.0637 -0.0186 -0.1247
15238W        W31047  14.732   5.142  13.850  0.0284 -0.1482 -0.1124
15239W        W31048   3.037   0.036   5.360 -0.0571 -0.3615  0.0965
15240W        W31049   7.654   9.080   1.052  0.0399  0.0302 -0.1583
15241W        W31050   1.244   9.714  16.765 -0.0435  0.3671 -0.0909
15242W        W31051   6.434   2.994  14.079  0.2724 -0.1035  0.0842
15243W        W31052  12.513  16.477  15.221  0.1858 -0.0469  0.1539
15244W        W31053   1.602   4.173  12.866 -0.3309  0.4655 -0.4371
15245W        W31054  12.896   4.684   0.004  0.1746  0.0018 -0.1979
15246W        W31055  13.173  16.188   4.985  0.1490 -0.0168 -0.2069
15247W        W31056   1.476  16.279   6.135 -0.3716  0.0816  0.0411
15248W        W31057   6.132   1.400   5.058 -0.0039  0.0145 -0.2286
15249W        W31058   9.607  16.287  11.775  0.0134  0.0215 -0.1233
15250W        W31059   1.405  14.689   0.000 -0.0262 -0.1108  0.1127
15251W        W31060   4.628  13.656  13.060  0.3751 -0.0248  0.2730
15252W        W31061   2.544  14.235   0.388 -0.2889 -0.1026 -0.0398
15253W        W31062  15.309  14.689  16.768 -0.0186 -0.2383 -0.1550
15254W        W31063  14.025  16.643  14.562  0.0329  0.0501 -0.1524
15255W        W31064   5.288   4.472   0.990 -0.4232 -0.1629 -0.4653
15256W        W31065  16.123   2.751   4.270 -0.0396  0.0209 -0.0524
15257W        W31066  16.317  11.739   0.543  0.0477  0.2777  0.0512
15258W        W31067   8.254   6.173   2.868 -0.0154  0.1976  0.2338
15259W        W31068  15.118  10.142   2.824 -0.2497 -0.1239  0.1670
15260W        W31069   4.580  15.090   1.146 -0.0335  0.1492 -0.1924
15261W        W31070  11.894  16.424  11.474  0.1559  0.2075  0.3775
15262W        W31071   7.122  17.252  12.097 -0.0594  0.1026  0.2583
15263W        W31072   6.648   9.735  15.381  0.2457 -0.0168  0.0421
15264W        W31073   6.071  14.626   1.427 -0.3093  0.0612  0.0210
15265W        W31074  11.420   4.405  14.846 -0.0791 -0.0209 -0.1186
15266W        W31075   2.752  12.022  12.325 -0.2637 -0.0882  0.0929
15267W        W31076   0.675  17.264  16.457  0.0231 -0.1366  0.2047
15268W        W31077   3.117  14.194  16.047 -0.2274 -0.1336 -0.2208
15269W        W31078   7.692   4.966  11.825 -0.0996  0.0719 -0.0305
15270W        W31079   6.378   9.478  15.838 -0.0859  0.1789  0.0543
15271W        W31080   7.787   0.269   5.599 -0.0794 -0.0720  0.1259
15272W        W31081   8.061   7.381   0.219 -0.2153  0.0556  0.1698
15273W        W31082  16.972   3.262   2.864 -0.0262  0.0540  0.1521
15274W        W31083  15.120  17.003  15.465 -0.0079  0.1011  0.1797
15275W        W31084  14.393   0.048  12.770 -0.1051  0.0462 -0.0955
15276W        W31085   1.936   6.216   4.707 -0.0108 -0.0152 -0.2182
15277W        W31086   8.762  10.693  12.492 -0.1008  0.2239  0.2526
15278W        W31087   5.112   7.554  16.679  0.2614  0.3126  0.0483
15279W        W31088   1.628   3.032   4.885 -0.2758 -0.3198  0.1640
15280W        W31089  16.417  14.868   2.154  0.1855 -0.0096 -0.1650
15281W        W31090   0.324  17.714  11.849 -0.1666 -0.2205  0.1216
15282W        W31091   6.154   4.371  12.554 -0.1897 -0.0823 -0.0231
15283W        W31092   7.764  11.715   2.249 -0.2480 -0.3952 -0.0056
15284W        W31093   2.966  11.166   0.559 -0.1038  0.0930 -0.1012
15285W        W31094  14.218  11.390  16.931 -0.0314  0.2117 -0.1336
15286W        W31095  14.343   2.696   5.413  0.1202 -0.1278  0.1733
15287W        W31096   9.706   2.819  14.941  0.1440 -0.1309 -0.0287
15288W        W31097   8.192  13.804   3.444  0.3408 -0.2094 -0.1928
15289W        W31098   4.861   9.171   2.887  0.1916 -0.1807 -0.1935
15290W        W31099  15.187   2.845  14.757  0.0157  0.0207  0.1975
15291W        W31100  15.128  17.227  13.183  0.2139  0.0865  0.0015
15292W        W31101   0.767   0.878   2.886  0.1838  0.1611  0.1358
15293W        W31102   2.370  14.315  16.863  0.1390  0.0588 -0.1292
15294W        W31103   7.711  15.320   0.982  0.1711  0.1510  0.1916
15295W        W31104  10.835  16.402  14.980  0.0659  0.1250 -0.2291
15296W        W31105  11.465   8.869   0.976 -0.1435 -0.1448 -0.0871
15297W        W31106  13.814   3.231  15.038 -0.0090  0.3413  0.3000
15298W        W31107   2.213   1.658  13.161  0.1860  0.1689  0.0638
15299W        W31108  12.322   7.775  13.464  0.3179  0.0160  0.1940
15300W        W31109  13.263  14.717   5.923 -0.1821  0.1773  0.3663
15301W        W31110   5.957  15.294   2.339 -0.0459 -0.0649  0.1261
15302W        W31111   7.216   3.820  12.906 -0.1199 -0.1621  0.0260
15303W        W31112  17.152   7.281   4.748  0.2060 -0.0937  0.1824
15304W        W31113   8.794  10.085  13.617 -0.0088 -0.1650  0.0732
15305W        W31114  13.595  12.525   2.425  0.1670 -0.0878 -0.0345
15306W        W31115   1.647  17.026   3.877  0.0772 -0.0873  0.1083
15307W        W31116  13.264   5.792   6.130 -0.1906  0.1183  0.0302
15308W        W31117  17.412  10.298  14.461  0.2854  0.0122  0.1049
15309W        W31118   0.071   3.886   0.016 -0.1171 -0.0716 -0.2294
15310W        W31119   8.777  13.748   3.563  0.0151  0.2208 -0.1472
15311W        W31120   2.486   8.940  13.856 -0.2220 -0.1180 -0.3012
15312W        W31121   3.330  11.931  14.607  0.1338  0.0612 -0.2037
15313W        W31122   7.151  12.271  11.096  0.0394 -0.1865 -0.0919
15314W        W31123  12.798  14.084   0.985  0.0846 -0.2353 -0.2199
15315W        W31124   5.987  11.536   0.686 -0.1868 -0.0917 -0.2845
15316W        W31125   9.977  11.259  16.747 -0.1084 -0.1422  0.1174
15317W        W31126   8.957   0.322  12.518 -0.1278 -0.2525  0.1217
15318W        W31127   5.908  14.087  14.998  0.0874  0.0886  0.1456
15319W        W31128   5.557  15.991  16.762 -0.1430 -0.0398  0.2530
15320W        W31129  16.007  12.584   4.815  0.0641  0.0398  0.0493
15321W        W31130   1.237   4.654  13.487 -0.1490 -0.1746 -0.2567
15322W        W31131  13.062   2.233   3.679  0.1522 -0.0613  0.2929
15323W        W31132  11.433   7.405   6.339  0.1520  0.0968  0.0048
15324W        W31133  10.619   8.853  16.830  0.0321  0.1544  0.2126
15325W        W31134   4.186   0.341  14.824 -0.0331 -0.1281  0.1821
15326W        W31135  17.185  11.447   3.279  0.0879  0.0269  0.0599
15327W        W31136   9.699  15.060  16.737  0.0607 -0.1146 -0.1077
15328W        W31137  15.062   1.801  14.088 -0.0801  0.1260 -0.1515
15329W        W31138   4.207  16.387  11.392 -0.1988 -0.0001  0.1173
15330W        W31139   4.600   8.818  16.576  0.2521  0.0894  0.1366
15331W        W31140   3.934   6.870   2.677  0.1772 -0.2841 -0.1020
15332W        W31141  13.688   4.238  15.894 -0.3041 -0.0644  0.2035
15333W        W31142  14.025  17.190   1.958  0.1260  0.1180  0.3157
15334W        W31143   9.727  14.860   3.016  0.1802 -0.2717  0.0348
15335W        W31144  10.169  11.432   1.928 -0.1623  0.1132  0.0957
15336W        W31145   3.090  13.835   1.247 -0.0681  0.0161 -0.1293
15337W        W31146  10.189  16.287  16.015  0.1733  0.3330 -0.0123
15338W        W31147  10.559   6.746  12.350  0.1113  0.2095  0.0549
15339W        W31148  17.351   3.685   0.201  0.1736  0.0242  0.2375
15340W        W31149   7.721   9.012   4.026  0.2012 -0.1445  0.0156
15341W        W31150   5.267   8.325   0.709 -0.0532 -0.1933 -0.2975
15342W        W31151  15.289  12.852   1.467 -0.2926  0.1889  0.3971
15343W        W31152  14.430   7.656   0.503 -0.4632 -0.0819  0.1912
15344W        W31153   8.564   0.296   0.342  0.1647 -0.0281  0.1701
15345W        W31154  13.006  12.331   4.706  0.0894 -0.1652  0.1953
15346W        W31155  17.048   7.166  11.828 -0.0321  0.0777  0.1233
15347W        W31156   2.786  12.220   3.610 -0.1891 -0.5041  0.1119
15348W        W31157   9.848  16.899  15.492  0.1704 -0.0213  0.1934
15349W        W31158  10.304   2.517  14.185  0.0235 -0.0153  0.2607
15350W        W31159   7.439   5.561  15.748  0.0079  0.0176 -0.0643
15351W        W31160   1.017  15.808   1.347 -0.2447 -0.0691  0.1264
15352W        W31161  13.742   6.237  12.858 -0.0468 -0.0122  0.3010
15353W        W31162   5.248   1.573  14.095  0.1421  0.4442  0.0586
15354W        W31163   8.042   5.275   1.372 -0.0854 -0.1837  0.1403
15355W        W31164   2.239  15.655  14.628  0.1780  0.2069 -0.0773
15356W        W31165  12.733   9.849  11.905  0.1767  0.3050  0.0240
15357W        W31166   5.941  14.031   3.872 -0.3628 -0.0946  0.0278
15358W        W31167  12.394  12.996  14.272 -0.0096  0.1391 -0.1343
15359W        W31168   7.357   2.946  14.116  0.0595  0.1671  0.4484
15360W        W31169   9.068   9.719  13.880  0.1630  0.3517 -0.1612
15361W        W31170   2.408   1.101   2.171  0.4118  0.1252 -0.3906
15362W        W31171  15.742   8.510   4.221  0.0444  0.3092  0.3029
15363W        W31172   9.418  10.200  15.680  0.0548 -0.4102 -0.3920
15364W        W31173  15.364  16.609   5.622  0.1168  0.2408 -0.2842
15365W        W31174   4.786  16.299   2.348 -0.3194  0.0679 -0.1490
15366W        W31175   9.624   9.107   0.930  0.4055 -0.1638  0.3261
15367W        W31176   6.382   7.551   3.782  0.1223 -0.2035  0.0670
15368W        W31177   0.180  10.889   2.643  0.1350  0.0146  0.0087
15369W        W31178   1.980   8.927  13.627  0.0327  0.3739 -0.0894
15370W        W31179   8.140  16.121  11.654  0.0217 -0.2577 -0.0231
15371W        W31180   4.601   8.154  16.585 -0.3526 -0.1637 -0.3288
15372W        W31181  13.319  16.723  16.660 -0.0904 -0.2253  0.1274
15373W        W31182   4.790   1.604  15.296 -0.0965 -0.0983  0.1720
15374W        W31183   4.952  14.627  12.600 -0.0458 -0.0631 -0.1454
15375W        W31184  11.391  12.321   0.841 -0.2274  0.0929 -0.1371
15376W        W31185   9.848  14.147  10.163  0.2174 -0.1391  0.1265
15377W        W31186   7.229  10.505   0.056  0.2562  0.2446 -0.1550
15378W        W31187  15.731   8.866  14.659 -0.3616 -0.3077 -0.0797
15379W        W31188  10.295   2.715   3.766  0.0042  0.1127  0.0336
15380W        W31189  16.901  17.658  14.532 -0.0188 -0.0237  0.0121
15381W        W31190   3.008   6.712   3.094  0.4025  0.0525  0.0504
15382W        W31191   8.887   4.744   1.689  0.1457  0.2384  0.0839
15383W        W31192   5.322   1.924  16.690 -0.1728  0.0120 -0.0870
15384W        W31193   6.060   6.361  16.614 -0.1686 -0.0735 -0.2993
15385W        W31194   1.799   5.586  15.967 -0.0761  0.5572  0.0296
15386W        W31195   2.698   2.219   1.219  0.3771  0.5061  0.2162
15387W        W31196   3.243   2.053  13.546  0.2896  0.1266 -0.0451
15388W        W31197  10.432  14.921  11.191 -0.0724 -0.0041  0.2123
15389W        W31198  10.387   9.683   4.140  0.1513  0.1129  0.3114
15390W        W31199  17.544  15.427  14.282 -0.0737  0.1597  0.2427
15391W        W31200  12.950   4.292   2.955  0.5334 -0.0085 -0.2268
15392W        W31201  12.009  15.146  15.276  0.0464 -0.0459 -0.1996
15393W        W31202  14.843   2.505  14.602  0.1079  0.0674  0.2086
15394W        W31203   3.733   2.068   3.246  0.2022  0.2477 -0.0239
15395W        W31204  13.133   4.509  16.266 -0.0491  0.0460 -0.0349
15396W        W31205   9.331   9.113  14.883 -0.1211  0.3715  0.0598
15397W        W31206   7.212   9.250   3.870  0.1723  0.2556  0.0476
15398W        W31207   1.616  14.118   3.986  0.3230  0.1533 -0.1588
15399W        W31208  10.816   0.260  16.563  0.1111 -0.0441 -0.1641
15400W        W31209  11.033   5.373   4.045  0.0244  0.1838  0.2571
15401W        W31210   8.564   8.633   0.234  0.1564  0.0586 -0.0013
15402W        W31211   9.868  12.599  11.519  0.0771 -0.5262 -0.1082
15403W        W31212   6.850   4.204   3.901  0.0453 -0.0438 -0.1797
15404W        W31213  16.333   3.141  13.259  0.0945 -0.3286 -0.0481
15405W        W31214   1.307  15.767   0.898 -0.0169 -0.1626 -0.0963
15406W        W31215  11.227  17.513  13.402  0.1930  0.0282 -0.2893
15407W        W31216   7.632  17.641   4.334  0.0060  0.1906 -0.0221
15408W        W31217  14.769   8.705   5.529  0.0296  0.0005  0.1979
15409W        W31218   0.529   6.723  12.632 -0.0092  0.0210  0.0877
15410W        W31219   8.357   2.046  12.075  0.0681  0.0312  0.2810
15411W        W31220  12.101  11.126  16.119  0.2936  0.0558 -0.2099
15412W        W31221  11.897   7.431  13.795 -0.1433 -0.0522 -0.1396
15413W        W31222   0.681   9.681   2.383 -0.0176  0.2194 -0.1644
15414W        W31223   5.947   6.984   2.084  0.1258  0.0963 -0.3244
15415W        W31224  17.637   0.385  16.331 -0.4561  0.3094  0.2147
15416W        W31225  17.379  10.697  12.763 -0.1643 -0.2493  0.0715
15417W        W31226   2.971   4.517   2.465  0.1193  0.0309 -0.1141
15418W        W31227  13.898  16.417   5.490 -0.2003 -0.0598 -0.0929
15419W        W31228  11.685   6.929  12.849 -0.0265 -0.0629  0.0303
15420W        W31229   4.091  11.661  15.279  0.1836  0.0843 -0.0801
15421W        W31230   3.023   5.704  14.183  0.2030 -0.1926  0.2741
15422W        W31231   6.753  15.284  13.449 -0.0764 -0.0602 -0.0527
15423W        W31232  11.290   7.281   1.422 -0.1666  0.1766  0.3187
15424W        W31233   9.712  12.357   5.520  0.0652  0.3627  0.1250
15425W        W31234  15.830   8.133   3.895 -0.1361 -0.1442 -0.3695
15426W        W31235   7.050  11.976   0.119  0.1077  0.0262  0.2419
15427W        W31236   4.228   6.338  16.484  0.3945 -0.4368 -0.1446
15428W        W31237  15.227  14.537   0.646 -0.0952 -0.1293 -0.1325
15429W        W31238  11.021  16.896   2.159  0.0306  0.0337  0.1157
15430W        W31239   0.026   6.405  13.788 -0.3172  0.1610 -0.3935
15431W        W31240   0.683  13.552   0.378 -0.1700 -0.3048 -0.1931
15432W        W31241   9.070   7.901   6.247  0.0710  0.4639  0.1895
15433W        W31242  13.191   0.907   2.512 -0.0666 -0.1489  0.1770
15434W        W31243   8.807   0.384   3.739 -0.0576 -0.3181  0.2599
15435W        W31244  16.073   3.100   0.424  0.0924  0.0043  0.2009
15436W        W31245  16.615   4.443  13.536  0.0387 -0.3409  0.0091
15437W        W31246  13.303   3.950   3.208  0.1614  0.4533  0.1924
15438W        W31247  15.347  14.973  11.722  0.3196 -0.0857  0.1214
15439W        W31248  12.623   9.443   1.116 -0.0284 -0.1617  0.1471
15440W        W31249  14.777  11.737  16.241 -0.3279  0.1567 -0.2495
15441W        W31250  15.095   2.263  16.875 -0.0298 -0.5079  0.2549
15442W        W31251   1.079  11.842   3.262 -0.1669 -0.0238  0.0200
15443W        W31252  17.661  17.397   0.942  0.3158  0.3406 -0.0016
15444W        W31253   1.135  11.675   4.557 -0.0588 -0.0470  0.0806
15445W        W31254   3.656   8.265  15.645  0.0057 -0.0866 -0.0830
15446W        W31255   2.751   5.898   0.374 -0.0333  0.0911  0.0445
15447W        W31256  17.015  14.743   3.972  0.5078  0.1211 -0.3080
15448W        W31257   9.683  11.703  16.835  0.1016 -0.0412 -0.1091
15449W        W31258  16.365  10.873  15.625  0.2025 -0.0446 -0.0399
15450W        W31259   7.322  15.602   2.134  0.1879  0.2805 -0.2096
15451W        W31260   8.520  16.186   5.754  0.1487 -0.1430 -0.0745
15452W        W31261  17.513   0.363  13.886  0.0641 -0.0266  0.0429
15453W        W31262   9.221  11.440   0.322 -0.0830  0.2542  0.1062
15454W        W31263   4.362  12.510  15.224 -0.2272  0.0093  0.0631
15455W        W31264  10.261   5.247  12.262  0.0995 -0.0407  0.2001
15456W        W31265  11.417  15.748  11.938 -0.0913 -0.0790  0.1794
15457W        W31266  15.223   8.027  13.620 -0.2785 -0.0959 -0.0237
15458W        W31267  16.869   2.870  16.150 -0.0566  0.2256 -0.0022
15459W        W31268  10.871   2.648  12.842  0.1116 -0.1048 -0.0175
15460W        W31269   0.417   1.698   5.977  0.2307 -0.1433 -0.1874
15461W        W31270  17.485  15.709   1.078 -0.0216 -0.3754 -0.0779
15462W        W31271   5.254  16.463   5.901 -0.2695 -0.0080  0.2289
15463W        W31272   5.874   2.136   2.497 -0.0837  0.0344  0.0324
15464W        W31273   0.198   1.355   1.654  0.0249 -0.2092  0.2386
15465W        W31274  15.591   3.028  14.090  0.2518  0.1479  0.1956
15466W        W31275   2.551   8.510   0.933  0.0831 -0.2563  0.0363
15467W        W31276  10.314   2.612  12.779 -0.0742  0.2123  0.0088
15468W        W31277   2.402   2.793  12.757 -0.4150 -0.2917  0.0199
15469W        W31278   3.184  15.044  12.067  0.0303 -0.1420 -0.1104
15470W        W31279   3.340  15.972   4.664  0.0007 -0.1370 -0.2807
15471W        W31280   4.385  13.700  15.891 -0.0079  0.0007  0.2895
15472W        W31281   2.692   8.004   2.835  0.0880 -0.1839 -0.1999
15473W        W31282   6.106   0.711  13.521 -0.3636  0.1346 -0.2077
15474W        W31283   3.825   4.275   5.391  0.0434  0.0134 -0.0237
15475W        W31284   0.055   1.659  15.575 -0.3077 -0.2683 -0.0978
15476W        W31285  11.612  16.304  14.580  0.0466 -0.2356 -0.1531
15477W        W31286   9.565   8.409  12.959 -0.1014  0.0484 -0.1523
15478W        W31287   7.868  17.527  13.532  0.5186  0.0629 -0.1142
15479W        W31288   2.514   9.450   1.007  0.1253 -0.3809 -0.1464
15480W        W31289   4.605  12.152  14.940  0.1077  0.0215 -0.0522
15481W        W31290  14.028   4.691  14.204 -0.1109 -0.0293 -0.0066
15482W        W31291  16.841   3.399  16.408  0.3092 -0.1603  0.1473
15483W        W31292  15.575   1.109  13.137  0.0684 -0.1753  0.3507
15484W        W31293  12.943   0.409   4.958 -0.2916  0.1482 -0.1668
15485W        W31294   1.967   0.920   5.121 -0.2045  0.2690  0.1825
15486W        W31295  13.251  16.411   1.123 -0.0696 -0.1497 -0.1037
15487W        W31296  12.277   8.281  11.713 -0.1901  0.0515  0.0382
15488W        W31297  15.545  10.308  14.370  0.2616  0.0441 -0.0568
15489W        W31298   3.706   7.570   0.813 -0.0569  0.1164 -0.0337
15490W        W31299   7.403   8.657   1.128 -0.1462 -0.0604  0.0269
15491W        W31300   0.708  16.808   5.488  0.1804 -0.3023  0.0702
15492W        W31301  16.182  16.310  12.568  0.1866  0.0085  0.0363
15493W        W31302   6.758   2.544   5.288  0.2905 -0.1801 -0.0486
15494W        W31303   8.570   3.377   1.786 -0.2833  0.0407  0.4537
15495W        W31304   9.003   5.151  13.034 -0.0515  0.0519  0.2005
15496W        W31305   1.307  13.309   1.124  0.0981  0.1799  0.1081
15497W        W31306  11.313   9.385  14.748  0.0861 -0.1541  0.0902
15498W        W31307   2.925   8.823  13.527 -0.0629  0.0294  0.0638
15499W        W31308   3.102   5.625   6.495  0.3729 -0.1121 -0.0228
15500W        W31309   5.844  13.162  13.948 -0.0740 -0.2587 -0.0168
15501W        W31310  16.488  15.447   2.823  0.2455 -0.2001  0.0682
15502W        W31311  13.365   4.513   3.359 -0.1341 -0.1062 -0.1157
15503W        W31312  11.368  11.172  14.282 -0.0436 -0.0011 -0.2702
15504W        W31313   0.774   5.170  14.490  0.5881  0.0943 -0.1055
15505W        W31314   2.920   8.373   0.619  0.0575 -0.0359 -0.1039
15506W        W31315  10.176  17.416  12.557  0.2897  0.0828 -0.1673
15507W        W31316  12.108   8.058  14.214 -0.1207  0.0485 -0.2170
15508W        W31317  13.810   9.606  14.244 -0.2073 -0.0611 -0.0914
15509W        W31318  13.559  13.197  12.051 -0.0865 -0.3286  0.0645
15510W        W31319  17.375   5.917   4.388  0.1281  0.1409  0.4344
15511W        W31320   0.293  12.412   3.158  0.3189 -0.0512 -0.2422
15512W        W31321   7.631  12.490  16.520 -0.1753 -0.1002  0.0780
15513W        W31322  16.721  17.185   0.505  0.2210 -0.0233 -0.2014
15514W        W31323   3.419  12.738  14.401  0.0046  0.1250  0.0653
15515W        W31324   9.483  14.120   2.370  0.3822 -0.1100  0.0496
15516W        W31325  14.419   3.580   3.656  0.0847  0.2399  0.1294
15517W        W31326   2.565  16.693  11.432 -0.2325 -0.1445 -0.2118
15518W        W31327  15.843  12.068  16.395  0.0047  0.3832  0.0815
15519W        W31328  13.361   8.727   5.623 -0.3893 -0.0689 -0.1583
15520W        W31329   6.542  13.983   4.532 -0.1982  0.2663  0.3702
15521W        W31330   0.429   2.961  12.190  0.0748 -0.2209 -0.0979
15522W        W31331  10.277   2.661   1.265 -0.1754  0.3052 -0.2984
15523W        W31332   3.065   6.892   4.557 -0.3702  0.1167 -0.1567
15524W        W31333  15.843   7.637  13.481 -0.0275  0.1428  0.0591
15525W        W31334   1.353   3.249  15.844  0.1732  0.0766 -0.0457
15526W        W31335  10.474  14.467   2.047  0.1379  0.2791 -0.1398
15527W        W31336  12.101  16.600  13.442  0.0066 -0.0381 -0.0116
15528W        W31337  15.042   0.261  13.944  0.1980 -0.1405  0.1967
15529W        W31338   6.579  15.657  11.645 -0.1280 -0.0773  0.0317
15530W        W31339  13.602  16.613  11.759  0.0224  0.2810  0.0211
15531W        W31340  12.910  16.348  14.022 -0.0282 -0.1849 -0.1116
15532W        W31341   8.808   9.070   0.806  0.2168 -0.0067 -0.1713
15533W        W31342   6.272   7.514  13.696 -0.2029  0.0736 -0.0622
15534W        W31343  11.724  13.127  15.009  0.0132  0.0364  0.0658
15535W        W31344   5.947  13.417   2.420 -0.0673 -0.1463 -0.1328
15536W        W31345   3.872   4.232  16.368  0.0516 -0.0733  0.0077
15537W        W31346  16.294   0.917   4.591 -0.2570  0.0463 -0.1224
15538W        W31347  13.703   7.395  15.115 -0.0325  0.1870  0.4672
15539W        W31348   8.054  15.139  13.634 -0.0398  0.4332  0.1255
15540W        W31349   8.098  10.927   2.752 -0.1027 -0.0248 -0.2371
15541W        W31350   2.254  16.148   4.260 -0.2451  0.1474 -0.1289
15542W        W31351  11.046   6.056  14.524  0.1264  0.1545 -0.2273
15543W        W31352   6.094  17.435  15.639 -0.0891 -0.1775  0.1881
15544W        W31353  12.126  17.613  11.920  0.1382  0.1626  0.0532
15545W        W31354   2.059  14.129   0.280  0.4102  0.1720  0.0790
15546W        W31355   2.098   8.719  14.820 -0.1285  0.0789 -0.2419
15547W        W31356   5.763  15.865  14.579 -0.1205 -0.3681  0.1074
15548W        W31357   5.095  16.350   1.441 -0.2258 -0.1573  0.0211
15549W        W31358   5.664   0.405   3.331  0.1143 -0.2118 -0.0790
15550W        W31359  14.509   1.774   5.180 -0.0346 -0.0662  0.1091
15551W        W31360  10.639   1.972  14.826 -0.1276  0.0394 -0.1433
15552W        W31361  11.779   3.735  13.468  0.0055  0.0841  0.2113
15553W        W31362  13.961   8.781  14.096  0.1555 -0.2049  0.0013
15554W        W31363   8.211  11.413   2.937 -0.0483 -0.2594 -0.0252
15555W        W31364   0.525  17.345  12.841 -0.0138  0.1080 -0.2083
15556W        W31365   3.565   6.695   5.636  0.4817  0.1379  0.0100
15557W        W31366   4.442   8.088  13.827  0.2178  0.0924  0.0153
15558W        W31367  16.831   6.926  15.004 -0.1405 -0.1672 -0.2398
15559W        W31368   7.754  11.462  13.269  0.1629  0.1126 -0.3415
15560W        W31369   2.471   5.628   3.353 -0.1310  0.0424 -0.0873
15561W        W31370  10.258  10.641   0.903 -0.4772 -0.0221  0.3303
15562W        W31371   8.067   5.712   2.308  0.1141 -0.1198 -0.1349
15563W        W31372  16.898   6.487   5.488  0.1314 -0.0679 -0.0718
15564W        W31373   2.481  11.199   5.915 -0.2474 -0.2800 -0.0148
15565W        W31374  13.083  17.285   1.486  0.0745  0.1120 -0.0360
15566W        W31375  17.105   4.966   3.556 -0.2250  0.0210  0.1765
15567W        W31376   6.416   6.946  13.618 -0.1989  0.0093 -0.1128
15568W        W31377  17.498  14.894  11.506 -0.2119 -0.0092 -0.1094
15569W        W31378  15.677  10.793   2.453 -0.2125  0.1098 -0.1984
15570W        W31379  10.599   3.784   2.887 -0.2678 -0.1651 -0.0248
15571W        W31380   1.544  14.663   5.228  0.3747  0.1774  0.0967
15572W        W31381   6.265  15.275  13.737 -0.2182  0.1069  0.1508
15573W        W31382  15.543   1.351  13.558  0.1636  0.0079 -0.0275
15574W        W31383  17.377   1.360  13.118 -0.1238  0.0342  0.3478
15575W        W31384  17.121  12.787  16.952 -0.2830 -0.0052  0.3181
15576W        W31385  11.501  11.160   4.496  0.2775 -0.0241  0.2393
15577W        W31386   2.330   0.327  14.462  0.2985  0.1135 -0.2066
15578W        W31387  14.571   8.694   4.062  0.0889  0.2015  0.1537
15579W        W31388   0.529  10.548   3.606 -0.1942  0.4039  0.1179
15580W        W31389   1.076  15.979  15.509 -0.2431  0.1207  0.2241
15581W        W31390  12.780  14.145  11.901  0.0264  0.3446  0.0128
15582W        W31391  10.874   8.775  16.435  0.2487  0.2239 -0.0680
15583W        W31392  13.241  10.448   2.671 -0.1399 -0.2424 -0.1459
15584W        W31393  15.491  16.342   0.024 -0.1994 -0.1626 -0.1448
15585W        W31394  14.385   8.824  12.394  0.2029  0.3547 -0.1467
15586W        W31395   5.261  10.137   5.949  0.2519  0.1479  0.1843
15587W        W31396  16.245   0.377  14.475 -0.2431 -0.0941 -0.1881
15588W        W31397   5.151   9.513   0.331 -0.0581 -0.0614 -0.1484
15589W        W31398   1.761   8.414   5.751  0.1270  0.1194 -0.0495
15590W        W31399  11.709  14.322  12.846  0.0987 -0.1552 -0.0993
15591W        W31400  14.533   4.932  16.476  0.0306  0.1874  0.0815
15592W        W31401  14.388   2.446  14.424 -0.1583  0.2296 -0.1057
15593W        W31402   5.566   7.246   0.915 -0.1684  0.0364  0.0441
15594W        W31403  13.667  15.646  11.430 -0.2562  0.0864  0.3091
15595W        W31404   1.002   0.065  13.697 -0.0467  0.0030  0.2346
15596W        W31405   3.544  15.743   2.123 -0.1298 -0.4406 -0.0831
15597W        W31406  15.796  14.738   3.335  0.0733  0.0634  0.0660
15598W        W31407   5.348   2.017   3.310  0.2436  0.0701  0.2526
15599W        W31408  14.041  15.026  16.005  0.1040  0.1251 -0.4210
15600W        W31409  14.119   1.104  16.080 -0.1836  0.0001  0.2567
15601W        W31410  12.441  17.606   5.403  0.3161 -0.0486  0.2492
15602W        W31411  11.830   5.290  15.305 -0.0515  0.3253  0.0138
15603W        W31412  11.163  11.268  10.822  0.2012 -0.1160  0.2471
15604W        W31413   7.679   4.522  12.020 -0.1251 -0.0303  0.2377
15605W        W31414   7.977  14.785  16.778  0.2739 -0.0331 -0.0023
15606W        W31415   4.548   5.523  15.466 -0.3152 -0.0716  0.0555
15607W        W31416   3.783  11.118  15.087 -0.3256  0.0066 -0.0102
15608W        W31417   3.843  12.657   0.740  0.0641  0.0636  0.1005
15609W        W31418   7.182   6.942  16.746  0.1011 -0.3318 -0.1387
15610W        W31419   5.374  12.443  14.682  0.0954  0.3190  0.3142
15611W        W31420   2.545   4.913   5.514  0.0657 -0.0781 -0.0469
15612W        W31421   8.758   4.440   5.174  0.1753 -0.0824 -0.4728
15613W        W31422  14.485  15.634   0.285 -0.1782  0.1515  0.2727
15614W        W31423   1.511   4.899   2.031 -0.1078  0.0565  0.1708
15615W        W31424   8.438  11.477  15.298 -0.2154 -0.1368 -0.0573
15616W        W31425  12.252   8.027   2.558 -0.2773  0.5376  0.1349
15617W        W31426  15.449   6.658  12.313 -0.2431 -0.1427 -0.0994
15618W        W31427   5.736  15.816   1.724 -0.3514 -0.1849 -0.1399
15619W        W31428   0.754  15.200   1.515  0.3538  0.0600  0.0218
15620W        W31429   1.908   2.222  12.433 -0.0049 -0.0015 -0.1041
15621W        W31430  12.670  11.360  12.811 -0.0555 -0.0421 -0.0063
15622W        W31431   5.296   6.999   0.590  0.1287  0.1039 -0.0439
15623W        W31432   3.095   8.713  12.697 -0.2801 -0.0381  0.3616
15624W        W31433  11.824  13.174  16.727 -0.2278 -0.1654 -0.0089
15625W        W31434   6.558   5.962   5.753 -0.0343 -0.0456  0.0719
15626W        W31435  12.409   5.217   4.900 -0.1377  0.0801 -0.2042
15627W        W31436   3.890  16.688  12.346  0.0326  0.3346  0.2212
15628W        W31437   4.595  15.078   1.778 -0.1201  0.1333  0.0098
15629W        W31438  11.418  12.704  13.284  0.0097  0.1095  0.1870
15630W        W31439   1.974   3.035  14.652 -0.2441 -0.0745  0.2840
15631W        W31440  15.429  16.771  10.172 -0.2769 -0.3071  0.2066
15632W        W31441   4.398   2.385   5.239 -0.0167  0.0191  0.0644
15633W        W31442  12.367  11.751  15.540  0.0233 -0.2759  0.2070
15634W        W31443   2.819  13.215  14.556 -0.0846  0.3826 -0.0886
15635W        W31444   7.589  13.045  15.461 -0.1593 -0.1824 -0.0406
15636W        W31445   4.066   9.740   2.173 -0.1179  0.0940  0.1766
15637W        W31446   5.807   2.398   4.189  0.1182  0.0849  0.2804
15638W        W31447   6.140  10.900   2.790  0.0729 -0.0959 -0.0646
15639W        W31448  15.885   6.556  16.403 -0.3138  0.3211 -0.0093
15640W        W31449   8.870   4.449   6.031  0.3574  0.1066 -0.0375
15641W        W31450  10.542   8.957   5.554 -0.0543 -0.0076 -0.1292
15642W        W31451   0.550   5.353   3.208  0.0914  0.0707 -0.1464
15643W        W31452  10.865   1.772   1.371  0.0469  0.0362 -0.1276
15644W        W31453   6.028  13.497   4.003  0.1018 -0.1191  0.0513
15645W        W31454  16.871   2.538   0.681  0.1122  0.1146  0.0757
15646W        W31455   2.556   3.816  16.086  0.0779  0.1124  0.1457
15647W        W31456   0.138  14.962   2.365  0.1194 -0.0448  0.1462
15648W        W31457   7.730  10.599   1.132 -0.3068  0.0102  0.1898
15649W        W31458   0.162  16.447   1.004 -0.2894 -0.0359  0.4439
15650W        W31459   4.473   0.143   1.624 -0.2315 -0.1878 -0.1315
15651W        W31460  11.422  12.595   4.360 -0.0821  0.1250  0.0860
15652W        W31461   6.515  12.362   3.780  0.2465 -0.1208 -0.0252
15653W        W31462   1.290   8.814   4.021  0.2794  0.0732  0.0017
15654W        W31463  10.863   7.826  15.240  0.0654 -0.2632  0.1289
15655W        W31464   1.164   5.656   2.575 -0.3419 -0.0196  0.1267
15656W        W31465   1.806   1.753   3.373 -0.2840  0.3528 -0.1857
15657W        W31466  12.251  16.369  13.023  0.1242 -0.1680  0.1640
15658W        W31467  16.977   1.683   2.472 -0.2654 -0.0821  0.2420
15659W        W31468   3.454   7.283  15.784 -0.0314  0.2384  0.0080
15660W        W31469  11.613   7.139   4.586  0.0867 -0.1955 -0.3610
15661W        W31470   0.357   3.096   2.736 -0.3118  0.2676  0.3497
15662W        W31471  16.281   4.255   3.149 -0.0260  0.1042 -0.0382
15663W        W31472   3.517   3.692   0.021 -0.1162  0.1572 -0.3932
15664W        W31473  16.970   8.370   1.409  0.1297  0.2708  0.2684
15665W        W31474  12.904  14.131  11.001  0.2093  0.0098  0.1210
15666W        W31475  13.952  14.153   1.720  0.3337 -0.1962  0.1558
15667W        W31476  13.697   1.439  15.975 -0.1221 -0.4043 -0.0329
15668W        W31477   8.246  13.400  16.658  0.1721  0.0839  0.0288
15669W        W31478  12.119  13.422  11.976 -0.0832  0.0389 -0.3100
15670W        W31479  13.750   6.653   1.963  0.1428  0.0051 -0.4082
15671W        W31480   8.447   3.054  15.733 -0.2235 -0.0108 -0.1531
15672W        W31481  14.167   6.114  10.843 -0.0123 -0.1347 -0.1014
15673W        W31482  16.666   7.047   2.101 -0.3559  0.2514 -0.1007
15674W        W31483  12.008  16.644   2.345  0.6594 -0.1877  0.2791
15675W        W31484   5.520   5.246  11.947 -0.2515  0.0631 -0.1859
15676W        W31485  11.890  11.203  16.990 -0.0146  0.0217  0.0656
15677W        W31486   4.719  10.642   0.606 -0.0142  0.1177  0.1608
15678W        W31487   7.919  12.203   2.424 -0.1523  0.1610  0.2124
15679W        W31488   0.055  16.957  15.050  0.1929  0.0820 -0.1870
15680W        W31489   3.719   0.959  13.407  0.0418  0.4065 -0.0132
15681W        W31490   9.989   4.052   3.632 -0.0390 -0.0713  0.2227
15682W        W31491   6.397   2.437  12.633  0.1928 -0.0538 -0.1585
15683W        W31492  10.367  14.951  15.282 -0.1672 -0.1995  0.1832
15684W        W31493  14.116   3.938  12.422  0.1575  0.1377  0.0368
15685W        W31494  17.396   0.655  13.062  0.0296 -0.2022 -0.2055
15686W        W31495  16.283   7.367   2.200 -0.1504  0.1171  0.0503
15687W        W31496   0.006   3.037   3.084 -0.2561  0.1311  0.0554
15688W        W31497  13.139   8.598  14.395 -0.0392 -0.3541 -0.0657
15689W        W31498  16.534   4.066  16.072 -0.2597 -0.0012  0.0807
15690W        W31499  13.011  14.804   3.114  0.1353  0.1968  0.1569
15691W        W31500   6.550  13.485   0.996  0.2798 -0.0301  0.1289
15692W        W31501   5.962  12.614  13.863  0.2783 -0.2477  0.0211
15693W        W31502  12.924   1.424   0.095  0.1129  0.1095 -0.1899
15694W        W31503   8.593   4.645   6.370  0.0795 -0.1473 -0.1145
15695W        W31504  15.540   8.215   1.638 -0.0570 -0.0409  0.1741
15696W        W31505  12.112  12.546  14.377 -0.1548  0.1777  0.0634
15697W        W31506   7.857   1.699   0.003  0.0146 -0.0703 -0.1735
15698W        W31507   3.213  13.374   1.578  0.1848  0.2594  0.0615
15699W        W31508  17.244  11.554  16.046  0.1350  0.0726 -0.0542
15700W        W31509  15.592  12.429   5.291  0.1686 -0.0206 -0.4243
15701W        W31510   0.934   6.230  15.223  0.0148 -0.1520 -0.0532
15702W        W31511   6.420   6.488  15.597 -0.1706 -0.0204  0.0525
15703W        W31512   5.899   9.566   4.518  0.1479  0.1312 -0.1709
15704W        W31513  11.764  11.695   1.463 -0.0289 -0.0100 -0.0211
15705W        W31514   3.400  16.988  13.589  0.2694 -0.0429 -0.1341
15706W        W31515   7.726   5.297   0.051 -0.1128  0.3224 -0.2595
15707W        W31516  16.608   7.781  14.869  0.1065 -0.0525  0.3513
15708W        W31517  16.413   0.962   0.659  0.0042  0.1926  0.0295
15709W        W31518   3.889  14.174   4.794  0.0196  0.0809  0.0976
15710W        W31519   8.978  11.538   1.547  0.0762 -0.2005  0.2392
15711W        W31520   2.771   4.001  13.383  0.0916 -0.0468  0.0473
15712W        W31521   6.720  14.790   1.644  0.0512 -0.3466  0.1074
15713W        W31522   5.787  15.649  11.528  0.1577  0.2727  0.3335
15714W        W31523  11.407   8.044  12.082  0.1584 -0.0912 -0.0256
15715W        W31524   8.530  15.287   9.799  0.2858  0.0798  0.4586
15716W        W31525  17.336   6.234   0.395 -0.0952 -0.1523 -0.4438
15717W        W31526  10.469   4.016  16.821 -0.0781  0.0604  0.0471
15718W        W31527   4.592   4.612   5.468  0.2086 -0.1014 -0.3365
15719W        W31528  10.349   0.940   4.304 -0.0268  0.1541  0.0344
15720W        W31529  15.879   0.373  15.609  0.1534 -0.1570  0.0543
15721W        W31530  12.441  12.461  12.351 -0.0501  0.1577  0.1525
15722W        W31531   7.862  16.148  16.199 -0.1531 -0.3566 -0.0814
15723W        W31532  15.693  12.910  16.573  0.2957 -0.2974 -0.0544
15724W        W31533  16.163   7.189  11.821  0.2238 -0.2856  0.0611
15725W        W31534   7.774   2.837   2.583  0.0135 -0.2276  0.2137
15726W        W31535   5.525  16.987   5.831  0.0034  0.0716  0.0297
15727W        W31536  12.399   9.410  11.436  0.4124 -0.3454  0.1531
15728W        W31537  15.751   2.515   4.022 -0.5218  0.2841 -0.0941
15729W        W31538   9.243   8.917   2.487  0.1803 -0.4386 -0.1131
15730W        W31539   4.791  12.669   4.314 -0.0018 -0.2670  0.0611
15731W        W31540  17.178   2.227   6.171 -0.0676  0.1885 -0.0829
15732W        W31541   7.189   8.506   5.763 -0.2476 -0.1864 -0.0695
15733W        W31542   2.515   3.927  11.988 -0.0710 -0.2474 -0.1882
15734W        W31543   3.563  13.300  12.710 -0.1682  0.0941 -0.1493
15735W        W31544   1.040   1.504   1.607 -0.2064 -0.0236 -0.0424
15736W        W31545  15.488   2.059  14.910  0.0256 -0.0666  0.0100
15737W        W31546  13.103   0.281  12.887 -0.0499  0.0368 -0.0219
15738W        W31547  14.759   7.685   1.924  0.3385  0.0679 -0.0882
15739W        W31548  12.438   9.801   0.635  0.0299  0.0360  0.2159
15740W        W31549  14.932  10.298   2.162 -0.0239  0.1221  0.0199
15741W        W31550  12.413  10.328   0.687  0.2246 -0.1438  0.5025
15742W        W31551  15.660   6.346   0.360 -0.0350 -0.0546  0.1270
15743W        W31552  13.202   4.887   4.840  0.1402  0.7313  0.0814
15744W        W31553   0.466   3.263  14.502  0.1105 -0.0483  0.0843
15745W        W31554   8.950   6.748   4.605  0.0038 -0.1192  0.2289
15746W        W31555   5.088  16.142   4.555 -0.1576  0.0152  0.2726
15747W        W31556  14.198   3.667  11.887 -0.0459  0.0728  0.1260
15748W        W31557   9.952  13.288   2.127 -0.0669 -0.0224 -0.0778
15749W        W31558   1.863   0.502  11.029  0.2164  0.1148  0.0601
15750W        W31559   2.802   9.304  15.467  0.3084 -0.0173 -0.1388
15751W        W31560   1.085  16.698   2.064  0.1271  0.1836 -0.1463
15752W        W31561  10.999   0.992   1.818  0.1281  0.2185 -0.1469
15753W        W31562  12.356   7.360  14.876  0.2722 -0.1215  0.0610
15754W        W31563   6.512   0.143   3.740 -0.3131  0.0319 -0.1557
15755W        W31564  15.827   8.404   3.480  0.0861  0.1958 -0.1058
15756W        W31565   6.359   7.723   1.848  0.2664 -0.1188  0.1033
15757W        W31566  17.243   7.860  12.951  0.1030 -0.0368 -0.0767
15758W        W31567   7.626  14.375   3.505 -0.4976  0.2330  0.0575
15759W        W31568  14.255   9.469  14.813 -0.0427  0.0231  0.1449
15760W        W31569   0.333  14.003   2.767  0.2533  0.1823 -0.0413
15761W        W31570   6.175   9.589   4.972  0.0972 -0.0217  0.0067
15762W        W31571  14.381  12.174   2.228 -0.0250 -0.0019  0.1389
15763W        W31572   1.045   2.292  12.016 -0.0316 -0.0406  0.2381
15764W        W31573  15.401   5.400  12.167  0.1114  0.0017  0.0429
15765W        W31574  14.658  10.348   0.705 -0.1609 -0.0227  0.1731
15766W        W31575   4.263   0.328  15.717 -0.2472 -0.3796  0.0059
15767W        W31576  10.702  13.860  16.396  0.1183  0.0252  0.1323
15768W        W31577  15.113   0.051  15.577  0.2498  0.1533 -0.0958
15769W        W31578  10.505  16.148   3.489 -0.1402 -0.1442  0.0774
15770W        W31579   9.266   5.478   2.637  0.0279  0.1191  0.1629
15771W        W31580  13.925  16.026   3.940  0.1713 -0.1380  0.0166
15772W        W31581  11.687  11.371  16.204 -0.1082 -0.0849  0.0073
15773W        W31582  16.479  16.232  12.136 -0.2272  0.1721  0.3547
15774W        W31583   3.307  15.635  16.331  0.0898 -0.1021  0.0092
15775W        W31584   3.788  14.519  16.846  0.2764  0.1183 -0.3002
15776W        W31585   3.131   9.659  12.118  0.1034 -0.0590  0.1502
15777W        W31586  16.230   0.824   5.527 -0.1716  0.0371  0.1991
15778W        W31587  10.902   4.326   3.630 -0.1289 -0.1765 -0.1816
15779W        W31588  11.651   6.108  12.830  0.2545 -0.1067 -0.2951
15780W        W31589   9.411   3.465  12.450  0.1726 -0.0243  0.2336
15781W        W31590   9.527  12.539   2.299 -0.1332 -0.1617 -0.1158
15782W        W31591  10.427   1.872   5.398  0.2059  0.0466  0.3411
15783W        W31592   6.137  13.671   0.676 -0.1675  0.0133  0.0710
15784W        W31593   4.107   7.678  12.382 -0.1999  0.1820 -0.0742
15785W        W31594   2.009  16.475   0.792 -0.0172 -0.1613 -0.0371
15786W        W31595  14.183  16.135   3.114  0.1762  0.1245  0.0376
15787W        W31596   4.955   1.906   3.028 -0.2939  0.2246  0.1641
15788W        W31597   4.900  12.520  14.586 -0.0907  0.1583 -0.3701
15789W        W31598  14.665   0.048   6.252 -0.0598  0.0348  0.1315
15790W        W31599   2.079  13.418  14.916  0.3090 -0.0590 -0.1091
15791W        W31600  12.974   7.991   4.597  0.0138 -0.1017  0.0714
15792W        W31601   0.163  16.147  13.952  0.1346  0.0769  0.2920
15793W        W31602   8.581   4.875  16.204 -0.1148 -0.0057  0.2796
15794W        W31603   1.238  14.398   0.407  0.3542 -0.0748 -0.0395
15795W        W31604  15.692   9.931   1.078  0.2830  0.1106 -0.1121
15796W        W31605  15.528   8.197  17.001  0.0358  0.0392 -0.3520
15797W        W31606   5.181   1.463   2.152  0.1515 -0.1193  0.0343
15798W        W31607   5.421   1.600   4.168  0.0216  0.2526  0.0668
15799W        W31608   3.062   5.824  13.087  0.3003  0.1305 -0.1499
15800W        W31609  14.202  12.074   5.102  0.0317 -0.1435  0.0808
15801W        W31610   7.193  15.074   3.907  0.2924  0.4979  0.1951
15802W        W31611  15.580   7.666   4.221  0.3428  0.2899  0.1830
15803W        W31612  12.854   0.608   2.741 -0.1394 -0.0520  0.0731
15804W        W31613   2.786   3.607   4.630 -0.2554 -0.4171  0.0690
15805W        W31614   1.168   6.529   0.052 -0.1454 -0.5137  0.4340
15806W        W31615   8.312   3.778   5.169  0.2730  0.1324 -0.1193
15807W        W31616   7.095   5.638  15.381 -0.0721 -0.0524 -0.2931
15808W        W31617   2.429   9.078   0.349 -0.0978  0.0847 -0.2363
15809W        W31618   7.041   1.081   4.685  0.0854  0.1088  0.2934
15810W        W31619   0.485  12.024  14.138  0.2327 -0.1880 -0.2676
15811W        W31620   9.504  15.808  16.317  0.1551  0.3887  0.1583
15812W        W31621   6.929   4.984  13.047  0.1254  0.4643 -0.2342
15813W        W31622  10.029  10.123   1.706  0.2110  0.1625  0.1451
15814W        W31623  12.278  17.525  12.764  0.0511  0.3421  0.0980
15815W        W31624   9.371   4.160   2.817 -0.1502  0.2078  0.0126
15816W        W31625  10.199  14.682   2.825  0.0568  0.1217 -0.0299
15817W        W31626  10.972  11.435  16.034 -0.2379  0.2692 -0.0248
15818W        W31627   3.454  10.276  11.913  0.0611 -0.2121 -0.2111
15819W        W31628  14.701   4.353  15.321 -0.1386  0.3058  0.1094
15820W        W31629   6.013   2.114  11.559  0.0204  0.1583 -0.1475
15821W        W31630   8.994   7.234  15.058 -0.0825 -0.0713  0.1651
15822W        W31631  13.079   5.125   0.962  0.0367 -0.0540 -0.0897
15823W        W31632  16.896  17.038  12.355 -0.1253 -0.2538 -0.2666
15824W        W31633   4.694   6.270   6.111 -0.3513 -0.0338 -0.2173
15825W        W31634   6.784  16.294   0.537  0.2874 -0.1029  0.1653
15826W        W31635   9.820   8.492   2.270  0.1280  0.0572 -0.1296
15827W        W31636   6.672   9.785   4.618 -0.0748  0.0683 -0.0219
15828W        W31637   8.436  11.854  14.995 -0.1562  0.1370 -0.1204
15829W        W31638  16.285   8.420   4.217  0.1471  0.0055 -0.2637
15830W        W31639  16.526   3.237  12.779 -0.1101 -0.2810 -0.1475
15831W        W31640   9.999  13.124   3.508  0.0662 -0.0156 -0.1257
15832W        W31641  13.998  11.367  12.648 -0.0008 -0.0059  0.1841
15833W        W31642   8.160  12.615   0.371 -0.1255 -0.0247  0.2783
15834W        W31643  14.870   6.626  16.179 -0.2086 -0.1559  0.2206
15835W        W31644  15.679  16.040  14.448  0.1660  0.1939 -0.0097
15836W        W31645  15.006  13.629   2.614  0.1835 -0.2552 -0.1141
15837W        W31646   2.398  15.425   5.642 -0.1405  0.0852 -0.0411
15838W        W31647  15.073   1.491  13.610 -0.0080 -0.1692 -0.0697
15839W        W31648   5.116   6.633   3.081  0.1198  0.1512  0.2355
15840W        W31649  16.339   9.420  16.950  0.1431  0.1211  0.4149
15841W        W31650   9.666  10.434   0.304  0.1646  0.1900 -0.0443
15842W        W31651   7.645  10.832   1.557 -0.1896 -0.2572 -0.1505
15843W        W31652   7.647   9.023   5.348  0.1450 -0.2334  0.0844
15844W        W31653  12.489   6.076  13.262  0.1790 -0.0850  0.0659
15845W        W31654   2.529   6.488  14.086 -0.4973 -0.2469  0.2837
15846W        W31655   0.974  10.935  12.975 -0.0008  0.1753 -0.2499
15847W        W31656   8.167   2.133   0.042 -0.1977 -0.0900  0.0026
15848W        W31657   6.265  13.166  13.085  0.2621 -0.4217  0.1089
15849W        W31658  10.548  11.527   3.380 -0.2253  0.3160 -0.2122
15850W        W31659  16.509   5.165   5.894  0.0299  0.0181 -0.0558
15851W        W31660  12.095   5.209  15.728  0.3371  0.1292  0.2307
15852W        W31661  15.452   5.322  14.390  0.1002 -0.0532  0.0124
15853W        W31662  10.507  15.723   3.826 -0.1444 -0.1315  0.0160
15854W        W31663  15.967   9.251  12.853  0.2022  0.1386 -0.2769
15855W        W31664   9.074  13.113   4.676  0.2054  0.3954 -0.1147
15856W        W31665   6.130  13.126   3.481 -0.0090 -0.1790  0.2385
15857W        W31666  11.133   5.062  13.679  0.0855  0.0832 -0.2379
15858W        W31667   2.534   2.086  14.208  0.3028 -0.1437 -0.2829
15859W        W31668   8.468  13.160   3.876  0.0698  0.0963 -0.0883
15860W        W31669  16.801   4.207   3.148 -0.1501 -0.4026  0.3997
15861W        W31670   7.175   7.498   0.490 -0.0154  0.0416 -0.0140
15862W        W31671   7.103  17.343  16.179 -0.0205 -0.1437  0.1214
15863W        W31672  11.485   1.777   4.515 -0.1174  0.1338 -0.1671
15864W        W31673  12.445   0.437   2.305 -0.1634 -0.1799 -0.0907
15865W        W31674   6.046  10.712  12.401 -0.0261 -0.2479  0.0094
15866W        W31675   2.099   4.608  12.174  0.0490  0.2075  0.0948
15867W        W31676   7.175  12.871   2.111  0.1324  0.0574 -0.2692
15868W        W31677   5.918  14.614   0.921 -0.1054  0.1973  0.2654
15869W        W31678   0.818  14.632  12.137 -0.0329 -0.0439 -0.0636
15870W        W31679  16.858   5.927   5.651 -0.1840 -0.3156 -0.1805
15871W        W31680   8.344   4.002   3.261  0.0533 -0.3266  0.1732
15872W        W31681   3.662   9.522   0.372 -0.1017 -0.0276 -0.1047
15873W        W31682   2.466   3.096   1.581  0.1500  0.1568  0.0272
15874W        W31683  11.967   5.205  13.859  0.1258 -0.2614  0.0611
15875W        W31684  13.507  14.698  14.339 -0.3568 -0.0828 -0.2829
15876W        W31685   8.696  14.173   0.122  0.0857 -0.0086  0.1013
15877W        W31686   0.642   9.413   1.627  0.0830 -0.0106 -0.2274
15878W        W31687  14.817   0.881   2.083  0.1891 -0.2078 -0.1357
15879W        W31688   9.136   9.497  13.433 -0.2164 -0.0860 -0.1572
15880W        W31689   9.857  15.269   9.931  0.1044 -0.0909 -0.2115
15881W        W31690   8.874   9.012   4.322  0.1609 -0.0795 -0.1342
15882W        W31691  17.179   9.783   5.241 -0.2166 -0.4377 -0.1689
15883W        W31692  17.465  10.518  14.891 -0.2177  0.1137 -0.4376
15884W        W31693  16.765   2.889  13.324  0.1552 -0.2774 -0.1420
15885W        W31694   3.693   5.893  15.312 -0.0276  0.0505 -0.4163
15886W        W31695   7.732   4.376  16.431  0.0185  0.0793 -0.1122
15887W        W31696   3.652  12.280  15.908 -0.3008 -0.1834 -0.0284
15888W        W31697  12.261  10.523  11.777 -0.0834 -0.1475  0.1925
15889W        W31698   0.605   7.725  14.734  0.0557  0.0365 -0.0023
15890W        W31699   8.634   6.177  15.532  0.1563  0.0404  0.2177
15891W        W31700   3.873   3.874   5.091  0.0442 -0.0068 -0.0714
15892W        W31701  14.157   2.049   2.864  0.1331  0.0836 -0.2124
15893W        W31702   7.853  11.308   1.650  0.0234 -0.0993 -0.2084
15894W        W31703   7.514   9.436   2.595 -0.0126  0.1306  0.1338
15895W        W31704   8.905  12.679  15.439  0.1647  0.1143  0.1184
15896W        W31705   5.589   9.594  12.870 -0.2767  0.1459 -0.1234
15897W        W31706   1.257  17.528   5.650 -0.2667  0.2075  0.1735
15898W        W31707   3.676  12.934   0.323  0.1544 -0.0254 -0.1099
15899W        W31708   4.862  12.038  11.336 -0.0383 -0.1104  0.3980
15900W        W31709   0.304  15.061   5.530 -0.0453 -0.1716  0.1260
15901W        W31710  11.919   4.803   1.558 -0.0181  0.0684  0.0021
15902W        W31711   4.795   7.701  14.352  0.0894 -0.1141  0.0096
15903W        W31712  12.144   0.638  14.101 -0.0339 -0.1509  0.0079
15904W        W31713  16.320   5.982   0.367 -0.0255  0.0612  0.1196
15905W        W31714   6.450   4.409   3.699 -0.1486 -0.0977 -0.0497
15906W        W31715  11.066  12.903   3.628 -0.2897 -0.1624 -0.2079
15907W        W31716   2.779   0.776   0.696 -0.3031  0.0274 -0.2057
15908W        W31717   8.705   3.255  13.926  0.0584  0.0008  0.1255
15909W        W31718  10.768  12.406   3.004  0.1182 -0.1593 -0.0242
15910W        W31719   2.241  16.763  16.631  0.0108  0.2191  0.3033
15911W        W31720   3.540  10.278   5.332 -0.0214 -0.1264 -0.0863
15912W        W31721   5.828   9.334  16.067 -0.2493  0.0436  0.1965
15913W        W31722  12.644  12.117  15.222 -0.1166 -0.0945  0.0881
15914W        W31723  17.294   5.666  13.527  0.0577 -0.1369  0.0358
15915W        W31724   2.273   0.104  16.585 -0.1335 -0.2163 -0.2166
15916W        W31725  10.693  14.235   3.323 -0.0170  0.0534  0.1940
15917W        W31726   1.990   6.547   3.405  0.0334 -0.2426  0.0049
15918W        W31727  15.267  15.975   2.595 -0.0003 -0.2279 -0.0347
15919W        W31728  10.584   9.281   3.935  0.2644  0.0372 -0.1576
15920W        W31729   9.670  15.732  14.981  0.0782 -0.1125 -0.0263
15921W        W31730   1.882   8.680  15.713  0.0102  0.2461 -0.0964
15922W        W31731  11.315  15.875   1.217 -0.0872  0.0980 -0.1166
15923W        W31732   3.984  15.811  12.124 -0.0415 -0.3212  0.1160
15924W        W31733  11.937  11.820  12.139  0.0459 -0.0686  0.1984
15925W        W31734   0.848   4.706   2.766 -0.1805 -0.2495 -0.0092
15926W        W31735   8.887  17.102  11.865 -0.1428 -0.2216 -0.0509
15927W        W31736   6.747   4.414   2.726 -0.1715  0.1653 -0.1295
15928W        W31737   2.797   4.143   5.036  0.0220  0.0821  0.0649
15929W        W31738   2.084  11.072   6.329  0.0591  0.0799 -0.0839
15930W        W31739   9.431  17.303  12.916  0.1414  0.0613  0.0137
15931W        W31740  15.960  12.695   0.633  0.2990  0.1086  0.0969
15932W        W31741   8.907  17.171   6.154  0.2340  0.0333 -0.0724
15933W        W31742   9.901   8.768   1.783 -0.1292 -0.0157  0.1064
15934W        W31743   6.155  16.877   4.024  0.1658 -0.1224  0.0015
15935W        W31744  13.947   2.754  11.937 -0.1504  0.3787 -0.0160
15936W        W31745  16.484   2.074  12.518 -0.3503  0.2064  0.0798
15937W        W31746   3.999   3.944  16.766 -0.2625  0.2406  0.0173
15938W        W31747   2.975  16.683  13.582  0.1168  0.1790  0.0498
15939W        W31748  15.543   0.765  12.650  0.1418  0.3665 -0.1429
15940W        W31749  15.681   6.425   1.721 -0.0648  0.2849 -0.0171
15941W        W31750   6.036   1.122   0.623 -0.0390  0.1372  0.0267
15942W        W31751  13.906  10.083  13.993  0.2004  0.2347 -0.1069
15943W        W31752   6.842   3.492   4.337  0.1092  0.1570  0.0836
15944W        W31753   3.341   0.061   1.925  0.0783 -0.2061 -0.2978
15945W        W31754  10.904  15.594   4.152 -0.1218 -0.2135  0.0922
15946W        W31755  17.199  17.653   0.979 -0.1143 -0.0845  0.1033
15947W        W31756   3.848   3.656  11.300  0.2960 -0.1206 -0.1285
15948W        W31757   1.426  16.339   3.878  0.1479 -0.0341 -0.2421
15949W        W31758  11.628  16.497  12.540  0.2499 -0.1496 -0.0778
15950W        W31759  12.029  14.134   0.721  0.3789 -0.1384 -0.0385
15951W        W31760   6.389   6.072   5.291  0.4150 -0.1408  0.2487
15952W        W31761   5.023  12.847   3.908  0.0069  0.1663  0.1895
15953W        W31762   4.956   6.899   4.468  0.1492 -0.0072 -0.1421
15954W        W31763  15.813   9.942  14.644 -0.0527  0.1287 -0.0274
15955W        W31764  15.262   7.198   5.462 -0.0430 -0.1389  0.1063
15956W        W31765   7.204  16.687  16.079  0.1482  0.0194  0.1701
15957W        W31766   5.926   0.134   2.931 -0.0143 -0.0645  0.2008
15958W        W31767   8.789   3.285  15.392 -0.1702 -0.1723 -0.0503
15959W        W31768  14.097   9.378  16.220  0.0831 -0.1204 -0.1445
15960W        W31769   8.965  11.417   5.900  0.0070  0.0073 -0.1457
15961W        W31770   6.254  14.984   1.789 -0.2056 -0.1259  0.0783
15962W        W31771   6.259   3.790  14.581  0.0037 -0.1251  0.0591
15963W        W31772   0.746   5.469   4.121  0.1076  0.1428  0.3195
15964W        W31773   9.724  12.750   5.133  0.1050 -0.0491 -0.2192
15965W        W31774   8.612   0.014  15.112  0.0934  0.1384 -0.2108
15966W        W31775  13.973  15.894  15.002 -0.1081  0.2106  0.1503
15967W        W31776  16.861   2.772  14.636 -0.1498  0.0505 -0.3350
15968W        W31777  15.792  15.107   3.706 -0.1791 -0.5810 -0.0743
15969W        W31778   8.227   8.513  11.672  0.0503 -0.1627 -0.0424
15970W        W31779  11.866   5.686  14.040  0.0074 -0.0888  0.0099
15971W        W31780  13.823   0.053  13.841 -0.1942 -0.0561  0.1128
15972W        W31781  10.406   1.238  13.982  0.0334  0.0047  0.0706
15973W        W31782   4.680  15.967  14.236 -0.4245 -0.0177  0.2349
15974W        W31783  12.391   7.160  12.338  0.0260  0.2422 -0.2210
15975W        W31784   3.098   9.534  16.656 -0.1037  0.0270  0.0181
15976W        W31785  16.756  12.915   2.657  0.1709 -0.0886 -0.1696
15977W        W31786   4.630   7.483   3.797  0.2037  0.2732  0.0324
15978W        W31787  10.517   7.914   1.274 -0.0428  0.3022  0.2051
15979W        W31788   6.071  16.944  14.382  0.2708 -0.0190 -0.0683
15980W        W31789  10.040   7.605   2.025 -0.0976 -0.0990 -0.0190
15981W        W31790  12.229  17.226  12.271  0.2803  0.2646  0.2202
15982W        W31791   0.488  11.743   6.286 -0.0195  0.1791 -0.2156
15983W        W31792   2.062   5.990   5.391 -0.0423 -0.1853 -0.0256
15984W        W31793   3.288   8.627   2.092 -0.2181  0.1952  0.2698
15985W        W31794   2.356  17.400   0.476 -0.1317 -0.0067  0.2197
15986W        W31795   9.976  15.104  11.188  0.3336  0.0684 -0.0303
15987W        W31796  13.424  14.732   2.816 -0.1266  0.3806  0.0147
15988W        W31797  12.833   2.124  12.393  0.2229  0.2934 -0.2253
15989W        W31798   4.919  12.498   6.424  0.3512  0.1085  0.2850
15990W        W31799  13.780  12.708  13.789  0.2083  0.1629 -0.2588
15991W        W31800   7.688   0.129  12.752  0.1896  0.1268  0.1210
15992W        W31801   2.338   0.941  16.219  0.0062 -0.3264 -0.0005
15993W        W31802   9.214   0.734   4.084 -0.3102  0.0365  0.2430
15994W        W31803  10.149  13.555  15.653 -0.0342 -0.0274 -0.1157
15995W        W31804   2.596   0.860  14.618 -0.1301  0.0741 -0.1582
15996W        W31805   2.910  11.633  14.484 -0.0424 -0.0337 -0.2023
15997W        W31806   5.424  12.716   1.571  0.0110 -0.0263  0.0502
15998W        W31807   8.500  10.239  11.256 -0.0124  0.1081 -0.0075
15999W        W31808  13.015  13.328   4.263 -0.1485  0.0337 -0.1180
16000W        W31809   6.413   3.481   5.672  0.1237  0.0530  0.0826
16001W        W31810  16.287   3.657  13.061 -0.3203  0.0752  0.1085
16002W        W31811   2.913  14.339   4.841 -0.3502 -0.0132 -0.0140
16003W        W31812   4.173  16.358  15.384  0.0019  0.1952  0.0978
16004W        W31813  13.559   3.534   4.459 -0.1570 -0.0068  0.0626
16005W        W31814  11.550   4.642  12.750 -0.1889  0.0827  0.1674
16006W        W31815   1.450   8.030  13.199 -0.2508 -0.1491  0.1054
16007W        W31816   4.230   9.851   2.643 -0.1440  0.0044  0.1673
16008W        W31817   0.196   7.330  15.401 -0.2299  0.1087  0.1600
16009W        W31818   9.867  15.082   4.836  0.1882 -0.0852 -0.1594
16010W        W31819   1.470  10.861   0.661 -0.2188 -0.0211 -0.1950
16011W        W31820  13.320  15.828  16.861 -0.2419 -0.0783 -0.3353
16012W        W31821  10.903  13.798   2.276  0.2976 -0.3934  0.1694
16013W        W31822   2.821  17.224  12.927 -0.2772 -0.0183  0.0843
16014W        W31823   2.646   2.551   6.999 -0.1599  0.2809 -0.1294
16015W        W31824  17.105  17.533   2.848 -0.5558  0.2043  0.4357
16016W        W31825  16.588  13.716  15.620 -0.0526  0.2308 -0.1518
16017W        W31826   1.472   0.741   3.356 -0.0233 -0.0960 -0.1041
16018W        W31827  16.011   6.579   1.250 -0.0547  0.1374  0.0089
16019W        W31828  11.537   6.872   4.982 -0.2754  0.2044  0.0523
16020W        W31829  13.505   5.870  13.082 -0.1285 -0.1061  0.0148
16021W        W31830  12.932  16.272   0.780  0.1862 -0.0619  0.2484
16022W        W31831   4.047   5.477   4.279 -0.0930  0.0818 -0.3030
16023W        W31832  17.453  15.954  15.615  0.4123  0.1608 -0.0998
16024W        W31833   6.562   4.285  12.865 -0.1046 -0.1018  0.0458
16025W        W31834   2.812   2.174   0.758  0.1973 -0.1816 -0.1046
16026W        W31835  10.082  14.763  13.439  0.1695  0.1327  0.1017
16027W        W31836   7.143   8.171  13.399 -0.1174 -0.1609  0.1263
16028W        W31837  11.322   4.565   2.649 -0.0331  0.2339 -0.1666
16029W        W31838  16.625  11.331   2.587  0.0713  0.1761 -0.1050
16030W        W31839  12.262   8.870   3.820 -0.0278  0.4117  0.2159
16031W        W31840  15.629   4.340  11.258 -0.0612 -0.0102  0.0502
16032W        W31841   9.955  17.414  13.199 -0.2317  0.0045  0.1947
16033W        W31842   6.922   7.589   4.649  0.1415  0.1222 -0.1135
16034W        W31843  12.157   3.662   1.029 -0.0109  0.3428  0.3765
16035W        W31844  12.200   3.373  16.067  0.0543 -0.0204 -0.0082
16036W        W31845   9.926  14.824  15.447 -0.3864 -0.1867 -0.3550
16037W        W31846   8.680   7.889  12.828 -0.1708  0.3644 -0.0607
16038W        W31847  10.150  11.395   0.567  0.0364 -0.0395  0.3981
16039W        W31848   4.519  14.486   2.906  0.1665 -0.1851  0.0034
16040W        W31849  14.889  14.379  15.990  0.1974 -0.0662  0.2982
16041W        W31850  13.470  13.830   1.792 -0.0232 -0.0985 -0.1396
16042W        W31851   2.033   5.457   1.558  0.0637  0.0507 -0.2439
16043W        W31852   6.055   2.893  11.967  0.0753  0.2808  0.0491
16044W        W31853  15.224  15.290   0.316 -0.3611  0.1390  0.1913
16045W        W31854  17.406  13.662   6.480  0.2535  0.0772  0.0219
16046W        W31855   3.337   0.799  14.261 -0.0367  0.5152  0.3690
16047W        W31856   4.354   3.992   5.888  0.0558 -0.0273  0.3113
16048W        W31857   5.828   1.813  12.400 -0.0726  0.1412  0.1455
16049W        W31858   1.370   7.903   4.588  0.3999  0.1017 -0.0425
16050W        W31859   4.758   6.982   3.861  0.3376 -0.0677  0.0239
16051W        W31860   7.005   8.611  13.876  0.1865  0.3141  0.2167
16052W        W31861  13.752  17.530   5.930  0.0510 -0.1880  0.0531
16053W        W31862   0.543   1.825  13.151 -0.1900 -0.1095 -0.0283
16054W        W31863  12.459   7.824   1.905 -0.0844  0.0600 -0.2129
16055W        W31864  14.446   1.245  12.384 -0.0699  0.1412  0.0778
16056W        W31865   8.609  13.771   2.077  0.1189 -0.1007  0.0531
16057W        W31866   3.850  12.125  11.665  0.3586  0.2242  0.0088
16058W        W31867   7.779   5.381  13.141  0.0379 -0.0840 -0.0596
16059W        W31868  16.700   3.063   0.493 -0.3002 -0.0319 -0.1258
16060W        W31869  17.070  10.161  13.608 -0.0494 -0.0389  0.0046
16061W        W31870   7.968   4.014   0.984 -0.3249 -0.3256  0.1745
16062W        W31871   7.117  13.180  15.342 -0.1158 -0.0866 -0.2156
16063W        W31872  16.708   6.761  16.932  0.1651 -0.1054 -0.3095
16064W        W31873  15.240   4.952  16.435 -0.2065  0.0040 -0.0136
16065W        W31874   2.406  15.025   5.179  0.1519 -0.1182  0.0873
16066W        W31875   6.757   9.145   3.499  0.1961  0.0525  0.0505
16067W        W31876  13.100   9.333   0.771  0.1135 -0.1747 -0.0210
16068W        W31877   7.224  16.036   2.448 -0.0890 -0.0044  0.1827
16069W        W31878   3.720   6.102   2.922  0.0211 -0.0702 -0.1508
16070W        W31879  16.086  12.193  12.429 -0.1625  0.1829  0.0856
16071W        W31880  17.039   4.967   1.655 -0.2968  0.1496 -0.0935
16072W        W31881   6.038   2.953   4.160  0.1281  0.0170 -0.0905
16073W        W31882   8.011  12.909   4.010 -0.4315 -0.0089 -0.1187
16074W        W31883   5.928   9.056  12.829  0.0376  0.0644  0.0631
16075W        W31884   0.303   8.810   2.512 -0.1999  0.1824  0.4142
16076W        W31885  17.706  13.368   4.937  0.1191  0.0472 -0.2018
16077W        W31886  16.609   0.645  16.066  0.2059 -0.2004  0.5468
16078W        W31887   7.383   2.351   1.114 -0.1457 -0.0788  0.2735
16079W        W31888  17.634  10.887  15.539  0.2165 -0.2444 -0.1051
16080W        W31889  11.706  13.162  10.783 -0.0633  0.1530  0.1481
16081W        W31890   8.483  17.284   0.795  0.3033  0.3119  0.2076
16082W        W31891  13.148  15.472  13.632 -0.1425  0.2464  0.0280
16083W        W31892  11.478   8.094  15.977 -0.0818 -0.2323  0.1092
16084W        W31893  14.691  15.555  16.466 -0.1059  0.0914 -0.1189
16085W        W31894   6.779   3.669  16.207  0.0415  0.2307  0.1225
16086W        W31895  11.202   0.886   0.617  0.1945  0.1660 -0.1577
16087W        W31896   8.377  16.490  10.692 -0.1879 -0.1069  0.0996
16088W        W31897   7.238  16.762   0.788  0.0591  0.2246 -0.2267
16089W        W31898  14.357   3.147   3.902 -0.0402  0.3241  0.0862
16090W        W31899  12.930   3.334  12.716  0.2936  0.3528 -0.0979
16091W        W31900   9.634  13.908   4.097 -0.2083 -0.0164  0.0476
16092W        W31901  16.704  13.135   3.172  0.1105 -0.0400  0.1552
16093W        W31902   3.840   7.106   1.005 -0.0020 -0.2077 -0.1225
16094W        W31903   4.839  13.033   4.634 -0.0182  0.0784 -0.0949
16095W        W31904  14.766  12.531  16.100 -0.0481  0.2458 -0.0544
16096W        W31905  14.643  15.188  13.377  0.0267  0.1120  0.2695
16097W        W31906  14.307  15.285   0.728 -0.2153 -0.0171  0.1240
16098W        W31907  12.160  15.470  14.600 -0.1800  0.0673  0.4044
16099W        W31908   2.253  17.350  16.473 -0.0295  0.0406 -0.0424
16100W        W31909  14.527  14.797   5.547 -0.0796 -0.1970  0.0021
16101W        W31910   3.763   2.185  13.497 -0.1049  0.1988 -0.1488
16102W        W31911  12.507  10.672  12.285  0.1017 -0.0785 -0.1567
16103W        W31912  14.114  11.556   0.418 -0.2486  0.0870  0.2571
16104W        W31913  14.797  15.177   2.278 -0.1746  0.0961  0.0326
16105W        W31914  14.077  12.274  15.618  0.1126 -0.4917  0.2108
16106W        W31915  12.453  15.651   2.271  0.0162  0.1092 -0.2049
16107W        W31916  16.927   4.777  13.682 -0.3255 -0.0466  0.2328
16108W        W31917  16.312   8.514  13.913  0.2774 -0.3040  0.0163
16109W        W31918   0.029   9.511  11.618 -0.1898  0.2674 -0.2090
16110W        W31919  16.296   3.828  13.928 -0.2246  0.1860 -0.0302
16111W        W31920   2.596  17.607  16.183 -0.0608 -0.0071  0.0996
16112W        W31921   6.707   9.079  12.321 -0.2833 -0.1084  0.3335
16113W        W31922   0.264  16.414  14.397  0.4394 -0.1093  0.0749
16114W        W31923  13.643  15.373   4.057  0.0380 -0.1590 -0.1149
16115W        W31924   9.641  14.020  13.487 -0.1370 -0.0005  0.0509
16116W        W31925  17.441  15.179   3.700 -0.0113  0.0683 -0.1252
16117W        W31926  17.469   4.506  14.872  0.0111 -0.1339  0.1105
16118W        W31927   8.418   2.932   4.824 -0.0539  0.0425 -0.3230
16119W        W31928   5.329   8.989   0.267  0.0715 -0.0692  0.2816
16120W        W31929  16.171  13.853   1.807  0.0182  0.2116  0.1819
16121W        W31930   4.559   7.419  12.228 -0.0951 -0.0148  0.0211
16122W        W31931  14.342   2.496   2.972 -0.1478 -0.2733 -0.1067
16123W        W31932  10.225   5.924   1.836 -0.0752  0.0818  0.0629
16124W        W31933   7.222  14.589   1.593 -0.3083 -0.1512  0.0907
16125W        W31934  10.892   7.019   4.176 -0.2915  0.1189 -0.1187
16126W        W31935  15.954   0.331  11.132 -0.1726  0.0749 -0.2079
16127W        W31936   6.153   7.360  14.821  0.0339  0.0348 -0.0163
16128W        W31937  15.946   6.033   1.321  0.1122 -0.0899  0.0451
16129W        W31938   9.477   6.194  13.574  0.2320  0.2110 -0.1651
16130W        W31939  12.133   8.528   6.441 -0.0926 -0.2879  0.0934
16131W        W31940   6.044  10.849  15.626 -0.2571  0.2528 -0.1527
16132W        W31941  14.617  13.358   1.822  0.0197 -0.1826  0.1965
16133W        W31942   0.378  12.672   0.925 -0.2824  0.2350 -0.0458
16134W        W31943   6.769  15.343  15.791 -0.1035 -0.1804  0.0611
16135W        W31944   0.860  13.948   2.769  0.2541 -0.1477  0.1116
16136W        W31945  17.184   2.484  13.660 -0.1125  0.0262  0.3287
16137W        W31946   5.921   9.421   3.673 -0.0973 -0.2772  0.2939
16138W        W31947   0.179  16.039   2.674  0.2823 -0.0601  0.0582
16139W        W31948   7.914   7.748   1.410  0.3493 -0.4319 -0.0723
16140W        W31949   5.108   2.028   6.374  0.0580  0.1292  0.0503
16141W        W31950   8.127  17.566   4.233 -0.1035 -0.1680 -0.3598
16142W        W31951  13.577   0.274  15.566 -0.1432  0.3124 -0.3721
16143W        W31952  13.466   6.554   0.521  0.1585 -0.1066  0.1059
16144W        W31953   0.557  16.214  15.731 -0.0118  0.0048 -0.1333
16145W        W31954   3.066   3.292  13.013 -0.1245  0.1709 -0.2313
16146W        W31955   0.578  11.060  12.589  0.1320 -0.0558  0.4602
16147W        W31956  16.491  11.827   4.717 -0.1774  0.4232 -0.0074
16148W        W31957  15.561  13.843   2.538 -0.0893  0.2691 -0.0328
16149W        W31958   2.487  10.294  15.795 -0.0442 -0.0508  0.0019
16150W        W31959   3.148   0.520   5.311  0.0101 -0.2831 -0.3926
16151W        W31960  10.891   8.498  11.678 -0.0040 -0.2552  0.1466
16152W        W31961  10.420   1.454   1.167  0.2347 -0.1034  0.0285
16153W        W31962  13.194   8.297  13.037 -0.2672  0.0870 -0.0236
16154W        W31963  10.341   1.840   1.820 -0.2623 -0.1449  0.0104
16155W        W31964  14.789  16.178  13.973  0.1837 -0.4388 -0.1769
16156W        W31965  13.875   1.314  12.778  0.1750  0.1179  0.1893
16157W        W31966   9.328   5.161   0.801  0.2438 -0.1086  0.1561
16158W        W31967  16.497  15.499   0.771 -0.3752  0.1972 -0.1870
16159W        W31968  16.153   7.515   6.451  0.0938  0.0807 -0.2757
16160W        W31969   7.017   9.685   5.033 -0.1482  0.0342 -0.0044
16161W        W31970  11.199   1.341   4.607  0.0960 -0.0681  0.0792
16162W        W31971  14.390   4.868   5.702  0.3259  0.2549 -0.0110
16163W        W31972  14.376   6.625  14.094  0.1461 -0.1679  0.0250
16164W        W31973   4.584  11.236  12.392  0.2233 -0.0497 -0.2159
16165W        W31974   7.532  13.390  11.727  0.2266 -0.1698 -0.1465
16166W        W31975   6.877  16.850  16.454 -0.1528 -0.0245  0.0969
16167W        W31976  15.609   8.309  14.992 -0.1566 -0.2048 -0.2697
16168W        W31977   2.525   2.652   0.061 -0.1374 -0.1198  0.0361
16169W        W31978   6.753  14.634   6.115  0.0143  0.3630  0.0972
16170W        W31979   2.692  10.195   2.885  0.1219 -0.1066  0.3006
16171W        W31980  11.793  13.601  16.268 -0.0992 -0.0786 -0.0400
16172W        W31981   2.133  12.760  12.407 -0.3207 -0.0120 -0.0118
16173W        W31982   6.601  16.306  15.618  0.1976 -0.0650  0.1795
16174W        W31983   5.442  16.059   0.645 -0.1544  0.0966  0.1622
16175W        W31984   8.162  16.072   0.170  0.1985  0.1493  0.1196
16176W        W31985  16.296   4.553  12.716  0.1754 -0.0241 -0.0061
16177W        W31986   5.201  14.775  14.754 -0.2158  0.0017  0.0881
16178W        W31987  17.529  12.479   4.354 -0.1397 -0.0076  0.0018
16179W        W31988   4.443   9.980   5.072  0.0796 -0.1173  0.3315
16180W        W31989  13.794   3.019  12.372  0.0581 -0.1654  0.2228
16181W        W31990  11.144   6.198   2.418  0.1121  0.2099  0.0171
16182W        W31991   8.975   4.017   5.000  0.1852  0.2311  0.0542
16183W        W31992   0.778   1.880   6.264  0.2855 -0.2636  0.2139
16184W        W31993   4.229  13.645  14.261  0.0070 -0.1582 -0.2549
16185W        W31994   0.629   6.579   0.266 -0.1117 -0.1107  0.0888
16186W        W31995   7.141   4.279   5.611  0.0131 -0.1403 -0.1364
16187W        W31996   3.670   8.207  14.629 -0.3362  0.5258  0.2857
16188W        W31997   3.388  11.342   6.208  0.1305 -0.0490  0.2212
16189W        W31998  12.608  13.540   5.728  0.0449  0.3085  0.0683
16190W        W31999   7.200   4.810   0.186  0.1644  0.0986  0.2209
16191W        W32000   3.930  10.806  15.421  0.1422  0.1030 -0.2610
16192W        W32001  12.367  14.537  11.736  0.1544 -0.2358 -0.1287
16193W        W32002   5.978  11.150   1.979  0.0871  0.1668  0.3556
16194W        W32003   4.663  15.275   0.379 -0.1630  0.1235  0.1833
16195W        W32004  11.535  12.182  16.266  0.0145  0.1583  0.3594
16196W        W32005  14.916  15.718  14.047  0.0738  0.3490  0.1089
16197W        W32006   6.503   4.807   2.856  0.1385 -0.1706 -0.1597
16198W        W32007  12.079   0.965   4.755 -0.0522 -0.1634 -0.2131
16199W        W32008   4.886   5.022   4.623 -0.1592 -0.0589 -0.1361
16200W        W32009  12.726   8.499   0.279  0.0677 -0.0274  0.0909
16201W        W32010   8.624   8.636   3.161  0.1951  0.2392  0.3731
16202W        W32011   4.582  16.893  14.294 -0.0399  0.1865 -0.1343
16203W        W32012  16.947  10.064  14.157  0.0639 -0.1339  0.1289
16204W        W32013   4.958   7.496  16.137  0.0702 -0.1911  0.2081
16205W        W32014   4.142  12.790  16.800 -0.2026 -0.1734 -0.0848
16206W        W32015  16.748   0.635   0.901  0.4288  0.3409  0.1486
16207W        W32016   3.786  16.879  15.995  0.2537 -0.0724  0.1636
16208W        W32017   4.403  12.715  12.959  0.0489  0.0720 -0.0756
16209W        W32018  10.868   8.590   5.192  0.1152 -0.4298 -0.1683
16210W        W32019  16.749   7.637   2.103  0.0281 -0.0667  0.3031
16211W        W32020   7.244   4.444   3.492 -0.1984  0.0143  0.0513
16212W        W32021   3.429   4.242   5.695  0.0805  0.2566  0.0563
16213W        W32022   9.098  14.195   2.741  0.3696  0.2584  0.1057
16214W        W32023   2.539  12.185   1.322 -0.0793 -0.0110  0.0158
16215W        W32024   3.000   8.205  12.735 -0.1793  0.0926 -0.0234
16216W        W32025   9.521   5.808   6.091  0.0274 -0.4729 -0.5582
16217W        W32026   6.404   9.797   4.140  0.0742  0.1142  0.1896
16218W        W32027   9.730   0.219   2.726  0.0329  0.0830 -0.0506
16219W        W32028  13.002   6.702   3.040 -0.2101  0.0937 -0.0164
16220W        W32029  17.104   0.257   5.822 -0.1350 -0.1030  0.0168
16221W        W32030  11.818  13.882   3.002 -0.0568 -0.1839  0.0071
16222W        W32031  13.688   4.846  12.930  0.0272 -0.0334 -0.0045
16223W        W32032  11.260  15.549   3.074 -0.0246 -0.2553 -0.1770
16224W        W32033  13.582   0.019  16.092  0.4773  0.0271  0.3093
16225W        W32034  11.281   1.323   1.985 -0.1255  0.0799 -0.0968
16226W        W32035   7.911   0.676  13.733 -0.2790 -0.3836  0.1891
16227W        W32036   2.273   2.190  14.643 -0.0569  0.3350 -0.2020
16228W        W32037   2.598   2.990  13.188 -0.0807 -0.1127 -0.0098
16229W        W32038  11.998  14.283  15.480  0.1415  0.0712 -0.1397
16230W        W32039   9.262  15.737  10.849 -0.1940  0.0994  0.1940
16231W        W32040   6.845   6.902  15.953  0.4486  0.0412  0.1082
16232W        W32041   7.276  10.969   0.287  0.0324 -0.1617  0.1156
16233W        W32042  13.973  17.095   1.167 -0.3047 -0.3609 -0.2115
16234W        W32043   1.930  11.160  15.590  0.0117 -0.1661 -0.1127
16235W        W32044   8.747  13.854   1.124  0.1504 -0.1205  0.4916
16236W        W32045  17.623  11.653   3.763 -0.3934  0.2924 -0.2028
16237W        W32046  12.124   4.615   2.703  0.0097 -0.2605  0.2172
16238W        W32047   7.291  16.359  11.954 -0.0975 -0.0773 -0.0306
16239W        W32048  14.625   6.799   1.822  0.3045 -0.4410 -0.0564
16240W        W32049   0.634  12.310  16.131  0.0526  0.1126 -0.0758
16241W        W32050  10.130   4.793  12.419  0.2838 -0.4277  0.0754
16242W        W32051   7.939   1.531   4.991  0.0653 -0.0491  0.0512
16243W        W32052  12.200   3.637  12.007 -0.0861 -0.0739 -0.0142
16244W        W32053   5.538  13.710   3.942  0.1698 -0.0216  0.2378
16245W        W32054   1.910  10.414   2.293  0.0782 -0.0389 -0.0401
16246W        W32055   6.236   5.355  13.896 -0.2551  0.0918 -0.1730
16247W        W32056   5.946  15.677   5.557 -0.0532  0.2551 -0.1639
16248W        W32057   5.594  16.922   0.845 -0.2132  0.0046  0.2828
16249W        W32058   9.754   6.815   5.525  0.0504 -0.0893  0.2117
16250W        W32059   4.641  13.484   2.905  0.2027 -0.2584  0.2868
16251W        W32060  15.922   0.650  16.454  0.0800  0.1963 -0.4304
16252W        W32061  16.233   5.982  15.969  0.1838 -0.1014  0.1846
16253W        W32062   4.337   3.945   0.497  0.2768 -0.0883  0.1384
16254W        W32063  14.975   9.581   5.279 -0.1113  0.1752  0.0442
16255W        W32064   2.290   4.251  13.375 -0.1302  0.1169 -0.1967
16256W        W32065   4.053   2.488   3.790  0.0193  0.0356  0.1794
16257W        W32066   2.646  13.403  11.465 -0.3727  0.2119  0.0636
16258W        W32067   5.694  10.336   1.448 -0.1802 -0.0148 -0.2756
16259W        W32068   8.579   9.255   6.247 -0.1112  0.0832 -0.0636
16260W        W32069   0.092  14.216  15.067 -0.2103  0.1587 -0.0077
16261W        W32070   5.172   6.479  14.306  0.0521 -0.0699  0.3721
16262W        W32071   4.642   8.868   6.482 -0.0196  0.3366 -0.0377
16263W        W32072   8.370  14.161   1.008  0.0141  0.0659  0.1073
16264W        W32073  17.192  13.076  11.715  0.1307  0.0187 -0.2643
16265W        W32074   4.821  11.128   4.561  0.1358  0.2889 -0.0661
16266W        W32075   2.023   6.062  15.094 -0.0234  0.0724 -0.0875
16267W        W32076   3.487   2.055  15.569  0.2438 -0.4548 -0.1929
16268W        W32077   4.956   4.189  13.506  0.3128 -0.0463  0.1001
16269W        W32078   8.939   1.836  16.789 -0.1408 -0.0258  0.1647
16270W        W32079   9.715   0.841  13.428 -0.2559  0.3318 -0.0377
16271W        W32080   8.268   1.195   4.893  0.3283  0.2703 -0.0793
16272W        W32081   4.267   5.665  12.370 -0.1808  0.0456  0.0354
16273W        W32082  14.718  15.264  13.858 -0.1775 -0.0802 -0.0293
16274W        W32083  13.553   7.395   0.325  0.1505  0.2367 -0.0662
16275W        W32084  16.562   1.712   4.220 -0.1290 -0.0211 -0.0938
16276W        W32085   0.168   2.490  13.835 -0.0076 -0.1662 -0.1333
16277W        W32086   7.060   9.588  11.642  0.1115  0.2752 -0.2192
16278W        W32087  17.577  17.495  14.064 -0.1435 -0.1691  0.2850
16279W        W32088  11.096  16.164  16.907  0.2598 -0.1870 -0.2571
16280W        W32089  14.990  15.126  12.272 -0.0652 -0.3066 -0.0070
16281W        W32090   8.088   8.827  14.852 -0.1027 -0.1178 -0.2915
16282W        W32091  16.696   0.713   0.319  0.1160 -0.1197  0.2904
16283W        W32092  12.412   5.720  16.430  0.2256 -0.0030  0.3829
16284W        W32093   0.743   2.823   2.799 -0.0771  0.2129  0.1372
16285W        W32094   2.901  13.295   4.971 -0.0382 -0.0745 -0.1359
16286W        W32095  14.060  14.491   5.422  0.1344  0.1206 -0.1370
16287W        W32096  15.491   4.653   2.811 -0.3538  0.0854 -0.0060
16288W        W32097  17.326  16.750  13.216  0.0812 -0.3065  0.1205
16289W        W32098  11.924   4.549  16.865 -0.3013 -0.0998 -0.1372
16290W        W32099  11.579  11.517  16.681  0.1448  0.1102 -0.1460
16291W        W32100  16.622  12.712  12.967  0.0057  0.0052  0.0286
16292W        W32101   2.502   1.252  12.367  0.2949 -0.1898  0.1333
16293W        W32102   5.042   1.290   0.248 -0.2427  0.3059  0.1030
16294W        W32103  16.995  14.058  16.431 -0.2628 -0.1036  0.1248
16295W        W32104   2.683   6.756   1.942  0.1749 -0.0248  0.0828
16296W        W32105   6.130  17.130  11.747 -0.4853 -0.2138 -0.1247
16297W        W32106   6.977  12.724   5.035 -0.1001  0.3130  0.1312
16298W        W32107  11.630   4.844   2.009 -0.3387  0.0251 -0.1431
16299W        W32108   1.718  12.827  15.154 -0.0411 -0.2089 -0.1612
16300W        W32109   9.817   3.372  12.756 -0.1469 -0.0872  0.2157
16301W        W32110  15.708   3.521   3.785  0.1546 -0.0121 -0.1705
16302W        W32111   2.525  11.966  15.407 -0.1104 -0.4043  0.0095
16303W        W32112   1.051  10.066  11.066  0.0051  0.2503  0.0160
16304W        W32113   7.491  11.902  15.285  0.0389 -0.0229  0.4170
16305W        W32114   6.945   1.867   3.237  0.1563  0.0715  0.2509
16306W        W32115   2.103   8.468   1.235 -0.0994  0.1672 -0.0292
16307W        W32116   5.446   6.261   1.927 -0.0347  0.2180 -0.1394
16308W        W32117  10.891  13.039  15.827  0.1391 -0.0268  0.1177
16309W        W32118   4.664  14.317   0.119 -0.1541  0.0444  0.0633
16310W        W32119   1.381  15.295  13.751 -0.1477 -0.1880 -0.1590
16311W        W32120   2.409   8.898   1.183 -0.1176  0.1832  0.1312
16312W        W32121  14.049   7.641  12.932 -0.0198  0.0707 -0.1165
16313W        W32122   0.569   9.186  16.854 -0.3393 -0.0741  0.0181
16314W        W32123  13.641  17.565   4.906 -0.0513 -0.1210 -0.1529
16315W        W32124   9.475   2.162   0.046  0.1092  0.1514  0.0136
16316W        W32125   3.117   6.890  15.831 -0.0621  0.2002  0.2865
16317W        W32126   8.922   7.544  14.128 -0.2719 -0.0759 -0.1251
16318W        W32127  10.646   6.546   2.284 -0.1665  0.0333  0.0731
16319W        W32128   1.543   7.260   2.529 -0.0292 -0.4665 -0.1798
16320W        W32129   4.754  10.466  14.376  0.2312 -0.0941 -0.1139
16321W        W32130  16.271  10.461   3.840 -0.2267  0.2518  0.1333
16322W        W32131  12.695  14.968  16.764  0.2716 -0.3427 -0.2953
16323W        W32132  16.618   0.711  13.610 -0.2540 -0.0111  0.2589
16324W        W32133  11.242  12.968  11.767 -0.3001  0.0753  0.0180
16325W        W32134   9.674   2.099  14.730  0.2306  0.2383  0.1418
16326W        W32135   6.212  14.822   2.295  0.0081 -0.1212 -0.1068
16327W        W32136   4.893  10.082  12.315  0.0746  0.1443 -0.0526
16328W        W32137   5.065  16.717   2.109  0.1804  0.0970 -0.2293
16329W        W32138  17.400   8.486   1.271 -0.3104 -0.1811 -0.0477
16330W        W32139   4.864   0.977   3.563  0.0689 -0.1705  0.0269
16331W        W32140   8.009   6.533   4.365 -0.4336 -0.1739 -0.1999
16332W        W32141  17.395  16.046  11.494 -0.0235 -0.4264  0.1120
16333W        W32142   0.812  15.630  12.076 -0.1646 -0.0723  0.2052
16334W        W32143  15.739  11.701   3.753 -0.0776  0.1084 -0.1815
16335W        W32144   0.739  12.034   5.372  0.2447 -0.3876  0.0961
16336W        W32145  10.508   0.062   4.039 -0.1942 -0.2810 -0.1046
16337W        W32146   7.478   4.266  12.892  0.0838  0.2084 -0.1667
16338W        W32147   5.923  11.282  14.744  0.0163 -0.1267  0.1974
16339W        W32148   9.017   8.835   3.363  0.0043  0.0332  0.0746
16340W        W32149  11.690   2.501   2.537  0.3285  0.1551 -0.1507
16341W        W32150   9.665   5.371  16.819 -0.1967 -0.0342  0.0323
16342W        W32151  14.917  17.338   3.834  0.2626  0.1243 -0.0649
16343W        W32152   9.034   6.073   6.087  0.0478  0.3237  0.2030
16344W        W32153  13.966   2.650  16.525 -0.2007 -0.2260 -0.1597
16345W        W32154   2.339   1.043  13.713 -0.3990  0.1703 -0.0314
16346W        W32155  16.048   1.398   6.261  0.0961 -0.1061 -0.2002
16347W        W32156   4.825  15.539  11.038  0.0712  0.1726  0.1268
16348W        W32157  14.379   5.926  15.610  0.0077  0.2364  0.3222
16349W        W32158  13.453   5.489   2.266  0.3431 -0.0916  0.1052
16350W        W32159   6.681   0.935   3.882 -0.2737  0.1741  0.0567
16351W        W32160  11.715  17.188   3.573 -0.1798 -0.0407 -0.0537
16352W        W32161   9.376   0.496  13.259  0.0337 -0.0804  0.2300
16353W        W32162   7.794  16.016  14.379  0.1438  0.3148  0.1856
16354W        W32163  10.972  13.763  15.092 -0.1736  0.2910  0.0833
16355W        W32164  14.538  10.983   5.666  0.2595 -0.1593 -0.0607
16356W        W32165  16.021   0.963  12.855 -0.1167  0.2591 -0.1408
16357W        W32166  16.981  16.361   0.786 -0.0110 -0.0292  0.2151
16358W        W32167   9.752   3.303  15.169  0.0797 -0.0626  0.2522
16359W        W32168   7.812   9.575   1.087  0.2587 -0.0563  0.0931
16360W        W32169   6.082  10.771   5.184 -0.0993 -0.0293 -0.0749
16361W        W32170   8.298   8.842   2.446 -0.0528  0.1118  0.3480
16362W        W32171  16.107  17.104   3.932 -0.2468  0.1047 -0.0823
16363W        W32172   1.641   4.791   5.963 -0.0814 -0.2125 -0.1361
16364W        W32173  10.559   3.052  16.834  0.1163 -0.1122 -0.0646
16365W        W32174   1.254  13.992  11.552 -0.1545 -0.0271 -0.2223
16366W        W32175   1.458   8.344   3.913  0.3443  0.2937 -0.1959
16367W        W32176  16.798  11.442  12.298  0.0574 -0.0464  0.0932
16368W        W32177   0.754   2.113   3.784 -0.2235  0.0163  0.0961
16369W        W32178   1.850  17.565   3.269 -0.1947 -0.1208 -0.1493
16370W        W32179   5.218   0.206   3.377  0.0196 -0.0899 -0.0209
16371W        W32180   4.573   8.013  16.093  0.1707  0.1586  0.0585
16372W        W32181   2.619   8.826  16.166 -0.1415 -0.0472  0.1917
16373W        W32182  13.712   1.505   4.519 -0.0436  0.3526 -0.0806
16374W        W32183   6.826   6.940  14.455 -0.0814 -0.1292  0.0351
16375W        W32184  11.152  13.355  14.223 -0.0303 -0.0085 -0.1187
16376W        W32185  10.906   8.996  15.072 -0.0219 -0.1195  0.2295
16377W        W32186   6.558  13.718  14.711 -0.0005  0.2121  0.1849
16378W        W32187  12.066  12.309  12.011  0.2812 -0.2094 -0.0498
16379W        W32188   0.997   1.779  15.391  0.1957  0.1864 -0.0352
16380W        W32189   9.134   8.603   3.851  0.1662  0.1767 -0.2687
16381W        W32190   7.257  14.347  15.348  0.0449 -0.1525  0.1948
16382W        W32191   8.327   9.409   2.486 -0.0173  0.1653  0.3097
16383W        W32192   9.647   3.511   1.396 -0.2244  0.1077 -0.0705
16384W        W32193   6.874   3.980   6.017  0.1255  0.0224 -0.0675
16385W        W32194  16.261  11.893   2.913 -0.2268  0.0617  0.1731
16386W        W32195  15.083   3.540   5.300  0.1522  0.2383 -0.0970
16387W        W32196   5.509   4.030   2.132  0.0459 -0.0485  0.1158
16388W        W32197   0.824   0.755   3.448  0.0067  0.0589 -0.0562
16389W        W32198  11.894  14.701  15.203 -0.1720  0.0928  0.2500
16390W        W32199   5.975   7.387   1.702 -0.0789  0.1233 -0.2868
16391W        W32200   4.030   2.366   2.627 -0.5178 -0.0840 -0.0301
16392W        W32201  16.315  10.460   5.038 -0.0971 -0.2039 -0.1959
16393W        W32202  13.668   2.988   2.276  0.3296  0.0221 -0.1366
16394W        W32203   7.509  16.510  12.400  0.2587  0.1645 -0.1598
16395W        W32204  15.235   1.515   3.444 -0.2658 -0.3058 -0.0033
16396W        W32205  17.264   1.253   2.599 -0.0730 -0.0200 -0.2173
16397W        W32206   5.823  14.496  14.139  0.1376  0.1004  0.0851
16398W        W32207  14.902   1.282  16.590 -0.0403 -0.2114 -0.2013
16399W        W32208   8.702  12.986  10.924 -0.0016  0.0806  0.0442
16400W        W32209   5.496   2.214  14.933  0.0392 -0.0428 -0.1228
16401W        W32210  14.981   5.391   0.158  0.1499  0.0694  0.0036
16402W        W32211   6.849  15.377  14.786 -0.2724 -0.2958 -0.1055
16403W        W32212   9.127  13.772  12.313  0.0537  0.2668  0.1193
16404W        W32213  11.928  11.212   0.800  0.0191  0.1446 -0.0156
16405W        W32214   8.036   6.942   3.500 -0.3679 -0.5398 -0.1314
16406W        W32215   2.700  12.312  16.089  0.1642  0.1577 -0.1978
16407W        W32216   1.545   7.381   3.317 -0.2537  0.0940  0.0216
16408W        W32217   1.043   3.620  13.846  0.0158 -0.0104 -0.2063
16409W        W32218  12.396  14.868  12.427  0.1265  0.0634  0.0332
16410W        W32219  11.037  10.299  11.490  0.0315  0.0895 -0.2810
16411W        W32220  10.964   0.165   4.360  0.0192 -0.0474 -0.2229
16412W        W32221   5.933   5.280   1.738  0.3109 -0.0632 -0.2469
16413W        W32222   3.880   7.112   4.236  0.3984  0.0592 -0.0033
16414W        W32223  12.117   9.403  16.401  0.0933 -0.1132 -0.3863
16415W        W32224   3.728  15.329   5.177 -0.0060  0.1811 -0.0437
16416W        W32225  15.681  14.782  13.749  0.0890  0.1212 -0.3109
16417W        W32226   7.349   0.338   3.212 -0.0609 -0.0944  0.2896
16418W        W32227   2.770   4.960   4.704  0.1896  0.2871 -0.4263
16419W        W32228  14.169   3.081   2.148  0.4932 -0.3188  0.0042
16420W        W32229  15.553   0.256   0.221 -0.0072  0.1744 -0.2012
16421W        W32230  14.517  12.996   1.517 -0.1483 -0.0541  0.1039
16422W        W32231   6.439   7.456  16.764 -0.2581  0.1798 -0.1059
16423W        W32232   2.409  12.099   2.650 -0.0745  0.1907  0.1527
16424W        W32233  14.541   9.731   2.469  0.2311  0.1567 -0.1420
16425W        W32234   9.493   1.545  15.751 -0.0470  0.0477  0.1936
16426W        W32235  12.497  15.394  10.694 -0.0768 -0.1239 -0.0744
16427W        W32236  13.896   8.663   4.584 -0.0966 -0.1554  0.0220
16428W        W32237   2.101   1.528   0.822 -0.0212 -0.0402  0.0669
16429W        W32238   4.067  11.290  16.539 -0.0709 -0.1999 -0.0908
16430W        W32239   9.503   3.696  12.958  0.0705 -0.2052 -0.0715
16431W        W32240   3.730  16.714  15.043  0.0355  0.1085  0.0059
16432W        W32241  11.505  10.669   2.218 -0.0816 -0.0150 -0.2172
16433W        W32242   2.918   6.166  15.225  0.2565 -0.0576  0.0882
16434W        W32243   7.612   2.581  15.857 -0.0384  0.1174 -0.0363
16435W        W32244   4.396   9.760  16.635 -0.1040 -0.0648  0.0018
16436W        W32245   8.367   0.850  16.500  0.1586 -0.2248  0.3576
16437W        W32246  12.209   3.026   4.058  0.2886  0.1681  0.2003
16438W        W32247   3.317  14.416   4.229  0.0892 -0.2855  0.0477
16439W        W32248  14.714  11.135   5.226  0.3398 -0.0862  0.0776
16440W        W32249   3.852  14.833   4.164  0.1486 -0.0149 -0.0354
16441W        W32250   8.142   4.549   0.705  0.0418  0.0196 -0.1310
16442W        W32251   3.592   4.861   1.377  0.0881  0.4349  0.2424
16443W        W32252   8.799   0.055   1.535 -0.1586  0.1553  0.3026
16444W        W32253   7.243   0.067  14.990 -0.0419 -0.0350  0.0558
16445W        W32254   6.952   1.354   4.006  0.0151 -0.1050  0.1619
16446W        W32255  16.837   3.957   5.548  0.3213 -0.1252 -0.1152
16447W        W32256  10.542   3.120  15.394 -0.1022 -0.0220 -0.0334
16448W        W32257   0.434   4.675   5.236 -0.1446 -0.2725  0.0378
16449W        W32258   4.720   9.572  12.259  0.1670  0.1813 -0.2367
16450W        W32259  11.350   3.969   5.877  0.0195  0.1517 -0.2105
16451W        W32260   3.327   8.322   5.636  0.1372 -0.3402  0.1001
16452W        W32261   2.949  15.394   5.379 -0.3378 -0.0851  0.0316
16453W        W32262   3.617  16.935  14.617  0.0480 -0.1083  0.2628
16454W        W32263   4.148  16.068   0.717 -0.0251  0.3034  0.0137
16455W        W32264  16.777  10.421   5.382 -0.0122 -0.0116 -0.0577
16456W        W32265   2.756  12.948   3.301 -0.0801 -0.1350 -0.0905
16457W        W32266   7.958   4.968   5.653  0.2623  0.1038  0.0941
16458W        W32267   8.066   7.377  14.640 -0.1765 -0.1897  0.1720
16459W        W32268  10.665  12.340  14.161 -0.2728 -0.1043  0.2210
16460W        W32269   9.372   4.504  16.540 -0.3282 -0.0902  0.1379
16461W        W32270   0.971  15.885   3.633  0.0083  0.0175  0.1783
16462W        W32271   4.132   7.214   1.357 -0.0080 -0.2989  0.0426
16463W        W32272   8.274   0.341  13.501 -0.1549 -0.2662  0.1022
16464W        W32273   1.145  12.808  15.055 -0.0716  0.2953  0.0590
16465W        W32274   1.501   0.900  14.693  0.2381 -0.1050 -0.0148
16466W        W32275   9.209  13.651  10.810  0.0967  0.2093  0.0306
16467W        W32276  11.219  10.341  14.508 -0.2972  0.2313 -0.1563
16468W        W32277   0.371   9.471  16.413 -0.0851  0.0777 -0.0513
16469W        W32278   5.129  14.705  11.863  0.0478  0.1284  0.0577
16470W        W32279  10.283  11.075  13.230 -0.2128  0.1175 -0.0983
16471W        W32280   1.563   9.136   3.458 -0.4541  0.0683  0.1112
16472W        W32281   1.829  15.301  14.582 -0.1000  0.0527  0.2396
16473W        W32282   9.384   4.340  15.909 -0.1627 -0.2459 -0.3425
16474W        W32283  10.338   5.690  15.620 -0.1724  0.0406 -0.3356
16475W        W32284   8.753  14.091   4.274  0.2461 -0.0562 -0.0034
16476W        W32285   4.163   9.032   5.954 -0.1621  0.3105  0.0319
16477W        W32286  14.230  13.467   0.245  0.0867 -0.2189  0.0817
16478W        W32287   3.597   8.133  16.213  0.2146 -0.1636 -0.1548
16479W        W32288  12.457   0.215  11.018 -0.2605  0.1271  0.2658
16480W        W32289   4.542   5.494  16.448  0.3220  0.0368  0.1141
16481W        W32290  14.138   9.419   2.904  0.3604  0.0333  0.2025
16482W        W32291  17.004   9.751   2.993  0.0607  0.3357  0.3780
16483W        W32292   5.631   0.145   3.756 -0.0541  0.0829 -0.2050
16484W        W32293  10.158  17.278   2.451 -0.2865  0.2228 -0.0258
16485W        W32294   8.553   6.940  13.839  0.1665 -0.0981 -0.2576
16486W        W32295   6.391   5.435   1.977 -0.3809 -0.0711 -0.0009
16487W        W32296   1.691  11.922   1.239 -0.1479 -0.0757  0.0079
16488W        W32297  13.117  17.505   3.689 -0.0089  0.0381 -0.1252
16489W        W32298  17.280  16.734   1.059  0.1512  0.0031 -0.0776
16490W        W32299  17.562   4.220  13.724 -0.2192 -0.0247  0.3007
16491W        W32300  12.172   3.192   0.088  0.2568 -0.1630  0.1826
16492W        W32301   1.857  14.202  14.732  0.1391 -0.0731 -0.1897
16493W        W32302   4.563  16.727   6.083 -0.2866 -0.0622  0.0530
16494W        W32303  12.412  14.486   0.828  0.1778 -0.2041 -0.2789
16495W        W32304   1.979  13.835  14.011  0.0253  0.0747 -0.2374
16496W        W32305   2.858  13.499   4.474  0.0416  0.1554  0.3612
16497W        W32306   7.738   8.305  11.681 -0.1294  0.1194 -0.0308
16498W        W32307   7.183  10.320  15.104  0.2453  0.0109  0.1957
16499W        W32308   9.988   9.345   4.014  0.0165 -0.3418 -0.0639
16500W        W32309  16.241  10.797  14.649 -0.0378 -0.1177  0.1674
16501W        W32310  10.205   4.646  15.946  0.0061  0.0772 -0.0538
16502W        W32311  11.343  13.643   2.564 -0.2099 -0.0535 -0.1193
16503W        W32312   5.358  12.280   5.732  0.0029  0.0129 -0.2436
16504W        W32313  13.860   1.462   3.549  0.1642 -0.1410 -0.1144
16505W        W32314   8.530  14.608  14.805 -0.1824  0.1169 -0.2331
16506W        W32315   3.367  17.211  16.005 -0.0586  0.1388 -0.0002
16507W        W32316   8.033   6.976   4.000  0.0043 -0.0532 -0.0887
16508W        W32317   9.518  15.639   3.700 -0.0018  0.1055 -0.0793
16509W        W32318  16.198  16.378  13.797  0.1762  0.1946 -0.4250
16510W        W32319  13.372  14.032   0.926 -0.0068 -0.0004 -0.2628
16511W        W32320   4.857   8.853   1.064  0.2258 -0.0677  0.1556
16512W        W32321  17.147   8.935   3.199  0.0561  0.0297 -0.2668
16513W        W32322  16.060   7.026   3.189 -0.0073 -0.0668 -0.1841
16514W        W32323   7.413  16.436   0.420  0.0742 -0.1248 -0.0537
16515W        W32324   0.203   9.933   5.603 -0.0544  0.1652 -0.0093
16516W        W32325   8.732   6.165   2.558 -0.1057 -0.0465  0.0247
16517W        W32326   8.571   4.179  13.588 -0.1340  0.1136 -0.2555
16518W        W32327  12.915   8.815  13.272 -0.2547 -0.2717 -0.4087
16519W        W32328  12.344   1.166   3.623 -0.0104 -0.1891 -0.2074
16520W        W32329   6.727   4.794  11.907  0.3302  0.0118 -0.0739
16521W        W32330  12.660   0.734  14.174 -0.2892  0.2829 -0.0575
16522W        W32331   5.271  16.346   3.007 -0.4227  0.2239 -0.1092
16523W        W32332  11.898   0.429  14.493 -0.0685 -0.0818  0.2573
16524W        W32333   7.511  12.068   1.374 -0.0732  0.0072  0.1284
16525W        W32334   2.724  16.765  13.152  0.1202  0.1136 -0.3160
16526W        W32335  16.862  14.890   1.177  0.2603 -0.0375  0.0089
16527W        W32336  11.269  11.018  13.829  0.0598  0.0077  0.0952
16528W        W32337  14.507  11.615  15.817 -0.3415  0.2851 -0.0031
16529W        W32338   8.218  10.545   3.375  0.0399 -0.0661 -0.1249
16530W        W32339   1.188   9.369  13.253  0.0200  0.2564  0.1152
16531W        W32340   8.995  12.405   3.441 -0.2024 -0.1095 -0.1087
16532W        W32341  13.195   7.232  16.425 -0.1344 -0.2849 -0.1804
16533W        W32342   7.399   1.235   4.205  0.0661 -0.1290  0.0440
16534W        W32343  13.666   2.693   4.765 -0.0507  0.1594  0.2899
16535W        W32344  17.061  14.330   2.694 -0.2889  0.0482 -0.1909
16536W        W32345  10.260   3.947  12.147  0.1245  0.1903  0.1837
16537W        W32346  16.537   9.899  16.080 -0.2113  0.0758  0.0425
16538W        W32347  17.054   2.436   5.747 -0.1728 -0.1846 -0.0862
16539W        W32348   8.157   2.725   5.827 -0.1298 -0.0888  0.2643
16540W        W32349   8.373  10.321  13.845 -0.0062  0.2689 -0.0512
16541W        W32350   8.814  10.851   3.891  0.0692 -0.0909  0.0343
16542W        W32351   0.531   5.139   6.715 -0.0405 -0.0238 -0.1625
16543W        W32352  13.949   9.035  12.119  0.0667 -0.2130 -0.1988
16544W        W32353   0.486   0.953  12.696  0.0281 -0.0694 -0.0782
16545W        W32354  11.754  14.523   2.347 -0.2540 -0.3496 -0.0342
16546W        W32355   7.703   5.145  16.564  0.2291  0.1223 -0.2814
16547W        W32356   1.005  12.620  13.593 -0.0457  0.0567 -0.0270
16548W        W32357   9.333  16.637   0.699  0.1080  0.1433  0.1560
16549W        W32358  17.235   6.169   3.206 -0.1015 -0.0656 -0.1030
16550W        W32359  10.339   5.735   3.460  0.1754 -0.0410  0.3302
16551W        W32360  14.249  16.920  13.636 -0.0422 -0.2642 -0.2728
16552W        W32361  14.149   1.183   4.369  0.1655  0.0324  0.0496
16553W        W32362  14.779  14.672  10.659  0.0654 -0.2288  0.3378
16554W        W32363  17.106  11.524  12.733  0.3877  0.0315 -0.0841
16555W        W32364   2.544  16.921   2.498  0.0810 -0.0671  0.1140
16556W        W32365  12.471  14.842   5.312  0.1802  0.1039 -0.1036
16557W        W32366   5.033  14.594   3.581  0.1352  0.1218 -0.0967
16558W        W32367  16.440   0.802  16.529  0.1649  0.2360  0.2653
16559W        W32368  15.923   5.317   4.881 -0.0239 -0.1338 -0.2857
16560W        W32369   2.217   0.567   0.946  0.2833  0.1344 -0.3162
16561W        W32370   2.587   6.848  12.002 -0.1859  0.0783 -0.1426
16562W        W32371   7.012  13.233  16.243  0.0055 -0.2345  0.0037
16563W        W32372  16.334  14.917   1.361 -0.1281  0.1036 -0.1800
16564W        W32373   5.565   9.372   3.290  0.0469  0.0813  0.1591
16565W        W32374   7.002   6.613  14.816  0.0742 -0.0143  0.1326
16566W        W32375  17.260  14.249  16.799 -0.1516  0.0930  0.2309
16567W        W32376  12.641   4.863   0.816 -0.0777 -0.0138  0.0276
16568W        W32377  12.710   0.549  16.764  0.0180 -0.2355  0.5004
16569W        W32378   7.239   9.798   1.819 -0.2191 -0.2277  0.1203
16570W        W32379  17.665   0.729  15.949  0.0658 -0.0460 -0.0635
16571W        W32380  15.639   2.721   3.033 -0.1940 -0.0910  0.0614
16572W        W32381   0.965  15.158  15.593 -0.1377  0.0268 -0.1086
16573W        W32382  11.030   8.763   5.639 -0.2635  0.2316  0.2725
16574W        W32383  14.465   5.321   4.789  0.3245 -0.0846 -0.1407
16575W        W32384   4.939   8.461  13.409  0.0182 -0.2548  0.0973
16576W        W32385   9.826   3.887   0.361 -0.1435 -0.1234 -0.2979
16577W        W32386   8.410   4.455   3.523 -0.0915 -0.2211 -0.0903
16578W        W32387   9.916   9.057   3.624 -0.0584 -0.1527 -0.0273
16579W        W32388   9.906  10.011   4.659 -0.1822  0.0368 -0.0437
16580W        W32389   2.384  12.412   2.266  0.1778  0.3420 -0.0860
16581W        W32390   0.715   3.777   1.624  0.0238  0.1911  0.3164
16582W        W32391   5.985  14.513  11.882 -0.1155 -0.2908  0.0492
16583W        W32392   2.901   2.517   4.581 -0.0518  0.0791  0.7747
16584W        W32393  13.279  13.100   2.161 -0.0229 -0.0813  0.1182
16585W        W32394  16.644   8.062   2.304  0.0916 -0.4664 -0.1941
16586W        W32395  15.677   7.386   1.148  0.2064 -0.2648  0.0600
16587W        W32396   6.295   7.359   3.274  0.2667  0.1267  0.1660
16588W        W32397   1.967   2.563  11.120  0.0648  0.1427 -0.0733
16589W        W32398   2.228   8.077   4.084  0.0433 -0.2323 -0.3358
16590W        W32399   0.124  17.242  16.499 -0.1111  0.0048 -0.0914
16591W        W32400   7.175   3.942  15.931  0.0975 -0.0340  0.0770
16592W        W32401   1.093  12.217   1.905  0.0323 -0.0984  0.1454
16593W        W32402  16.106   5.289  14.909 -0.2465 -0.3182 -0.1183
16594W        W32403   1.588   5.223   1.665 -0.2900  0.2496  0.1588
16595W        W32404   7.157  11.360   5.100 -0.0212 -0.0820 -0.6070
16596W        W32405  11.484   2.989   5.382  0.2302 -0.0529 -0.2292
16597W        W32406   5.166  15.876   1.534  0.2412  0.0076  0.1063
16598W        W32407  14.606  17.645   0.080  0.2061 -0.2415 -0.1900
16599W        W32408   4.767  14.828   5.833 -0.1927 -0.1423  0.0176
16600W        W32409   5.048  11.525  14.658 -0.1685  0.1535  0.0211
16601W        W32410  15.813   2.787  15.401 -0.4071  0.0552 -0.0153
16602W        W32411   4.283  12.457   0.771 -0.0005  0.0408  0.0314
16603W        W32412  15.439   6.016   5.336  0.1821 -0.1168  0.0475
16604W        W32413   8.582   5.732   3.994  0.3071  0.0546  0.0074
16605W        W32414   8.655   1.186  11.937 -0.0368 -0.1601  0.0080
16606W        W32415  16.658  11.953  16.592 -0.2108  0.0649 -0.0201
16607W        W32416  11.911  14.166   4.667 -0.3342  0.0802 -0.2922
16608W        W32417   0.268  14.595   2.674  0.2983  0.0867  0.0540
16609W        W32418   1.000   7.383  12.265  0.0072  0.0625 -0.0958
16610W        W32419   3.280  14.046  13.539  0.0773  0.1826 -0.1234
16611W        W32420  10.262   8.469  12.599 -0.1279 -0.3509  0.1363
16612W        W32421   3.949   7.703  14.134  0.1421 -0.0808 -0.0332
16613W        W32422  16.280  15.767   4.010 -0.0073  0.0713  0.0320
16614W        W32423   1.386  12.151  16.987  0.1581 -0.0133  0.3008
16615W        W32424  13.573  16.049   5.191 -0.1344 -0.0022 -0.2131
16616W        W32425  12.135  11.615  16.001  0.1967  0.0569 -0.1009
16617W        W32426   2.535   0.795  12.708  0.2870 -0.2645  0.1320
16618W        W32427  11.465   4.698  16.139 -0.0052 -0.2086 -0.3592
16619W        W32428   5.700   5.579   5.440 -0.1926 -0.1257 -0.0015
16620W        W32429   2.741   5.482   2.459 -0.0063 -0.2239  0.2221
16621W        W32430   6.679   8.463   0.601 -0.2232  0.2512 -0.2222
16622W        W32431   2.864  14.200   1.514  0.0002 -0.0760  0.0281
16623W        W32432   5.479  13.666   2.470 -0.0255 -0.1050  0.2031
16624W        W32433   9.668   7.435  16.257 -0.0087 -0.1907  0.1635
16625W        W32434  10.576  11.560   4.914 -0.0855  0.2519  0.0105
16626W        W32435  11.209   0.277  12.051  0.1567 -0.0526 -0.0603
16627W        W32436  10.536  15.231   4.023 -0.0816  0.0801 -0.2215
16628W        W32437  17.566   4.129   1.491  0.0263  0.0643 -0.1699
16629W        W32438   6.991  13.563  15.773  0.1807  0.0389  0.0099
16630W        W32439   5.650  16.670   2.241  0.1044  0.1068 -0.2153
16631W        W32440   1.722   1.511   6.309  0.1508  0.0895  0.2985
16632W        W32441  15.348   4.576  14.228  0.0071 -0.3384 -0.1258
16633W        W32442   8.497  15.566   0.804  0.1509 -0.1245  0.0132
16634W        W32443  15.752  16.099  13.861 -0.0225  0.0719 -0.2879
16635W        W32444   0.310  10.415   1.367 -0.2165 -0.1862  0.1409
16636W        W32445   9.944   3.501   4.130 -0.0884  0.1250  0.2171
16637W        W32446  12.227   9.434  13.236 -0.1235  0.0502 -0.2472
16638W        W32447  15.244  17.390  14.436 -0.3860  0.0197  0.1469
16639W        W32448  15.027  11.004   4.878  0.0104  0.0080  0.1293
16640W        W32449   4.642   3.501  16.126  0.0203 -0.2041  0.0119
16641W        W32450   3.265   8.206   4.540 -0.0835 -0.2733  0.0835
16642W        W32451  15.241  11.501  16.506  0.5257  0.2074  0.1835
16643W        W32452   9.954   4.241   1.064  0.0515 -0.4755 -0.0907
16644W        W32453   4.236   9.745  12.990  0.4007  0.0871 -0.0429
16645W        W32454   6.259  13.607   3.492 -0.1629  0.1616 -0.1502
16646W        W32455  17.669   9.186  14.349  0.1704 -0.1078 -0.1212
16647W        W32456   4.581  12.280  12.478  0.0091  0.0940  0.2083
16648W        W32457  17.715  17.730   0.131  0.1382 -0.0683  0.0462
16649W        W32458   2.453   8.754   2.650  0.0486 -0.0357 -0.2309
16650W        W32459   7.149   0.046   0.222  0.2133 -0.0513 -0.0020
16651W        W32460   3.235  17.633   0.397 -0.1841 -0.0054 -0.1968
16652W        W32461  15.737   7.230   5.601 -0.0916  0.0632  0.1935
16653W        W32462   3.704   0.035   0.980 -0.0673  0.1311  0.0760
16654W        W32463   4.623   9.774   1.194  0.3564  0.1804 -0.0032
16655W        W32464  14.663   1.956  12.617 -0.0198 -0.1449 -0.1346
16656W        W32465  13.780  17.110  13.697 -0.0266 -0.2132  0.1106
16657W        W32466   0.352  12.128   0.846  0.0634  0.0050  0.0234
16658W        W32467   2.387   3.901   5.390  0.1043 -0.2566  0.0411
16659W        W32468   6.590  12.451   0.626 -0.2867 -0.0819  0.0406
16660W        W32469   9.570   6.958   0.855 -0.1997  0.2827  0.0025
16661W        W32470   9.515   6.209  15.520 -0.0896 -0.0161  0.0046
16662W        W32471   1.691   8.956   0.632 -0.0442  0.0674  0.0355
16663W        W32472   4.185   4.587   1.157  0.1492  0.4793 -0.1839
16664W        W32473  17.508   4.636   4.420 -0.1049  0.0783 -0.2136
16665W        W32474   0.631   6.984   1.603  0.2731  0.2209  0.0647
16666W        W32475   6.164   3.862  15.792 -0.3410 -0.3118 -0.3484
16667W        W32476   3.521   2.844   3.163  0.0474  0.0491  0.1064
16668W        W32477  17.482   9.547  13.688 -0.1924 -0.0165 -0.1089
16669W        W32478   2.998  11.922   2.128  0.7050  0.1349  0.0004
16670W        W32479   1.168   2.397   3.810  0.1236  0.0768 -0.0201
16671W        W32480   3.556   1.064  15.482  0.2224  0.0362  0.0974
16672W        W32481   2.345  11.770   3.770 -0.0833  0.3198  0.0267
16673W        W32482  14.934   9.108  15.250 -0.1333 -0.1456  0.0439
16674W        W32483   7.576   2.621  13.308  0.2804 -0.1733  0.0466
16675W        W32484   8.707   7.800   2.614 -0.0136  0.2417 -0.2056
16676W        W32485  13.849   0.754  11.903 -0.3762  0.0815  0.1322
16677W        W32486  17.407   0.498  15.108 -0.0794  0.0404 -0.2689
16678W        W32487   6.500   2.642   2.100  0.1583 -0.0793 -0.0571
16679W        W32488  12.639  15.076   2.145  0.2159 -0.1505 -0.0998
16680W        W32489  12.418  12.239   4.023 -0.2782  0.1279  0.2012
16681W        W32490  16.072   5.130   6.136 -0.0782  0.3224  0.1801
16682W        W32491  15.109   0.414  16.289 -0.1867 -0.0417  0.3252
16683W        W32492   9.335   0.719  16.921  0.1665 -0.0482  0.0443
16684W        W32493  10.017   9.517   2.590  0.0292  0.2063  0.0236
16685W        W32494   7.636  14.678   5.221  0.0043  0.0774  0.0880
16686W        W32495  17.490   5.824  14.959  0.0038 -0.0012  0.0429
16687W        W32496   1.302  10.552   2.540 -0.1532  0.1976  0.2055
16688W        W32497   0.268   6.667  13.055 -0.1465 -0.1215 -0.1672
16689W        W32498   9.134   8.114  16.000  0.1973 -0.1168  0.0286
16690W        W32499   5.646  11.357   4.738 -0.3445 -0.0580 -0.2194
16691W        W32500   3.207   1.660  14.741 -0.1142  0.0008 -0.0244
16692W        W32501   4.270  16.852   5.637 -0.1273 -0.1655 -0.0830
16693W        W32502  14.084  14.712   0.424  0.0738 -0.0615  0.1566
16694W        W32503  12.376   5.353  13.675  0.4813  0.1242 -0.1174
16695W        W32504  11.102  11.178   1.369  0.0435  0.1972  0.2227
16696W        W32505  12.005   9.134   3.376  0.0354 -0.0256  0.3057
16697W        W32506  10.827  17.469   3.732 -0.0427 -0.3111 -0.0584
16698W        W32507   8.632  11.411  12.265 -0.0744  0.1042  0.0594
16699W        W32508   8.360  12.732  15.976  0.1184  0.0676 -0.2096
16700W        W32509   4.258   3.748  11.683  0.0152  0.4304 -0.0241
16701W        W32510   1.191  10.384   0.777 -0.0918 -0.1783  0.0976
16702W        W32511   0.630   1.850   5.570  0.0049  0.2411 -0.0042
16703W        W32512   4.695   6.389   0.788 -0.0358 -0.5987  0.4267
16704W        W32513   9.742  16.202   5.227 -0.0059  0.1266  0.3075
16705W        W32514  10.171   5.878  13.320 -0.2297 -0.0024  0.1253
16706W        W32515   8.578  13.670  14.420 -0.4078 -0.0317  0.3150
16707W        W32516  17.641   7.189   2.311 -0.4373 -0.0025  0.3232
16708W        W32517   3.719  16.212   2.156  0.0905 -0.1064  0.1063
16709W        W32518  14.095   4.028   4.921  0.1516  0.0001  0.1430
16710W        W32519   1.784  12.187   5.014 -0.1804 -0.0865 -0.0933
16711W        W32520   8.163  17.497  15.238  0.0078  0.0342  0.0429
16712W        W32521   5.310   4.093   4.268 -0.3482 -0.0082 -0.0772
16713W        W32522   5.402  12.616  15.169 -0.0324 -0.3886  0.1054
16714W        W32523  12.142   1.885  16.979 -0.0436 -0.1798  0.1305
16715W        W32524   3.927   7.885   4.819 -0.0959 -0.1393  0.2683
16716W        W32525  12.557   8.916   1.126  0.3750 -0.1046  0.1943
16717W        W32526   0.125  15.357   0.360 -0.1941 -0.0988  0.2748
16718W        W32527  13.054   5.338   7.100 -0.0243  0.0041  0.0788
16719W        W32528   5.264  14.678   5.140  0.0246 -0.1343  0.0468
16720W        W32529   6.373  14.123   2.329 -0.0177 -0.0947 -0.0830
16721W        W32530  12.457   5.117  12.489  0.0403 -0.0567  0.1635
16722W        W32531  15.151  10.855  11.749 -0.0122 -0.0315  0.1688
16723W        W32532  15.296  12.689   2.384 -0.0082 -0.0448  0.3585
16724W        W32533   0.099  12.779  12.952 -0.0608  0.0519  0.2568
16725W        W32534   0.386   4.166  15.361  0.2074  0.0689 -0.1421
16726W        W32535  11.981   6.270  15.732 -0.0286 -0.0542  0.1986
16727W        W32536   4.651   0.752   5.247 -0.2426 -0.0316 -0.1513
16728W        W32537  12.693   6.824  16.916 -0.0024  0.1224 -0.0377
16729W        W32538   0.626   8.270  15.667  0.1607  0.2176 -0.2196
16730W        W32539   3.432  12.422   0.855 -0.2735  0.0086  0.1604
16731W        W32540   8.731   9.102   2.221  0.1723  0.2052  0.1318
16732W        W32541  16.821   8.896  13.480  0.0834 -0.0048  0.1328
16733W        W32542  12.705  15.964   5.001  0.1622 -0.4403 -0.1357
16734W        W32543  15.788  11.414   4.283 -0.0781  0.0438 -0.0726
16735W        W32544  16.016  13.915  15.749 -0.1821 -0.0896  0.0589
16736W        W32545  14.899   4.394   0.210 -0.2017  0.1268  0.2731
16737W        W32546  16.432   9.185   2.414  0.1778 -0.4157  0.1180
16738W        W32547  12.713  13.750   4.941 -0.0590 -0.1525 -0.2852
16739W        W32548   6.500  13.750   2.663  0.2156 -0.2338  0.2510
16740W        W32549   7.129   8.738   3.914 -0.1113 -0.0231  0.0337
16741W        W32550   2.794   4.875  12.837 -0.0442  0.1469 -0.0471
16742W        W32551  17.411  15.145  11.105  0.2277 -0.1744  0.0065
16743W        W32552   4.535   9.117   2.496  0.0374 -0.4785 -0.1557
16744W        W32553  15.016  14.685   5.369  0.1043  0.2402 -0.2395
16745W        W32554  10.738  17.196  14.528  0.3177  0.1677  0.1155
16746W        W32555  15.385   3.544  14.096  0.1234 -0.0408 -0.2765
16747W        W32556  17.723   0.960   2.505  0.0477  0.1995  0.2759
16748W        W32557  11.991   8.903   2.049 -0.0152 -0.0049 -0.3155
16749W        W32558   5.040   0.287  16.937  0.2115 -0.0410  0.2119
16750W        W32559   3.537  15.395  11.528  0.0873  0.2678 -0.1173
16751W        W32560   7.430  14.348   3.001 -0.1205 -0.1060  0.1550
16752W        W32561  10.380   4.392   4.404  0.0951 -0.1100 -0.1457
16753W        W32562   0.193  15.877  15.538  0.0080  0.0738 -0.1616
16754W        W32563   4.565  12.988  16.601  0.0487 -0.1066 -0.0051
16755W        W32564   7.685  16.335  14.838  0.0752 -0.2000  0.0431
16756W        W32565  13.670   7.995  16.224 -0.0252 -0.2220 -0.1884
16757W        W32566  11.223  13.915   1.829 -0.0431 -0.0355  0.0276
16758W        W32567  11.791  15.877  13.789  0.2883  0.0831  0.1809
16759W        W32568  10.390   9.826  12.604 -0.2989 -0.1147  0.2344
16760W        W32569   0.466  13.796   1.399  0.0417  0.0663 -0.0149
16761W        W32570   3.220  16.399  14.301 -0.1801  0.0698  0.0734
16762W        W32571  16.655   1.266  15.007 -0.0949  0.1458 -0.0953
16763W        W32572   0.870   6.168   0.149  0.1167 -0.0821  0.3408
16764W        W32573   2.621  11.972   5.730  0.1068 -0.1825  0.1344
16765W        W32574  17.549  14.880  15.482  0.1080 -0.0842 -0.0971
16766W        W32575   8.219   9.669  12.216 -0.1037 -0.0383  0.0482
16767W        W32576  14.433   5.945   2.827  0.1446  0.1227  0.1277
16768W        W32577   3.505   7.734   4.568 -0.1317 -0.1277  0.2123
16769W        W32578  15.045  15.944  15.728  0.0537 -0.1713  0.1576
16770W        W32579  12.642   3.636  13.080 -0.1118  0.1586 -0.0227
16771W        W32580   6.164  11.762  12.785 -0.2421 -0.0427 -0.1050
16772W        W32581   8.660  13.582   4.008  0.1662 -0.1168  0.0630
16773W        W32582  15.041   1.335   1.281 -0.1631 -0.1369 -0.0827
16774W        W32583   9.978   6.521   3.073  0.2674 -0.3474 -0.5417
16775W        W32584   1.906  11.604  11.601 -0.2955  0.0788 -0.2222
16776W        W32585  15.384  13.818  12.341 -0.4589 -0.0729  0.2752
16777W        W32586   8.016   1.798  14.118  0.0362  0.3328 -0.0506
16778W        W32587   7.616   6.872  13.723  0.0673  0.0036  0.0533
16779W        W32588   8.504  12.396  16.372 -0.2812  0.1823  0.0283
16780W        W32589   4.145   2.283  13.874 -0.0588  0.0236  0.4243
16781W        W32590  14.059   0.250  16.305 -0.3740  0.0263 -0.1296
16782W        W32591   6.287  14.364   4.079 -0.0637  0.1914 -0.0791
16783W        W32592   4.467   9.230  13.920  0.2313 -0.0883 -0.1109
16784W        W32593  14.043   0.184   4.142 -0.1181 -0.2971 -0.0371
16785W        W32594  15.619  16.134   0.775 -0.0214  0.0315  0.1352
16786W        W32595   4.872   3.076   5.743 -0.1694  0.0699 -0.3234
16787W        W32596   4.297  14.736   2.373 -0.1880  0.1695  0.0404
16788W        W32597   6.084   5.004  13.642  0.0128  0.2135 -0.0881
16789W        W32598  13.658   5.565  15.583 -0.0087 -0.1279  0.1310
16790W        W32599  15.182  12.751   5.020  0.2383 -0.1886 -0.2546
16791W        W32600  17.174  12.607  14.040 -0.1179 -0.1681  0.0356
16792W        W32601   7.180  14.848   5.315  0.1553 -0.2122  0.0180
16793W        W32602   5.668  16.165   2.063 -0.0940 -0.0535  0.3054
16794W        W32603   0.414   0.722   3.714  0.1413 -0.3451 -0.1559
16795W        W32604  10.372   7.783  16.920  0.0351 -0.1103 -0.0984
16796W        W32605  16.079  15.986  11.829 -0.1020 -0.0992  0.0855
16797W        W32606  13.542   6.358   5.388 -0.4124  0.0337  0.2925
16798W        W32607   6.934   3.290   2.960  0.0078 -0.0215 -0.0864
16799W        W32608  16.364  10.516  14.084 -0.0880 -0.2280  0.1436
16800W        W32609  12.644  12.655  13.022 -0.0681  0.4189  0.2021
16801W        W32610  14.406  17.636   3.336 -0.1222 -0.1906 -0.0650
16802W        W32611  15.588  12.667   4.009 -0.0143 -0.0857  0.1950
16803W        W32612   1.536  10.748  15.807  0.2832  0.1467 -0.0174
16804W        W32613   8.329  16.380  16.763  0.1450 -0.3019  0.3115
16805W        W32614   2.595   6.872  15.845 -0.2695  0.1518  0.1384
16806W        W32615   8.807  13.948   1.618  0.1499  0.0528 -0.1552
16807W        W32616   0.167  13.173  14.419 -0.0784 -0.3876 -0.0092
16808W        W32617  10.606  14.045  13.699  0.0563  0.0367  0.2578
16809W        W32618  15.519   4.042  14.108  0.3025  0.0809 -0.0564
16810W        W32619   4.457   5.711   1.201  0.1013 -0.1987  0.0675
16811W        W32620   4.009  13.859  16.193 -0.2778  0.0066  0.1218
16812W        W32621   2.810  10.078   2.405 -0.0031  0.1036  0.1053
16813W        W32622   3.665   7.141   3.007  0.1525  0.0069  0.0884
16814W        W32623   3.039   9.321   1.127 -0.0243 -0.2089 -0.0279
16815W        W32624  16.623  15.128  11.606 -0.3905 -0.5146 -0.0705
16816W        W32625   4.600   9.039   1.702 -0.1288  0.0353 -0.0595
16817W        W32626  16.425   3.728   2.206 -0.2585  0.1360  0.0849
16818W        W32627  10.338   4.584  16.565 -0.2255 -0.0908 -0.3184
16819W        W32628   5.307  12.933  14.682  0.0391  0.1639  0.0508
16820W        W32629  12.181   4.140   1.149 -0.2995  0.2943  0.1784
16821W        W32630  16.346   6.955  16.490  0.3061  0.1300 -0.3048
16822W        W32631   8.621   7.186   5.308 -0.1291 -0.2015 -0.0402
16823W        W32632   6.508  11.190   4.362  0.4565 -0.0155 -0.0960
16824W        W32633   9.521   5.038  13.200 -0.3133  0.0488 -0.0951
16825W        W32634   6.399  12.930   3.024  0.0679 -0.3562  0.1878
16826W        W32635   0.562   2.994  14.896  0.0813 -0.0534  0.1163
16827W        W32636   6.875  17.057   2.045  0.3490  0.1014 -0.0711
16828W        W32637  13.568  17.245  12.399 -0.0589  0.0917  0.0701
16829W        W32638   1.925   5.820   4.337 -0.1059 -0.2243 -0.1113
16830W        W32639   2.388  13.744   4.568 -0.0568  0.0979 -0.1375
16831W        W32640  15.558   7.176  12.173 -0.0165 -0.1544  0.1487
16832W        W32641   1.787   4.995  11.273  0.0453 -0.2002 -0.3069
16833W        W32642   6.499   9.392   0.175 -0.0732  0.1472  0.2149
16834W        W32643   9.611  16.978   2.115 -0.0870  0.2172 -0.0762
16835W        W32644  17.121  14.891   5.338  0.0499 -0.0524  0.0088
16836W        W32645  11.503  12.556  16.955  0.3332  0.0568 -0.1630
16837W        W32646   0.098   9.150   5.031  0.1876 -0.3786  0.0138
16838W        W32647   1.780   8.043   4.824 -0.1789 -0.0614 -0.0977
16839W        W32648   5.464  15.559   5.571 -0.0875  0.2281 -0.1699
16840W        W32649  11.964   9.598   0.536 -0.0960 -0.0839 -0.0021
16841W        W32650  14.463   3.339  16.221 -0.1351 -0.2500  0.0616
16842W        W32651  10.072   9.611   1.702  0.0624 -0.1774  0.2059
16843W        W32652   3.822   5.008  13.836 -0.0397 -0.4179  0.3774
16844W        W32653   7.321  16.770   2.001 -0.1540 -0.0752  0.1411
16845W        W32654   2.711   4.863   0.057 -0.1873 -0.1578  0.5153
16846W        W32655   8.878   0.314  16.930 -0.1762  0.1852  0.2455
16847W        W32656   3.229   0.960   0.740  0.0852  0.0486 -0.0271
16848W        W32657  14.662   4.778   3.010 -0.0073  0.0694  0.1414
16849W        W32658  11.050  17.601  14.497  0.0769 -0.2129 -0.1851
16850W        W32659  17.536  11.855   0.926  0.1630 -0.0350  0.1487
16851W        W32660   7.393   3.801  15.508 -0.2002  0.2817 -0.2518
16852W        W32661  11.110  11.998  12.792  0.0213  0.5239  0.0833
16853W        W32662   5.737   1.661  16.824 -0.0661  0.1979  0.1556
16854W        W32663   0.622  10.987  11.072 -0.0534 -0.4737 -0.0563
16855W        W32664   7.802  16.043   3.846 -0.0139  0.0547  0.2177
16856W        W32665  10.804  12.101   2.151 -0.3376  0.1149 -0.2024
16857W        W32666   4.544  13.084   3.218 -0.1557  0.1147 -0.5009
16858W        W32667  12.491  12.119  16.770  0.2782 -0.0111  0.0990
16859W        W32668  12.300  10.808  13.307 -0.0550 -0.0356  0.1375
16860W        W32669  16.610   6.743   3.754  0.2681 -0.0108 -0.1943
16861W        W32670   3.237   5.943  15.646 -0.1099  0.0443  0.4068
16862W        W32671  13.477   4.760  13.506  0.5201  0.2579 -0.0406
16863W        W32672   2.968   2.787   2.368  0.0692  0.2256 -0.2794
16864W        W32673  13.108   3.864   2.770 -0.0868 -0.2114  0.2522
16865W        W32674  17.517  10.651   1.265  0.0484  0.0232 -0.3955
16866W        W32675  10.056   6.551   5.818  0.1787 -0.0485  0.3185
16867W        W32676   9.210   7.614   2.641  0.0179 -0.1323  0.0727
16868W        W32677   9.585  15.819  11.975 -0.0824  0.3938 -0.2610
16869W        W32678   7.857  10.607   5.054  0.0638 -0.1961  0.2332
16870W        W32679  10.828  13.667  14.464 -0.0603 -0.1123 -0.0773
16871W        W32680  14.784   6.797  15.676 -0.3591  0.0986  0.2379
16872W        W32681  16.819   9.500   2.463 -0.1347 -0.1551 -0.0650
16873W        W32682  14.941   4.423   2.784  0.0282  0.0081  0.1147
16874W        W32683  13.439  12.437  12.718 -0.1208 -0.2496 -0.0545
16875W        W32684  15.223   9.952   1.029  0.1349  0.2650  0.1247
16876W        W32685   2.613   5.623  16.900  0.2396 -0.1116 -0.0223
16877W        W32686  10.670  14.076  11.211 -0.0340 -0.1656 -0.0269
16878W        W32687   2.350  17.626   0.925 -0.2088  0.1582  0.1125
16879W        W32688   7.396  16.003  11.131 -0.2137 -0.0452  0.1338
16880W        W32689  12.612   2.907   3.705 -0.3845  0.0118 -0.0280
16881W        W32690   6.826  11.760   5.959  0.1109  0.3630  0.1458
16882W        W32691   9.571   0.403   3.177 -0.0604 -0.0880 -0.2260
16883W        W32692  13.192   2.576   2.072  0.1792  0.0497 -0.0501
16884W        W32693  13.542   4.002  12.286  0.1620  0.0373 -0.0279
16885W        W32694  11.162   8.162  12.975 -0.0581  0.1883  0.0755
16886W        W32695   7.647  15.350   0.469  0.0574  0.0712 -0.2160
16887W        W32696  15.289   8.533  16.675  0.1862 -0.1338 -0.1211
16888W        W32697   6.162   3.130   3.010 -0.0049 -0.1071 -0.3267
16889W        W32698  11.428   8.417   5.858 -0.2673  0.0687 -0.1928
16890W        W32699  14.826  12.891   2.645  0.0466  0.1710  0.0192
16891W        W32700   2.208  15.777  12.605 -0.0523  0.2040 -0.2368
16892W        W32701   1.885   3.697   0.118  0.2192  0.0349  0.1742
16893W        W32702   0.195  12.694   2.705 -0.1380  0.1127 -0.0590
16894W        W32703  11.160   8.873   3.505 -0.0945  0.1172 -0.2297
16895W        W32704  10.403   1.049  11.256  0.0745  0.2700  0.3816
16896W        W32705   6.975  17.513  15.724  0.1105  0.0948  0.5332
16897W        W32706   2.597  12.033   0.153 -0.2076 -0.2429 -0.0174
16898W        W32707  15.719   9.888   2.403 -0.0346 -0.0218  0.1608
16899W        W32708   3.198   2.376   4.950 -0.0232 -0.0679  0.0867
16900W        W32709  14.885   4.906  16.044  0.1424  0.0960 -0.0480
16901W        W32710  15.935   5.220   4.052 -0.2108  0.0813 -0.0226
16902W        W32711   6.562   3.024   0.256  0.1711  0.0455 -0.0196
16903W        W32712   5.395  11.934   3.499 -0.0133 -0.1565  0.1902
16904W        W32713  12.899   9.605  12.312  0.1972 -0.1401 -0.1678
16905W        W32714  11.307  12.498  14.939  0.0844  0.2131 -0.3152
16906W        W32715  14.716   5.348   2.269 -0.2686  0.1795 -0.2561
16907W        W32716  11.927   5.039  12.514  0.1838 -0.1560 -0.0999
16908W        W32717   7.494   2.531  12.133 -0.2392 -0.0011  0.3480
16909W        W32718   2.217  13.241   0.143 -0.1721 -0.0348  0.2275
16910W        W32719  17.226   9.944  15.999 -0.0812 -0.0487 -0.1500
16911W        W32720   3.739  14.062  16.636 -0.1120  0.2471  0.2714
16912W        W32721   6.438  17.183  14.565  0.2343 -0.0323 -0.0699
16913W        W32722   7.378   2.450   1.715  0.2321  0.0967 -0.1372
16914W        W32723  11.698   8.255  14.927  0.0708 -0.0835 -0.2969
16915W        W32724   4.925   6.524   6.488 -0.0727 -0.0131 -0.2549
16916W        W32725   6.215  15.751  12.435  0.3501  0.1243  0.0656
16917W        W32726  17.000  10.426   1.758 -0.0227  0.0963  0.2723
16918W        W32727   0.213   3.615  15.533  0.0686  0.2136 -0.2771
16919W        W32728  10.166   6.890  11.837 -0.2806 -0.2012  0.2164
16920W        W32729   5.031  15.135   4.885 -0.2452  0.4349 -0.2037
16921W        W32730   3.987   8.931   2.804  0.1063  0.0380  0.1048
16922W        W32731  16.158  14.262   0.635  0.1522 -0.0012 -0.2596
16923W        W32732   5.700   9.194   2.488 -0.1016 -0.3380 -0.0195
16924W        W32733   1.273   3.380   4.925 -0.0996  0.2284 -0.0991
16925W        W32734  15.564   9.691  15.715 -0.1806  0.0266 -0.1055
16926W        W32735  12.332  12.058   2.404  0.1760  0.2658  0.0990
16927W        W32736  15.036   3.344   3.151 -0.5331 -0.0402 -0.2456
16928W        W32737   4.914  14.757   0.553 -0.0070 -0.0237 -0.1564
16929W        W32738  14.449   4.927   3.444  0.0164 -0.1083  0.0015
16930W        W32739   4.467   1.471   1.844 -0.1589 -0.0004 -0.1992
16931W        W32740   9.673   6.516  15.880 -0.0286 -0.1992  0.4402
16932W        W32741   3.423  13.716   0.471 -0.0396  0.1310 -0.2249
16933W        W32742  13.534  10.908   3.308  0.0637 -0.2592 -0.0030
16934W        W32743  16.594  10.369  13.623  0.0183 -0.0445 -0.3287
16935W        W32744   6.478   1.002  14.036 -0.1429  0.1291  0.0499
16936W        W32745  11.782   8.754   6.176  0.0365 -0.0815  0.0503
16937W        W32746   6.986   5.666   1.587  0.0685 -0.1287 -0.1861
16938W        W32747   8.784   0.616   2.882  0.2451 -0.2367 -0.1510
16939W        W32748  17.596  15.386  11.460 -0.0008 -0.3319 -0.2848
16940W        W32749   9.194  17.399  11.095  0.0343  0.0867  0.0248
16941W        W32750   5.629  11.857  16.091  0.0099 -0.0896  0.0275
16942W        W32751  15.338  16.956  13.585  0.4894 -0.1057 -0.0515
16943W        W32752   1.952   6.110   2.563 -0.2715  0.0383  0.2104
16944W        W32753  13.916  16.247  15.827  0.0704  0.4532  0.2691
16945W        W32754  10.672  13.705  11.948 -0.4250 -0.1511 -0.4419
16946W        W32755   0.118  11.305  14.335  0.1114  0.1795 -0.1307
16947W        W32756   9.166   7.004   2.892 -0.0217  0.3621  0.1454
16948W        W32757  17.052  13.453   3.645  0.1475  0.2607 -0.3088
16949W        W32758   2.942   3.625   3.537  0.1841  0.2050  0.1915
16950W        W32759  15.966  10.168  14.071 -0.1505  0.0172 -0.0112
16951W        W32760  12.970  12.778  11.613  0.0418  0.1613 -0.2339
16952W        W32761   1.445  15.719  15.106  0.2650  0.0945  0.3473
16953W        W32762  17.177   5.675   3.289 -0.1388  0.1847 -0.1176
16954W        W32763   3.853   4.009   1.209  0.0835 -0.0699 -0.0026
16955W        W32764  15.894   6.152  14.483 -0.0315  0.1356 -0.0266
16956W        W32765   6.351   7.176  12.790  0.1039 -0.1614 -0.2751
16957W        W32766   4.635  11.563  13.803 -0.1161 -0.0782 -0.3210
16958W        W32767  16.431   2.593  12.433 -0.1209  0.1980 -0.3295
16959W        W32768  16.939   0.705  14.780 -0.0413 -0.0685 -0.0436
16960W        W32769  16.521   0.562  11.456 -0.1520 -0.0383  0.0363
16961W        W32770  16.696  15.480   3.910 -0.2381 -0.0233 -0.1988
16962W        W32771   0.202  15.549   0.796 -0.1443 -0.1981 -0.3448
16963W        W32772  15.002   2.632   4.354 -0.1377  0.0977 -0.0952
16964W        W32773  13.427  17.200   4.018 -0.0116  0.0302 -0.0667
16965W        W32774   9.394   7.443   4.013  0.1705  0.1142 -0.0981
16966W        W32775   0.101   0.296   3.209 -0.2718 -0.1908 -0.1839
16967W        W32776  16.565  17.426   5.095  0.0447 -0.2362  0.1973
16968W        W32777  10.150  13.630   5.319 -0.0173 -0.0656  0.1666
16969W        W32778  10.951   3.832   1.030  0.2645 -0.0247  0.1063
16970W        W32779  12.330   8.028  16.472  0.1031  0.1254 -0.0208
16971W        W32780   2.235   9.582  16.411 -0.1495  0.0734 -0.1938
16972W        W32781   2.843  12.747   3.752 -0.0099 -0.1132  0.3670
16973W        W32782  10.276   4.420  12.066  0.0044 -0.3063 -0.0004
16974W        W32783   3.052   7.193   3.262  0.0849  0.0500 -0.2076
16975W        W32784   6.918   7.605   0.013  0.1055 -0.1360  0.2710
16976W        W32785  12.213  14.918   3.556 -0.1878 -0.0276  0.0053
16977W        W32786   2.036   8.150  12.521 -0.0643  0.1924 -0.1769
16978W        W32787   2.672  16.951   4.703 -0.1900 -0.3716  0.3593
16979W        W32788   0.722  10.901   2.284  0.2274 -0.0269  0.0396
16980W        W32789   5.955   1.448  12.757  0.1110 -0.0070  0.0269
16981W        W32790  11.089   2.455   6.190  0.0382 -0.0962  0.1819
16982W        W32791  15.909   0.122  13.254  0.0295 -0.1790 -0.1926
16983W        W32792   4.252   5.592  14.192  0.2708  0.3064 -0.1788
16984W        W32793   7.652   6.055  13.941  0.3970 -0.1562  0.2428
16985W        W32794   3.353   2.169   6.317  0.1906 -0.0199  0.2359
16986W        W32795  10.792   0.444   4.822 -0.2525  0.2705  0.1962
16987W        W32796  11.413   8.868  14.988 -0.2056 -0.2177 -0.2044
16988W        W32797   6.158   8.433   5.229 -0.0783  0.4064 -0.0296
16989W        W32798   3.963  15.989  16.709 -0.0204 -0.1272 -0.1086
16990W        W32799   6.643   5.681  14.478 -0.0324  0.0120 -0.0622
16991W        W32800   4.979   0.876  12.076 -0.1478 -0.0775 -0.1315
16992W        W32801  15.966  10.426   1.636 -0.1123 -0.0299 -0.1116
16993W        W32802  11.214   1.319   0.296  0.2351 -0.3103 -0.4275
16994W        W32803  10.645   6.059   3.642 -0.3419  0.3141  0.1561
16995W        W32804   1.972  10.638   4.280 -0.1149 -0.2942 -0.0914
16996W        W32805   9.343   4.547   5.832 -0.2447 -0.0330 -0.0728
16997W        W32806   3.684   2.164   5.703 -0.0557  0.1163  0.0530
16998W        W32807   8.166   1.836  13.300  0.0345  0.0268  0.0226
16999W        W32808  12.838  13.288  14.235  0.1410  0.4023  0.1256
17000W        W32809   0.890   2.289  14.488 -0.2412 -0.0743 -0.0967
17001W        W32810   4.012   1.638   4.218  0.3322  0.2284 -0.0114
17002W        W32811   2.420   1.331  14.883  0.0730  0.2527  0.0409
17003W        W32812   5.408  14.566  13.789  0.0087 -0.1500  0.1578
17004W        W32813  12.493   5.778  14.944  0.0588  0.0420 -0.1400
17005W        W32814   8.966   5.841  12.095  0.2018  0.1065 -0.1139
17006W        W32815   4.845  10.272  13.096 -0.0440  0.1033 -0.0224
17007W        W32816   1.085   3.435  15.484  0.1201  0.1151 -0.2422
17008W        W32817  12.671   4.214  15.253 -0.1688 -0.0129 -0.1232
17009W        W32818  14.943  15.949  16.239  0.1738 -0.2402 -0.0865
17010W        W32819  13.623   0.522  16.396 -0.0069 -0.3747  0.2614
17011W        W32820  12.697   7.352   1.976  0.0627  0.0438 -0.0702
17012W        W32821  11.788   4.125  13.727  0.2424  0.0035  0.1737
17013W        W32822  17.669   5.612   6.747  0.0491 -0.3912 -0.0554
17014W        W32823  16.917  16.049  14.707  0.1155  0.2926 -0.0707
17015W        W32824  17.405  12.932  14.414 -0.0688 -0.2521 -0.0397
17016W        W32825  16.899   4.901   5.211 -0.2807 -0.2036  0.2155
17017W        W32826   7.546  15.231   4.538  0.1306  0.4748 -0.0744
17018W        W32827   7.783   6.329   5.679  0.1832 -0.1668  0.1527
17019W        W32828   5.707  14.327   1.744  0.0153  0.3101 -0.1293
17020W        W32829  17.396   8.357  16.356  0.1196 -0.0542 -0.3506
17021W        W32830  17.069   8.252   4.699  0.0051 -0.2244  0.0743
17022W        W32831  16.444  13.022  16.911  0.4640  0.1095 -0.0668
17023W        W32832  17.726  10.148  15.346  0.0762 -0.0146 -0.1090
17024W        W32833  14.530   2.670   1.147 -0.0898 -0.0286  0.1898
17025W        W32834   5.330  16.334   2.406  0.0367  0.1904 -0.0271
17026W        W32835  16.756   4.824  12.557 -0.0302 -0.0601  0.0851
17027W        W32836   8.333   6.542  14.252 -0.0857 -0.0437  0.0250
17028W        W32837  13.285  10.630  11.304 -0.1613 -0.2105  0.1613
17029W        W32838   9.713   2.458  14.184  0.1601  0.0629 -0.0862
17030W        W32839   7.310  14.762   4.770 -0.0006 -0.2647 -0.0912
17031W        W32840   6.693   5.997  13.299  0.2222 -0.1599  0.1103
17032W        W32841   9.124  17.467  13.275  0.0176  0.0309 -0.0948
17033W        W32842   5.803  15.172   2.826 -0.1134 -0.0907  0.2177
17034W        W32843  14.101   4.283  16.172 -0.3610  0.1119 -0.1190
17035W        W32844  14.282   4.269   2.176  0.0675  0.2048 -0.2857
17036W        W32845   6.616   9.348   4.951 -0.1092  0.1495 -0.1663
17037W        W32846  15.471  13.082   1.002  0.0685 -0.0397  0.0444
17038W        W32847   0.309   0.934   4.166 -0.0625 -0.2469 -0.2267
17039W        W32848  14.907  11.396  13.517  0.1748 -0.2344  0.1769
17040W        W32849  16.226   4.982  12.472  0.1697 -0.1839  0.0953
17041W        W32850   2.643  11.497   0.841  0.4621 -0.1964  0.1017
17042W        W32851  16.861   1.037   1.837 -0.0038 -0.1080 -0.0820
17043W        W32852   6.074   0.006  13.837 -0.0593 -0.0730  0.0452
17044W        W32853  11.941   8.759  11.823  0.2885 -0.1074 -0.2263
17045W        W32854   4.773  15.920   1.991  0.1634 -0.2588  0.1656
17046W        W32855   4.351   0.339  13.800 -0.0748 -0.0602  0.2959
17047W        W32856  13.563   4.205   1.139 -0.0683  0.0981  0.2171
17048W        W32857  17.523  15.237  16.992  0.1126 -0.0972  0.2623
17049W        W32858   5.090  16.949  13.294 -0.2315  0.2232  0.2146
17050W        W32859   3.875   5.372  13.212  0.0754  0.0935 -0.0475
17051W        W32860  12.132  15.629  14.072  0.3673 -0.3024 -0.0660
17052W        W32861   4.179   7.551   5.127  0.1978  0.0986 -0.0847
17053W        W32862  16.171   8.773  15.544  0.2613  0.0647  0.1071
17054W        W32863   2.663   1.006   2.627  0.0519 -0.2667 -0.0212
17055W        W32864  17.193  16.541  13.772 -0.1458  0.1948  0.0219
17056W        W32865   8.121  11.742  13.478 -0.0420  0.1335 -0.1356
17057W        W32866   7.669   8.667  16.676 -0.0537  0.0966 -0.0812
17058W        W32867   3.197  10.709  13.682 -0.1084  0.4506 -0.0461
17059W        W32868  14.704  15.730  11.828  0.0129 -0.0442  0.0365
17060W        W32869   0.055  16.143   3.692 -0.2393  0.0453 -0.0386
17061W        W32870   2.338   9.616   3.172  0.3394 -0.1235  0.2325
17062W        W32871   3.348  12.351   3.655  0.0677  0.1072  0.1645
17063W        W32872  13.030   1.621   5.197 -0.3410 -0.1283 -0.2302
17064W        W32873   9.257  12.046  14.313 -0.0885  0.0812  0.1391
17065W        W32874  13.041   4.696   3.754  0.0675 -0.0192  0.0776
17066W        W32875  11.026  10.086  12.378 -0.0814  0.2490 -0.2200
17067W        W32876   0.607   3.154   3.783  0.0025  0.0944  0.0401
17068W        W32877   7.054  11.271   2.929  0.0643  0.0546  0.1620
17069W        W32878  15.767  13.033   1.590 -0.0752  0.0217  0.0045
17070W        W32879   8.473  12.175   0.930 -0.1426  0.1967  0.1604
17071W        W32880   3.808  15.509   1.705  0.0570  0.0168 -0.0903
17072W        W32881  14.349   2.241   2.105 -0.0569 -0.0118 -0.0135
17073W        W32882  10.340   9.333   1.355  0.1023 -0.0400  0.0809
17074W        W32883   0.928   0.787   0.103  0.2367 -0.2554  0.0208
17075W        W32884   7.064  10.642   2.658 -0.1714  0.1142 -0.0871
17076W        W32885   7.072   3.699   0.875 -0.1558  0.0476 -0.0693
17077W        W32886   5.217   5.733  11.617  0.0400  0.2604  0.2613
17078W        W32887   4.911  12.960  16.237 -0.0624  0.0996  0.2410
17079W        W32888   8.315   7.718  16.443 -0.2343  0.0882  0.0019
17080W        W32889  14.102   4.904  16.128 -0.3356 -0.1844  0.2966
17081W        W32890   9.223  14.989  13.315 -0.0611 -0.1681  0.3271
17082W        W32891  10.440   6.390   4.390 -0.0087  0.0251  0.0407
17083W        W32892  17.537   1.665   0.492  0.0910 -0.1162  0.1447
17084W        W32893  14.407   0.625  14.480  0.2844  0.0122  0.0191
17085W        W32894   9.198  12.488  13.471  0.3200 -0.0528  0.0307
17086W        W32895  15.172   2.982  16.212  0.0397  0.0068 -0.1484
17087W        W32896   2.740   2.374   5.185  0.1685  0.2074  0.2530
17088W        W32897   7.638  13.753  13.334  0.2637 -0.1382  0.0352
17089W        W32898  17.612   8.345   0.296 -0.0985 -0.0080 -0.2547
17090W        W32899   5.778  17.359   2.862 -0.1458 -0.0468 -0.1632
17091W        W32900   1.882  10.305   1.346 -0.0001  0.0395 -0.1654
17092W        W32901   8.875   2.348   0.742 -0.2044  0.2131  0.0839
17093W        W32902  14.600   2.168   1.215  0.1352 -0.1626  0.1060
17094W        W32903  11.471  14.506  11.313  0.0997  0.4230 -0.0894
17095W        W32904  10.859   4.341   4.522 -0.1919 -0.0264  0.0505
17096W        W32905   3.909   7.272  13.856  0.0149  0.2247 -0.0822
17097W        W32906   9.489  16.691   3.993  0.1858  0.0012  0.1608
17098W        W32907   8.772  16.054   3.542  0.2528 -0.3093  0.1832
17099W        W32908  15.956   4.198  14.725 -0.2142  0.0215  0.0451
17100W        W32909  13.524   9.071  15.518 -0.1126  0.0074 -0.0748
17101W        W32910   5.569   8.205   4.066 -0.2038 -0.0160 -0.0633
17102W        W32911   9.044   8.336  13.762 -0.1321  0.0406  0.0480
17103W        W32912   1.432   3.850  13.536 -0.2136  0.2243 -0.1289
17104W        W32913   9.607   4.487   1.978  0.0229  0.2123  0.4570
17105W        W32914   6.730   9.723  16.843  0.4745  0.0793  0.1546
17106W        W32915   1.900   3.548  13.562  0.1819 -0.0128  0.3445
17107W        W32916   9.194   7.243  16.132 -0.2405  0.1409 -0.0392
17108W        W32917   7.633   9.992   2.063  0.1350 -0.0334 -0.0518
17109W        W32918   5.889  12.140   5.611  0.0633 -0.4893 -0.3350
17110W        W32919  13.747   9.710  15.078  0.1706  0.0933  0.2468
17111W        W32920   5.605   0.890  13.732  0.0140  0.0415 -0.2545
17112W        W32921   1.416   2.504   2.513 -0.1163 -0.2770 -0.3631
17113W        W32922   4.955   2.361   4.137 -0.0083  0.0520  0.0580
17114W        W32923  10.607   2.492   3.376  0.2190  0.0352 -0.0099
17115W        W32924   9.409   2.224   2.935 -0.0124 -0.2207 -0.2681
17116W        W32925  14.708   5.049   1.877  0.3390  0.0270 -0.0763
17117W        W32926  11.793   2.025   0.859 -0.0045 -0.2297 -0.0885
17118W        W32927   9.136   9.458   5.053 -0.0124  0.3192  0.0007
17119W        W32928   8.874   1.295  16.126 -0.0930 -0.0750 -0.2244
17120W        W32929   4.379   5.776   5.138 -0.0867  0.2813 -0.2488
17121W        W32930   7.744  12.527   4.288 -0.0396 -0.2870 -0.1084
17122W        W32931   8.312   6.095  14.590 -0.0491 -0.1435 -0.0523
17123W        W32932   9.300   8.568   5.489  0.0591 -0.1562 -0.1496
17124W        W32933  14.688   0.203  14.566  0.1368  0.1854 -0.2498
17125W        W32934   3.395  11.639   2.394  0.0308  0.0477 -0.2192
17126W        W32935   4.070   1.763  13.604  0.0666  0.0357 -0.0830
17127W        W32936   8.249   8.589   1.988 -0.0016  0.0939 -0.0097
17128W        W32937   6.131   3.336   0.411 -0.0791 -0.0343 -0.2394
17129W        W32938  10.326   7.363  11.672  0.1956  0.1833  0.1010
17130W        W32939  14.050  10.692   4.821 -0.1280 -0.0183 -0.1424
17131W        W32940  15.793  14.380   1.756  0.3814  0.0354  0.4568
17132W        W32941  13.113   9.230  13.056 -0.2305  0.2691 -0.0784
17133W        W32942  14.905   9.435  12.380 -0.1576 -0.0065  0.1734
17134W        W32943  11.319   8.428   4.637  0.0398  0.2928 -0.0625
17135W        W32944  15.110  13.809  14.011 -0.2186 -0.0750 -0.0186
17136W        W32945  14.705  12.652  14.823  0.0771 -0.0390 -0.0376
17137W        W32946  15.763  13.935   1.504 -0.1703  0.2448  0.4053
17138W        W32947  10.399   5.453   5.379 -0.0528  0.0952 -0.2211
17139W        W32948  17.261  10.879  16.834 -0.0731 -0.0023  0.0121
17140W        W32949   2.807   8.532  16.585 -0.1987 -0.0866 -0.3629
17141W        W32950  10.558   0.214  15.721 -0.0311  0.0922 -0.2516
17142W        W32951   5.038   6.850  12.628  0.0806 -0.2544  0.1123
17143W        W32952   2.892   4.234  16.161 -0.1494  0.2316 -0.0467
17144W        W32953  10.688   9.531   1.008 -0.0661 -0.2406  0.2490
17145W        W32954   2.255  10.820   5.509 -0.1767  0.1498 -0.0822
17146W        W32955   8.954   6.301   1.599  0.0621  0.1717  0.2705
17147W        W32956   3.103   1.090   6.122 -0.0450  0.4950 -0.0583
17148W        W32957   7.559   9.722  14.323 -0.1690  0.0587 -0.0421
17149W        W32958   7.955   9.137   3.234 -0.3147 -0.1155 -0.1727
17150W        W32959  14.102   1.792  13.033  0.0267  0.1038 -0.0746
17151W        W32960  14.108  11.592   0.979 -0.1002 -0.1071 -0.0089
17152W        W32961   4.480  12.206  12.966 -0.0524  0.0413  0.1477
17153W        W32962  15.719  14.369   3.018 -0.0994  0.1035 -0.1758
17154W        W32963  10.972  12.123  16.242 -0.0453  0.1302 -0.1767
17155W        W32964   1.555  17.213  16.068  0.0743  0.1228  0.0849
17156W        W32965   7.582   3.981  13.827  0.2175 -0.1005  0.1778
17157W        W32966  12.709   8.978  14.861 -0.2413  0.3255  0.0791
17158W        W32967   1.532  12.022   4.285  0.2200  0.1650  0.2785
17159W        W32968   0.312   4.547  15.927 -0.0092 -0.0787 -0.0449
17160W        W32969  13.750  15.096  11.563  0.1157 -0.1343 -0.0234
17161W        W32970   5.085   9.688   6.165  0.0139 -0.1576  0.2760
17162W        W32971  15.317  13.911  15.019  0.1082 -0.0252  0.1038
17163W        W32972  15.287  10.113   4.797 -0.0354  0.1159  0.1499
17164W        W32973   3.751   8.007  12.765 -0.2293  0.1257 -0.1450
17165W        W32974   5.614   2.081  13.475 -0.0465 -0.0431 -0.2151
17166W        W32975   1.882  11.618   4.019  0.0341  0.0899 -0.1591
17167W        W32976   0.528   8.796  12.614 -0.0451  0.1579 -0.1832
17168W        W32977  17.126  16.787   0.535  0.1453  0.5556  0.1125
17169W        W32978  10.315   4.024   5.583  0.1507  0.0104  0.1888
17170W        W32979   9.028   7.145   5.010 -0.1525 -0.0966 -0.1298
17171W        W32980  11.107   8.765   1.410  0.1371 -0.1066  0.0450
17172W        W32981  14.151  14.403   2.233  0.1514 -0.0038 -0.1374
17173W        W32982  12.678   9.403   2.148 -0.1459 -0.2335 -0.0424
17174W        W32983   9.553  13.294   1.795  0.2695  0.0348 -0.2844
17175W        W32984   8.775  16.617  13.423  0.0684  0.0327 -0.1864
17176W        W32985  12.339  14.087   0.026 -0.2690 -0.0974  0.0589
17177W        W32986  10.526   5.211  14.671  0.2682  0.0746  0.0602
17178W        W32987   8.094  17.357  15.766  0.2046  0.0217 -0.0330
17179W        W32988  10.484   9.872   1.788 -0.0771 -0.1654 -0.1357
17180W        W32989   2.101   1.281   2.781 -0.1621 -0.0223 -0.1483
17181W        W32990   6.214   8.011  15.631  0.0462 -0.0579 -0.1347
17182W        W32991  13.706   5.755  12.068  0.1521  0.1624  0.0100
17183W        W32992   8.645  15.550   3.751  0.1269  0.2781  0.0167
17184W        W32993  13.254  14.467  12.730 -0.2552  0.1684 -0.1551
17185W        W32994  16.104  15.410   0.473 -0.1886 -0.1214  0.0960
17186W        W32995   2.481   5.451  12.006 -0.0928 -0.2003  0.1841
17187W        W32996   2.818   9.195  14.780  0.2079 -0.0696 -0.1170
17188W        W32997  11.619  15.060   6.025  0.1967 -0.1380  0.0167
17189W        W32998   1.342   6.516   4.162 -0.0990 -0.0507  0.1219
17190W        W32999  15.584  14.081  15.408  0.0437  0.1770 -0.1857
17191W        W33000  12.151  13.132   0.144 -0.1389 -0.0345 -0.1943
17192W        W33001   7.621   9.708  16.552  0.0808 -0.2542  0.1363
17193W        W33002  14.182  10.400  11.672 -0.0896 -0.1712  0.0496
17194W        W33003   1.886  12.383  12.139  0.1208 -0.0841  0.0492
17195W        W33004  10.395  17.714  13.874 -0.1209  0.4586  0.0211
17196W        W33005  16.062   6.240  15.339  0.2058 -0.2459  0.0578
17197W        W33006  10.789  17.247  13.226  0.0170 -0.0697  0.0754
17198W        W33007  12.040   2.858   1.244 -0.1749  0.0182  0.0739
17199W        W33008   3.569  14.284   3.082  0.2395  0.0463 -0.1333
17200W        W33009  16.362  14.120  16.168  0.2232 -0.1651 -0.0313
17201W        W33010   7.328   7.324  13.813  0.0486 -0.1248  0.0406
17202W        W33011   5.670  17.644  14.639 -0.0123  0.0801  0.0819
17203W        W33012   4.031  13.186  14.187 -0.0982 -0.0370  0.2394
17204W        W33013  11.024  16.220  11.393  0.6908  0.2705  0.0673
17205W        W33014  15.420  12.993   5.579 -0.3247  0.1576  0.3215
17206W        W33015  12.773   9.158   1.556  0.2563 -0.0698  0.1230
17207W        W33016  17.530   4.609   0.777 -0.3926 -0.0917 -0.1575
17208W        W33017  14.048  11.809  12.384  0.0164 -0.1031  0.1711
17209W        W33018  14.984   4.111  16.655  0.3592 -0.2557 -0.0653
17210W        W33019   3.773  10.682  12.165 -0.1438  0.1063 -0.0021
17211W        W33020  13.685  11.147   2.194  0.1542 -0.1365  0.5097
17212W        W33021   5.865  11.934   4.297  0.1813 -0.0664  0.0515
17213W        W33022  12.733   7.860  16.168  0.0601 -0.1530 -0.1300
17214W        W33023  11.794   0.480  13.110  0.1429  0.0073 -0.1591
17215W        W33024   7.277  14.941  12.529 -0.0887 -0.0365  0.0757
17216W        W33025   8.116   3.037   0.082 -0.1330 -0.1540 -0.0435
17217W        W33026   2.372  10.077  16.508 -0.0620 -0.1413  0.0811
17218W        W33027   1.521  11.504  11.918 -0.4475 -0.1775 -0.2250
17219W        W33028   5.024  17.370   1.393  0.0714  0.2306  0.0635
17220W        W33029  11.974   1.170  15.864 -0.0846  0.5117 -0.1813
17221W        W33030   7.277  13.878  13.704  0.0135 -0.1104 -0.1575
17222W        W33031  15.838   3.823  13.743 -0.1595 -0.0356 -0.1242
17223W        W33032  12.170   5.407   0.557  0.0688 -0.1323 -0.1594
17224W        W33033   0.501  15.058  13.488  0.0705  0.0473 -0.0774
17225W        W33034   9.106  10.099   0.176  0.0751  0.1604  0.0974
17226W        W33035   9.864   9.877  12.942  0.0521  0.0840  0.0596
17227W        W33036  12.889  12.700  11.149 -0.0133 -0.0077 -0.2406
17228W        W33037   8.556   7.475   4.928  0.2322  0.0053 -0.2668
17229W        W33038  10.965   0.820  14.615 -0.2915  0.0514 -0.1601
17230W        W33039   2.871  12.347   2.455  0.1514 -0.1310 -0.0750
17231W        W33040  11.101   6.580   4.892 -0.1300  0.2834  0.1146
17232W        W33041   6.488  17.394  16.916  0.0935 -0.1871 -0.0003
17233W        W33042   3.898   9.277   5.137  0.2399  0.3422  0.3139
17234W        W33043   8.508  11.254   1.166 -0.2326  0.2607  0.0174
17235W        W33044   8.489   6.754   4.213 -0.0906 -0.3300  0.1103
17236W        W33045   3.753  12.100   4.916 -0.3176 -0.2662 -0.1931
17237W        W33046   8.037   4.098  12.214  0.0258  0.2215  0.0872
17238W        W33047  12.305  14.041   1.211  0.4703  0.0989 -0.0743
17239W        W33048   3.072   3.086  13.531 -0.0184  0.3285 -0.0644
17240W        W33049   0.949   4.339  16.505  0.2155  0.3721 -0.2412
17241W        W33050  15.714  13.841  16.794 -0.1635 -0.2860  0.0204
17242W        W33051   0.730   3.725   0.710  0.2171  0.2744  0.1848
17243W        W33052   6.970   2.719   3.145  0.2325  0.0580  0.0536
17244W        W33053  14.280   5.424   2.005 -0.0826  0.1590 -0.4859
17245W        W33054   8.258  16.437  12.079  0.1313 -0.0771  0.1602
17246W        W33055  15.146   7.958  14.549  0.1358  0.1435  0.0603
17247W        W33056   5.417  12.934   0.126 -0.2434 -0.3818  0.1754
17248W        W33057  17.375   3.091   5.930 -0.0466 -0.2033 -0.2769
17249W        W33058   1.583  11.550   1.907 -0.0544 -0.0185 -0.2614
17250W        W33059  15.861   5.444   0.987  0.2229  0.0137  0.1095
17251W        W33060  16.562  15.139   0.241 -0.0926  0.0828 -0.0301
17252W        W33061   2.418  12.087  16.411 -0.0168 -0.0265 -0.1212
17253W        W33062  15.117   4.577  15.101  0.2245  0.1557 -0.0801
17254W        W33063   1.102   9.638   0.701 -0.1786  0.2051 -0.0952
17255W        W33064   5.574  17.628   2.488  0.0181 -0.0353  0.0389
17256W        W33065  16.563  11.266  11.903 -0.1853 -0.0811  0.2127
17257W        W33066   5.317   6.780  11.493 -0.1522 -0.2394 -0.0055
17258W        W33067   8.886   2.024   5.817 -0.1703  0.4073  0.0107
17259W        W33068   9.250   4.346   5.378  0.0446  0.0936 -0.0469
17260W        W33069  14.575   8.359   5.193 -0.0765 -0.0210 -0.1283
17261W        W33070  16.796  17.234  12.805  0.1115  0.2334  0.2377
17262W        W33071  14.919  11.661   5.253  0.0356 -0.4728  0.3128
17263W        W33072  10.514   4.415   6.147 -0.1636 -0.1786 -0.3747
17264W        W33073   2.931   6.454  12.065 -0.0700  0.2622 -0.0550
17265W        W33074  12.055   8.527  14.396 -0.1930 -0.0533 -0.1122
17266W        W33075  16.942   7.850  13.970  0.0657  0.1285  0.1175
17267W        W33076   0.787  13.161   2.659  0.0318 -0.0003  0.0702
17268W        W33077  14.048   3.671  15.058  0.0630  0.1145  0.1476
17269W        W33078  12.311   7.012   3.494 -0.0969  0.1632 -0.4050
17270W        W33079   2.416  16.674   5.374  0.0690 -0.1139  0.0586
17271W        W33080   5.955  17.355  14.103  0.1085 -0.2109 -0.0209
17272W        W33081   0.016  14.896   5.146  0.1113  0.2187  0.4303
17273W        W33082   2.583  11.846  12.820  0.1883  0.0734  0.0477
17274W        W33083   1.228  14.347  13.431  0.2162 -0.2257 -0.2806
17275W        W33084  12.234   6.692   6.127  0.2478  0.0956 -0.1572
17276W        W33085   0.179  10.046  11.867  0.1298  0.1765 -0.1840
17277W        W33086  10.812   2.973  16.394 -0.1899 -0.1565  0.0119
17278W        W33087   7.616  17.158   5.170 -0.2101 -0.0322 -0.0305
17279W        W33088   1.253  12.637   0.265 -0.0543 -0.2486 -0.3893
17280W        W33089   4.785   0.266   5.132  0.0651 -0.0656 -0.2395
17281W        W33090  14.963  13.399  16.531 -0.1125  0.1625 -0.0129
17282W        W33091  17.594  17.561   3.474  0.0273  0.1269  0.0101
17283W        W33092   3.697   9.440  15.027  0.0232 -0.1076  0.0415
17284W        W33093   3.582  17.538  12.809  0.1403  0.1209  0.0283
17285W        W33094  13.928  12.237  16.155 -0.1565  0.0517  0.3963
17286W        W33095  15.247   4.541   5.349 -0.0619 -0.0317  0.2558
17287W        W33096   2.889   4.432  12.515  0.4187  0.0715 -0.1613
17288W        W33097  17.686   5.773  11.804 -0.1148 -0.3183  0.0868
17289W        W33098   9.631  14.476   1.574  0.1597 -0.1298  0.0263
17290W        W33099   9.628   8.208  16.983 -0.1349  0.1662  0.1095
17291W        W33100   0.511  10.227  12.224 -0.0680 -0.0771 -0.1201
17292W        W33101  14.429  17.200   3.728  0.0399  0.1041  0.2583
17293W        W33102   0.772   7.169   3.746 -0.1210  0.4524 -0.1838
17294W        W33103  16.441  13.845   3.897 -0.1937  0.1835  0.0014
17295W        W33104  16.627  13.401  14.057 -0.0373 -0.0534  0.2453
17296W        W33105  15.364   0.398   4.473  0.0314  0.2053  0.2165
17297W        W33106  10.857  13.750  15.945 -0.0660 -0.0823  0.0383
17298W        W33107   9.558  15.246  16.310  0.1182 -0.0244 -0.3356
17299W        W33108  15.345  11.120  12.178  0.0866  0.1752  0.1312
17300W        W33109  10.049  17.259   1.987  0.3834  0.1956 -0.0731
17301W        W33110  15.227   6.577   3.130 -0.1456  0.0229 -0.0277
17302W        W33111   1.525   1.669  15.196  0.0612  0.0179  0.2090
17303W        W33112   4.439   4.775   6.406  0.0095  0.2173  0.0771
17304W        W33113  10.421   9.321  15.669 -0.3390  0.3005 -0.2957
17305W        W33114   9.542  14.592  14.173 -0.0387  0.2538 -0.0547
17306W        W33115  15.957   4.021   3.815 -0.1104  0.0136  0.0325
17307W        W33116  15.525  17.486  12.466  0.0083 -0.0662  0.2642
17308W        W33117   2.363  17.674  15.651 -0.1213  0.0562  0.0292
17309W        W33118   6.257   2.136  14.658 -0.0772  0.2951  0.1387
17310W        W33119  14.580  16.998   0.847 -0.3121  0.2022  0.0984
17311W        W33120   7.230   6.493   2.083 -0.0600  0.2249  0.0166
17312W        W33121   7.345  14.481   0.607  0.0697 -0.2722  0.1760
17313W        W33122  14.104  15.432  15.108 -0.3539 -0.3421 -0.2047
17314W        W33123   0.960   6.094  13.211  0.1224 -0.0314  0.1501
17315W        W33124   0.916  10.055   5.182  0.0015 -0.5152 -0.1232
17316W        W33125   2.724  14.084   3.366  0.0735  0.0444 -0.0165
17317W        W33126   5.000  15.434   2.242  0.1389 -0.5232 -0.1996
17318W        W33127  15.091  16.779  15.901  0.2198  0.0746 -0.3413
17319W        W33128  11.992  13.291  11.122  0.1288 -0.0710 -0.2680
17320W        W33129   4.124   7.849  15.001 -0.0027 -0.2692  0.0553
17321W        W33130   6.488   8.356  16.691  0.2390 -0.0343  0.0045
17322W        W33131   3.227  10.232   2.212 -0.0361 -0.0629 -0.1101
17323W        W33132  16.481   1.800  13.851  0.0018 -0.0709  0.1525
17324W        W33133   9.574   1.575  16.242  0.0412  0.1632 -0.0192
17325W        W33134  11.963  14.056  10.817 -0.0226 -0.0418 -0.0577
17326W        W33135  13.666  11.723   3.811 -0.0266 -0.2380 -0.1570
17327W        W33136   6.559   0.204   4.707  0.0270  0.2892  0.2182
17328W        W33137  13.249   9.617  13.891 -0.0548  0.1883 -0.2756
17329W        W33138  17.384  13.690   4.773  0.0575  0.2563 -0.0918
17330W        W33139   5.449  13.132  15.163  0.1547 -0.3153  0.1421
17331W        W33140  10.763   5.801  16.082 -0.2097  0.1150  0.0145
17332W        W33141   1.011   0.060   2.901  0.1793  0.0386 -0.0765
17333W        W33142   2.668   8.097   4.364  0.0256  0.0546  0.1524
17334W        W33143   9.820   8.183  14.187  0.0083  0.0361  0.0209
17335W        W33144   1.983   7.109  10.969  0.1365 -0.1847 -0.0818
17336W        W33145   7.406  11.581   3.214 -0.0064 -0.0435  0.0510
17337W        W33146   2.771   2.953   6.683 -0.2564  0.0887  0.3079
17338W        W33147   7.216   0.672  14.309 -0.3100 -0.2408 -0.2367
17339W        W33148  14.043  15.853  12.746  0.0422  0.1199  0.2658
17340W        W33149   1.012   2.230   2.363  0.0233 -0.1175  0.0464
17341W        W33150  14.149   7.647  11.528 -0.0261  0.0326 -0.2739
17342W        W33151  14.646  14.226   2.396  0.0214  0.3183  0.4795
17343W        W33152   7.797   1.698   1.411 -0.1873  0.2446  0.1249
17344W        W33153  17.208   2.559   1.658 -0.0980 -0.0196  0.3959
17345W        W33154  15.736  11.224  14.129  0.0439  0.2847  0.1623
17346W        W33155   8.011   0.779  12.684  0.4262  0.1020  0.1704
17347W        W33156  13.999  10.889  12.419 -0.2196 -0.2447 -0.2604
17348W        W33157  15.029  15.680   4.013 -0.3916 -0.1462 -0.0394
17349W        W33158   3.001   2.922  15.663 -0.1559 -0.2130 -0.2410
17350W        W33159  14.836  11.139   2.563  0.0530 -0.1043 -0.0450
17351W        W33160   9.516  17.429   3.712  0.1463  0.0517  0.0492
17352W        W33161  16.709   5.249   4.420  0.3763 -0.1933  0.2659
17353W        W33162  10.746  11.211   3.875 -0.1529 -0.2218 -0.0076
17354W        W33163  15.383   6.790  14.191  0.0667 -0.1779  0.0832
17355W        W33164   9.782   9.322   3.113 -0.5066 -0.0735 -0.2300
17356W        W33165   4.971   2.229  16.992  0.0740 -0.3550  0.0906
17357W        W33166   2.583  14.940  15.157 -0.0877 -0.1377  0.1086
17358W        W33167   1.781  15.298   1.902 -0.0968 -0.0831  0.1462
17359W        W33168  10.249   1.535  11.556  0.1047 -0.1670 -0.0726
17360W        W33169  17.006   6.282   1.339 -0.1163 -0.1856  0.1474
17361W        W33170   3.730   8.153   4.439 -0.2983 -0.0662 -0.0301
17362W        W33171  11.553   8.676  12.344 -0.0923 -0.0077 -0.1312
17363W        W33172   0.340   4.830   3.877  0.2281  0.0407  0.0390
17364W        W33173   9.148  11.456   0.844  0.3181 -0.2824 -0.2870
17365W        W33174  11.894  16.364  16.243  0.1061 -0.0160 -0.2739
17366W        W33175   6.924  13.629   1.324 -0.0400  0.0604  0.1993
17367W        W33176  16.298  15.417  16.180  0.1759  0.2038  0.0072
17368W        W33177  13.196   5.620  12.530 -0.3635 -0.1263  0.0493
17369W        W33178  17.442  14.487   5.184 -0.1279 -0.0368 -0.1276
17370W        W33179   5.285   1.140  12.419  0.0298 -0.1110  0.0066
17371W        W33180  14.566   5.743   1.275 -0.1484  0.1798 -0.1176
17372W        W33181   0.465  16.106   2.267  0.1339 -0.2665  0.2743
17373W        W33182  16.470   8.609   1.532  0.1361 -0.0679  0.0693
17374W        W33183   0.901  14.705  16.149  0.0881 -0.2683  0.0271
17375W        W33184   0.991  12.934  16.856 -0.0948  0.1147 -0.0629
17376W        W33185   9.897  14.511   5.688  0.0696 -0.1922  0.0512
17377W        W33186  15.948  14.644   5.278 -0.1203  0.1633 -0.0663
17378W        W33187   8.165   5.424   6.497 -0.3307 -0.1512 -0.0828
17379W        W33188   1.522   9.660   1.330  0.0009  0.0358  0.1668
17380W        W33189  16.797   0.792   2.932  0.1862  0.0086 -0.1128
17381W        W33190  13.946  10.115   3.230  0.2169  0.2171 -0.0926
17382W        W33191   4.890   3.886  16.373  0.1181  0.1273 -0.1033
17383W        W33192   6.976  15.569  16.795  0.1169  0.0005 -0.0875
17384W        W33193   0.388   0.685   2.440 -0.2033  0.3764 -0.4223
17385W        W33194  12.320   4.344   6.554  0.0069  0.2104 -0.0319
17386W        W33195  13.298  13.272   3.105  0.1614 -0.0586 -0.1880
17387W        W33196   9.170   4.965   1.317  0.1575 -0.0483  0.0213
17388W        W33197  11.556   7.706  12.981  0.4077 -0.3768 -0.0588
17389W        W33198   9.686   6.126   1.419 -0.2200  0.0183  0.1184
17390W        W33199   4.596   2.785   4.231 -0.0949  0.2094 -0.1731
17391W        W33200   7.223   2.890  13.651  0.1064  0.0568 -0.1064
17392W        W33201  16.613   2.943  14.202 -0.4322  0.1203 -0.2498
17393W        W33202   3.740  13.895  13.473  0.0060 -0.1016 -0.2815
17394W        W33203   6.396  13.432   4.886 -0.1842  0.1642  0.0590
17395W        W33204   8.192  17.322   3.442  0.0933 -0.0957 -0.2412
17396W        W33205  11.025   9.197  12.644  0.3045  0.2160  0.1886
17397W        W33206   1.622   2.182  16.430  0.2285 -0.0634  0.1467
17398W        W33207  10.214   5.794  16.155 -0.1802 -0.2200 -0.0508
17399W        W33208   6.514  10.006   1.474  0.0548 -0.2471  0.0183
17400W        W33209   2.400  17.232   5.183  0.0294  0.1648  0.2118
17401W        W33210  12.234  17.038   0.704 -0.0973  0.0199  0.0687
17402W        W33211   9.773  11.192  14.527  0.0295 -0.0625 -0.1174
17403W        W33212   9.323   0.767  15.510  0.0104 -0.3830 -0.1910
17404W        W33213  17.196   2.149   2.253 -0.3273  0.0480 -0.1460
17405W        W33214  14.594  14.355  13.035  0.1348 -0.1416 -0.0272
17406W        W33215  15.503  12.178   3.834  0.0657 -0.0322  0.0083
17407W        W33216   1.278  16.823  15.240 -0.1956  0.1898 -0.0237
17408W        W33217   7.462   0.535   3.665  0.0174  0.1323  0.1155
17409W        W33218   3.703  16.437  14.538 -0.1023 -0.1051  0.3958
17410W        W33219   3.826  16.679   5.377  0.0053  0.1204 -0.1043
17411W        W33220  15.439   0.135  15.928  0.2630  0.2343 -0.0754
17412W        W33221   6.837  10.275  12.461 -0.1619 -0.2878 -0.0552
17413W        W33222   1.901   5.673   5.757  0.0875 -0.1451  0.2251
17414W        W33223   9.736  11.691  14.592  0.0501 -0.1901 -0.0472
17415W        W33224   6.279  12.151  12.345  0.0686 -0.1343  0.1135
17416W        W33225   0.384   3.045  15.669  0.0849  0.0580  0.0599
17417W        W33226  10.269   6.880  12.923  0.2714  0.2325  0.3653
17418W        W33227   0.478  15.962   5.224  0.2395  0.3020 -0.3438
17419W        W33228   2.340   4.417   5.506 -0.1304  0.0660  0.0586
17420W        W33229  10.495   2.400   2.901  0.0931 -0.1207  0.0203
17421W        W33230   1.099   0.478   4.968 -0.2176 -0.0250 -0.3397
17422W        W33231   1.293  17.004   5.625  0.2378  0.0744  0.2474
17423W        W33232  17.324   9.183  16.683 -0.0710 -0.0732  0.0129
17424W        W33233   4.793   1.466  13.839  0.1350  0.1098  0.0982
17425W        W33234   8.225  15.347  15.697 -0.2158 -0.0426 -0.0843
17426W        W33235   9.914   1.614  14.571  0.0933  0.0094 -0.0681
17427W        W33236  17.450   2.295  14.002 -0.1267 -0.0157  0.2378
17428W        W33237   6.134  17.017   0.967 -0.2368 -0.3669 -0.0820
17429W        W33238  12.735   5.523  14.525  0.1273  0.3117 -0.2299
17430W        W33239  14.592  14.349   1.094  0.1209  0.1480  0.2435
17431W        W33240  10.532   9.937  13.681 -0.3338 -0.0606  0.0611
17432W        W33241  14.911  16.881  12.851  0.1121  0.1532 -0.2031
17433W        W33242   3.822  17.507   2.694 -0.1614  0.1655 -0.0713
17434W        W33243  12.707   9.439  13.909  0.1470  0.0728  0.0570
17435W        W33244   0.723  12.394  14.303 -0.1921 -0.0110  0.0876
17436W        W33245   7.799   8.194  16.834 -0.3234  0.1519 -0.0189
17437W        W33246   3.370   5.321   3.122 -0.1226  0.0665  0.0330
17438W        W33247  16.696  10.536  15.438  0.0099 -0.1125 -0.0411
17439W        W33248  11.227   2.627   1.333 -0.1348 -0.1969 -0.1928
17440W        W33249   2.167   6.610   4.858  0.1045  0.1918 -0.2262
17441W        W33250  14.547  14.346   3.746 -0.0594  0.2763 -0.0448
17442W        W33251   7.808   1.413   3.091 -0.0382 -0.2827 -0.1755
17443W        W33252   5.096   9.181  14.486  0.0717 -0.0885 -0.3191
17444W        W33253  12.687   1.563   1.969  0.1183 -0.1451 -0.2987
17445W        W33254  12.345   0.284   3.525  0.0030 -0.4516 -0.1212
17446W        W33255   7.610  10.298   4.229 -0.3343  0.1691  0.0282
17447W        W33256  17.654   0.158  14.872  0.2468 -0.3224 -0.1067
17448W        W33257   9.088   9.258  16.739 -0.2765 -0.0744  0.3475
17449W        W33258  10.546   1.970  11.494  0.1650 -0.1709 -0.0521
17450W        W33259   9.393   1.271   0.361 -0.1644 -0.0170  0.2638
17451W        W33260  11.706   2.390   3.732 -0.0591 -0.2098  0.0231
17452W        W33261   0.143  13.911   0.569 -0.0495 -0.0498 -0.0188
17453W        W33262  12.722   1.824   4.877 -0.0556  0.1362 -0.0603
17454W        W33263   9.507  16.602  14.262 -0.2011  0.0675 -0.1234
17455W        W33264   6.166   4.343   5.679 -0.0426  0.2800 -0.0537
17456W        W33265   1.857  11.971  16.296 -0.1735  0.0206 -0.1192
17457W        W33266  12.126   2.047   5.482 -0.0294 -0.0588  0.0838
17458W        W33267   9.376   3.607  16.134  0.0723 -0.0535  0.1477
17459W        W33268  12.719   3.410  14.594 -0.1210 -0.1999  0.0243
17460W        W33269   7.187  16.824   4.068 -0.3785 -0.2926  0.2597
17461W        W33270   7.933   9.436  11.807  0.1575 -0.1139 -0.1443
17462W        W33271   5.087   0.489  13.139  0.2536 -0.2452 -0.0028
17463W        W33272  11.989  13.364  12.816  0.3218 -0.0896  0.4983
17464W        W33273   2.884   7.770   2.007  0.1430  0.0162 -0.1920
17465W        W33274   6.246  10.321  13.725 -0.1615  0.0301 -0.1040
17466W        W33275  11.179  12.819  10.905  0.1182 -0.1071 -0.1618
17467W        W33276   6.175  12.260   4.668  0.1153  0.1571  0.0581
17468W        W33277  10.242  11.867   2.227 -0.1081  0.1532 -0.0238
17469W        W33278   3.324  15.302  15.050 -0.3067 -0.0124  0.0893
17470W        W33279   1.513   7.042   0.622  0.1310 -0.1279 -0.0282
17471W        W33280   3.865  12.516   1.230  0.0680  0.0562 -0.0260
17472W        W33281   4.148  16.191  12.439  0.0488  0.0184 -0.2208
17473W        W33282  11.775  14.822  11.591  0.3103  0.0210  0.1630
17474W        W33283   8.008   7.284  13.601 -0.1250  0.0219 -0.0305
17475W        W33284  14.887   5.410  12.429 -0.0068  0.0375  0.2886
17476W        W33285   8.524   0.157   2.799  0.2374 -0.2982  0.0735
17477W        W33286   5.537   3.279  12.482 -0.0017  0.1150 -0.1732
17478W        W33287   1.608   2.604   1.502 -0.0811 -0.0979  0.2921
17479W        W33288  13.927  11.419   4.977 -0.1940 -0.2147 -0.0781
17480W        W33289   4.312   2.875   1.507 -0.0108  0.3595 -0.1631
17481W        W33290  11.004  13.537   0.599 -0.2282 -0.0559  0.1147
17482W        W33291   5.773  13.050   1.806  0.0596 -0.1764  0.1071
17483W        W33292   2.216   3.205  16.397  0.3621 -0.2017  0.2215
17484W        W33293   5.643   1.553   0.385  0.2654 -0.3384  0.5858
17485W        W33294  10.959  12.563   4.391  0.5226  0.0693 -0.1191
17486W        W33295   7.264  10.527   5.231  0.0839 -0.1503 -0.1185
17487W        W33296  13.145  13.553   0.206  0.2315  0.1174  0.3272
17488W        W33297   6.170   0.613   2.198  0.2846  0.0777  0.1762
17489W        W33298   3.205  16.726   3.898  0.2992  0.0595 -0.0146
17490W        W33299   2.901  16.739   6.194  0.0528 -0.0145  0.1818
17491W        W33300  15.134  11.094   1.710 -0.3112  0.2300 -0.1318
17492W        W33301  12.513   7.229   0.168 -0.0579 -0.4388  0.3908
17493W        W33302  17.712  11.096  12.720  0.0695 -0.1014  0.1298
17494W        W33303  10.269  11.152   1.063 -0.0152 -0.2519  0.0293
17495W        W33304  17.360   8.244  15.366 -0.0548 -0.2172  0.1925
17496W        W33305   5.860   7.007   0.567 -0.0914  0.2204  0.1369
17497W        W33306  11.664   1.840  12.335  0.0161 -0.0769 -0.0315
17498W        W33307  16.807   0.952   2.421 -0.0912 -0.0973 -0.4877
17499W        W33308   4.053  17.401   0.897 -0.0286  0.0796 -0.0447
17500W        W33309   2.563   0.440   1.838 -0.1290 -0.1680 -0.2513
17501W        W33310   1.150   3.664  14.473 -0.3114  0.0211  0.0265
17502W        W33311  10.519   6.779   5.847 -0.0660  0.1391  0.1501
17503W        W33312  14.987  16.796   1.083 -0.1445  0.2813 -0.1011
17504W        W33313   5.648   9.956  15.341  0.0468 -0.1745 -0.3032
17505W        W33314   6.488   0.749  14.883  0.3383  0.1433 -0.1301
17506W        W33315  14.738   0.816   0.344  0.0318  0.0141  0.1962
17507W        W33316  11.625  17.355  14.769  0.3124 -0.2459 -0.0149
17508W        W33317  14.388  11.084   4.795  0.2250  0.1579  0.1512
17509W        W33318  10.477   4.009  12.960  0.3563  0.3276  0.0154
17510W        W33319   0.812  12.660   0.588 -0.0314 -0.2306 -0.0501
17511W        W33320  12.055  14.813  12.026 -0.0346  0.0632  0.1015
17512W        W33321   8.449   3.380  16.701  0.1280  0.1533 -0.1703
17513W        W33322  11.415  16.566  11.543 -0.2704  0.3497  0.1684
17514W        W33323  16.954  12.542   4.408  0.0927 -0.0878  0.2010
17515W        W33324  16.485   9.278   4.047  0.2967  0.1216 -0.3688
17516W        W33325   5.214   9.907  13.155 -0.1798  0.0974  0.0019
17517W        W33326   8.382   4.518  13.298  0.1626 -0.1652 -0.2754
17518W        W33327   0.958   2.134   5.846 -0.1059 -0.0266  0.2661
17519W        W33328   4.771   8.544  12.346  0.2309 -0.2172  0.1034
17520W        W33329   0.300   4.754   6.360  0.1266  0.0257  0.1918
17521W        W33330   9.858  12.274  11.976 -0.0411 -0.0827 -0.2188
17522W        W33331   9.899   9.021  16.211 -0.1271  0.4328  0.2343
17523W        W33332  17.032  15.480   1.072  0.2111  0.2416 -0.0771
17524W        W33333  11.546   1.308  16.376  0.0432  0.0785  0.2792
17525W        W33334   5.534   6.425   5.701  0.0448  0.1587  0.0376
17526W        W33335   6.365   4.069  16.509  0.0794  0.0250 -0.3486
17527W        W33336   1.652   6.532  11.570  0.2788  0.2775  0.2025
17528W        W33337  14.853   8.431  14.442 -0.0798 -0.0375  0.2199
17529W        W33338  17.442   8.358  16.844 -0.1532  0.1069  0.0078
17530W        W33339   4.404  14.213   4.655  0.1428  0.0267 -0.0614
17531W        W33340  15.914  11.474  14.552  0.0265 -0.5000  0.1188
17532W        W33341   2.902   8.862   1.305  0.2016  0.1161 -0.0307
17533W        W33342  13.441   6.041  13.567  0.1355  0.1586  0.2708
17534W        W33343  13.546   7.094   1.485  0.3831  0.0205  0.0854
17535W        W33344  11.749  14.869  13.463 -0.1010  0.0720  0.2939
17536W        W33345  17.278   3.937   5.743  0.1996  0.1231 -0.4058
17537W        W33346  15.354   6.540   2.465 -0.0106 -0.1869  0.1115
17538W        W33347  12.942  12.217  11.330  0.2587 -0.1221  0.1517
17539W        W33348  17.558   4.705   3.639  0.1888  0.2307  0.1027
17540W        W33349  11.420   9.087  16.849 -0.0204 -0.4758  0.2066
17541W        W33350  13.884   0.558  14.823 -0.1396  0.1106  0.0743
17542W        W33351  12.146  12.901  15.748  0.0477 -0.2339  0.2441
17543W        W33352   6.092   6.184   2.362  0.2926  0.2200  0.0333
17544W        W33353   9.911   0.274   2.260 -0.0265 -0.0825 -0.0832
17545W        W33354  17.015   6.418  11.938 -0.1974  0.1701 -0.0683
17546W        W33355   2.349   8.287  14.926  0.3199  0.1347  0.1566
17547W        W33356   5.331  11.394  16.884  0.0381 -0.1448 -0.1351
17548W        W33357  10.919   7.445   2.241 -0.0582  0.1039 -0.0466
17549W        W33358   5.586  15.042   4.850  0.1893  0.0298 -0.3159
17550W        W33359   2.216   9.480  15.552 -0.4206  0.0105 -0.0170
17551W        W33360  13.100  13.757  10.721 -0.1677 -0.1255  0.1259
17552W        W33361   1.517  16.663   0.519 -0.1970 -0.1673  0.1799
17553W        W33362   8.362   4.603   4.047  0.0944 -0.0596 -0.1761
17554W        W33363   2.963  17.691  13.670 -0.1983 -0.0361 -0.0838
17555W        W33364   8.323  17.555  13.880 -0.1149  0.1199  0.1726
17556W        W33365  13.020   7.281   1.561  0.0326 -0.0177  0.0907
17557W        W33366   8.030   6.638   4.926  0.0458  0.1750 -0.0604
17558W        W33367   5.122  15.875   4.993  0.0120  0.0136  0.1974
17559W        W33368  14.911   8.317   3.816 -0.3020 -0.1020 -0.1706
17560W        W33369   6.687  14.279  12.337  0.0006  0.0467 -0.1135
17561W        W33370  11.820  16.856  11.701  0.0913 -0.0956  0.1688
17562W        W33371   6.845   8.766   3.109 -0.2643  0.3101 -0.0874
17563W        W33372   2.765  16.142  14.672 -0.0890 -0.0307  0.2133
17564W        W33373  17.636  12.119   3.283 -0.0238 -0.0683 -0.1778
17565W        W33374   5.035  14.298  11.585 -0.0881 -0.1881  0.0538
17566W        W33375   2.894   9.750   5.927  0.1551 -0.3956 -0.1439
17567W        W33376   5.467   1.612  16.289  0.3000  0.2911 -0.4142
17568W        W33377   0.685  17.407  15.822 -0.0011 -0.2753  0.1318
17569W        W33378  11.672  17.047   4.135 -0.1534  0.0082  0.2973
17570W        W33379   3.796   7.582  15.408 -0.1505  0.0364  0.0410
17571W        W33380  17.581   6.851   3.527  0.0064 -0.0072  0.0584
17572W        W33381   0.469  11.271   0.427 -0.0445 -0.0664 -0.0469
17573W        W33382  14.404  13.977   3.469  0.0046  0.0556  0.2265
17574W        W33383   5.617   4.275  14.800  0.0817  0.0469 -0.1193
17575W        W33384   8.538   3.629  14.262  0.3212 -0.0470  0.1086
17576W        W33385  14.266   6.315   3.235  0.1280  0.2931 -0.0291
17577W        W33386   5.855  15.312   5.180  0.0685  0.0540 -0.0107
17578W        W33387  14.632   1.280   5.159  0.1154  0.0543  0.0102
17579W        W33388   7.129  15.330   4.780  0.0263  0.1454 -0.1224
17580W        W33389  10.825  13.339  16.250 -0.1656  0.2944 -0.0380
17581W        W33390  12.637  17.518  11.890 -0.1297 -0.1462  0.2247
17582W        W33391   9.985  16.182   1.655 -0.3485  0.2615  0.0011
17583W        W33392  11.966   4.458  14.081 -0.1795 -0.0029 -0.3286
17584W        W33393   6.364   1.571  12.512 -0.1732 -0.1212 -0.0794
17585W        W33394   9.134  15.232  10.746  0.2253 -0.1763  0.3474
17586W        W33395  14.226  11.093  11.432 -0.4250 -0.4343  0.0306
17587W        W33396  11.018  16.495  16.452 -0.1510 -0.2161  0.0801
17588W        W33397  16.775  14.555  16.255 -0.0672  0.1768 -0.1381
17589W        W33398  10.699  15.313   1.747  0.2303 -0.4098  0.0037
17590W        W33399   3.524   4.121   2.955  0.1816  0.0273  0.1207
17591W        W33400  17.047  11.496  11.735  0.1821 -0.4459  0.1025
17592W        W33401  14.758  11.724   3.445 -0.0563 -0.0952  0.2977
17593W        W33402  10.862   5.911  12.591 -0.0551 -0.1374 -0.1848
17594W        W33403   7.349   4.902  13.713 -0.2372  0.0259  0.0578
17595W        W33404  12.262  12.745   1.687  0.2433  0.1843 -0.0726
17596W        W33405   8.261  15.188  16.224 -0.0545 -0.0273  0.0724
17597W        W33406   4.539   4.714  16.728  0.1236 -0.0840  0.3339
17598W        W33407  13.146  17.479  12.098  0.3237  0.2296 -0.2376
17599W        W33408  10.110   9.855  15.604  0.1147 -0.1230 -0.1094
17600W        W33409   5.116  13.687   2.871  0.1326  0.1196 -0.1574
17601W        W33410   3.178   0.245  13.201 -0.0394  0.1630 -0.1604
17602W        W33411   5.285   9.703  12.087  0.1594 -0.2118 -0.0139
17603W        W33412   9.863   4.961   3.236 -0.1156 -0.2055 -0.2298
17604W        W33413   3.262   6.173  13.375 -0.4178 -0.2886  0.0717
17605W        W33414  14.814   2.762   2.017  0.0613 -0.2098  0.2977
17606W        W33415  13.028   3.355   4.272  0.1665  0.2412  0.2323
17607W        W33416   5.917  14.093   0.743  0.1114  0.1551  0.0906
17608W        W33417   9.274   0.996  14.458 -0.0658  0.0719 -0.0281
17609W        W33418   6.881  11.218   0.532 -0.1775 -0.1900 -0.0797
17610W        W33419  10.857  15.113   4.418 -0.1301  0.3741  0.0012
17611W        W33420  10.295  10.506  14.499  0.2650  0.4034  0.2669
17612W        W33421  14.998   2.482  16.397 -0.1659 -0.0360 -0.2367
17613W        W33422   5.775   4.168  15.956 -0.2474  0.0398  0.1916
17614W        W33423  17.163  13.927   5.555  0.4180 -0.1337 -0.2094
17615W        W33424  14.755   0.870  16.332 -0.3215  0.0770 -0.0084
17616W        W33425   8.660   5.597   0.793  0.0681  0.1441  0.1457
17617W        W33426   3.638   8.959  14.160 -0.0059 -0.1349  0.2178
17618W        W33427   5.288  15.155   4.385  0.2229  0.0402  0.0904
17619W        W33428   1.290   7.036  12.085  0.0123 -0.1520 -0.0997
17620W        W33429   0.627   4.886   4.778  0.1992 -0.2632  0.2146
17621W        W33430   9.216   9.897  12.122  0.0428 -0.0337  0.1053
17622W        W33431   4.662   7.313  16.953 -0.2361  0.0701  0.0403
17623W        W33432   2.519   7.857   4.960  0.1171  0.0915 -0.1273
17624W        W33433  10.613  15.368  12.142  0.5421  0.0569  0.0915
17625W        W33434  16.266   9.728  14.472  0.1707 -0.1369  0.0829
17626W        W33435  15.843   3.384  13.277 -0.2261 -0.0317  0.1503
17627W        W33436  14.001   4.454  12.866  0.0165 -0.1276 -0.0866
17628W        W33437  12.358  12.836   4.821 -0.2262 -0.0434 -0.0980
17629W        W33438  16.188   7.274   5.827 -0.2092  0.1069  0.1709
17630W        W33439  11.298  17.607  11.718 -0.0387 -0.0892  0.0901
17631W        W33440  10.813  16.857   0.755 -0.1128 -0.0321  0.1331
17632W        W33441   3.795  16.308  13.376  0.0054 -0.0948 -0.2225
17633W        W33442   2.571  13.850   5.348  0.1946 -0.2871 -0.2641
17634W        W33443  14.181   0.157  14.633 -0.1105  0.0305  0.0902
17635W        W33444  16.439  11.218   1.971  0.0519 -0.0796  0.1382
17636W        W33445  12.394   1.004  15.687 -0.5045 -0.1360  0.1533
17637W        W33446  16.166   2.303   2.243 -0.0510  0.0313  0.0704
17638W        W33447  16.459  17.267  13.728  0.0572  0.1091  0.0927
17639W        W33448   8.117   4.295  16.709 -0.5418  0.3208  0.0020
17640W        W33449  10.636  11.720   0.482 -0.1431  0.3654 -0.0122
17641W        W33450  15.397   9.993   1.980  0.0579  0.0545 -0.1875
17642W        W33451  13.243  16.699  15.560 -0.0551 -0.0114  0.0849
17643W        W33452   9.773   6.725  12.977 -0.1197 -0.1334  0.0908
17644W        W33453  17.210  13.526  11.934 -0.0435  0.0879  0.1609
17645W        W33454   9.344  10.088   2.883 -0.0941  0.1169 -0.3519
17646W        W33455   7.060   6.459   0.073  0.0810  0.1958  0.5331
17647W        W33456   4.392   4.326  11.912  0.2343 -0.2695  0.1954
17648W        W33457   6.242   9.823   3.605 -0.0552  0.0261  0.0985
17649W        W33458   2.894   1.333   2.351  0.2579 -0.1535 -0.3229
17650W        W33459  12.693  10.478   3.666 -0.1185 -0.1107  0.1146
17651W        W33460   7.673  15.191  16.840 -0.0921  0.0603 -0.1264
17652W        W33461   1.648  13.635   1.545 -0.0156 -0.2542 -0.0772
17653W        W33462   7.145   3.397  14.288  0.1121  0.1926 -0.3681
17654W        W33463   5.517   9.245  13.801 -0.2730 -0.0442  0.2775
17655W        W33464  10.511   1.813   2.275  0.1597  0.3001  0.0450
17656W        W33465   8.133   6.332  13.223 -0.1317 -0.2180  0.4759
17657W        W33466  14.083  12.691   3.698 -0.0368 -0.2401  0.2546
17658W        W33467   5.768   2.733   4.919  0.0498 -0.2402 -0.0492
17659W        W33468  17.284   6.107   5.448 -0.1289  0.0761  0.0400
17660W        W33469   0.424   7.291   4.747 -0.0278 -0.0282 -0.1107
17661W        W33470   6.451   9.097   1.419  0.1117 -0.0585  0.2128
17662W        W33471  15.179  10.039  15.992 -0.0699  0.3093 -0.0743
17663W        W33472  14.706  10.776   3.612 -0.0563  0.1102  0.2055
17664W        W33473  15.463   7.965  15.312  0.0358 -0.2956 -0.1216
17665W        W33474  14.819  13.381  12.042 -0.3082  0.2090  0.0495
17666W        W33475  13.963   1.216  12.273  0.3449  0.1423 -0.1978
17667W        W33476   9.931   5.941  15.550  0.0071  0.0413 -0.0439
17668W        W33477  14.471   3.335   5.934  0.1183  0.1546  0.4129
17669W        W33478  13.874   0.277  11.675 -0.2121 -0.2883 -0.2777
17670W        W33479   4.583   4.200  16.618 -0.0949 -0.0437 -0.1799
17671W        W33480   8.363  10.004  16.806 -0.3342 -0.0513  0.1068
17672W        W33481   7.038   8.293  15.775 -0.0960  0.0579  0.1232
17673W        W33482   6.438  14.772   1.147  0.1485 -0.1259  0.1862
17674W        W33483   2.484   7.702  14.236 -0.0068  0.1394 -0.5123
17675W        W33484   9.684   3.916   4.857  0.0056  0.0061 -0.0173
17676W        W33485   0.275  11.695   3.363  0.2898  0.0452  0.0956
17677W        W33486  14.417  13.169  15.473 -0.0443  0.2363  0.1174
17678W        W33487  10.373   8.689   2.721 -0.0057  0.2945 -0.3913
17679W        W33488  10.740   1.070   0.911  0.0784 -0.0732 -0.1691
17680W        W33489   0.755   5.318  15.022  0.1154 -0.2737  0.1696
17681W        W33490  12.661  17.554  12.430 -0.0265 -0.2162 -0.0985
17682W        W33491   1.249   8.301   5.038 -0.0606 -0.1792 -0.0399
17683W        W33492   5.050   6.580   2.240 -0.2074  0.0975  0.1540
17684W        W33493   3.179  16.067   5.611 -0.1092 -0.1814 -0.1478
17685W        W33494  17.723   9.394   3.690 -0.0303 -0.3294  0.2374
17686W        W33495   7.126   1.671   2.806  0.0816 -0.1297 -0.3181
17687W        W33496   7.056  15.190   1.859 -0.0490  0.0018  0.1308
17688W        W33497   5.623  11.369   5.627 -0.1753  0.2250 -0.1717
17689W        W33498  16.480   4.925   0.419  0.0823 -0.2069 -0.0444
17690W        W33499  15.346  17.355  11.821 -0.1264 -0.0300 -0.0202
17691W        W33500   4.265  12.871   1.628  0.2784  0.1562 -0.2778
17692W        W33501  13.826   3.453   4.005  0.1161 -0.1817 -0.1287
17693W        W33502   0.677   8.872  16.462  0.1331 -0.0411 -0.1398
17694W        W33503  15.711  10.038   3.766 -0.1030 -0.1752  0.0997
17695W        W33504   9.541  12.757   1.811 -0.0270  0.1840 -0.1353
17696W        W33505  10.057   0.376  10.504  0.1048  0.0426 -0.2567
17697W        W33506   1.430   8.245  13.658  0.1644  0.0367 -0.0418
17698W        W33507   1.225   6.575  12.881  0.1303 -0.2988 -0.1369
17699W        W33508   0.516   0.232  11.152  0.2774 -0.0623 -0.0705
17700W        W33509   6.090  14.766   2.772 -0.0607  0.1234  0.1824
17701W        W33510   4.073   9.680  14.030  0.3007 -0.1058  0.2391
17702W        W33511   5.682   0.911   3.351  0.2036 -0.1674  0.2181
17703W        W33512   4.346   8.109   0.273 -0.0837 -0.1039 -0.1432
17704W        W33513   1.178   5.533  12.209 -0.0430  0.1028 -0.1009
17705W        W33514  12.370  13.892  16.116  0.2308 -0.1205 -0.2858
17706W        W33515  14.674   3.338  13.017 -0.2115  0.0003  0.2261
17707W        W33516   7.941  13.855  14.271 -0.1671 -0.3211  0.1651
17708W        W33517   6.619  14.028   5.527 -0.3116 -0.0061 -0.3055
17709W        W33518   8.550  15.057  11.700 -0.1303 -0.2576 -0.2441
17710W        W33519  13.715  15.383  14.835 -0.0242 -0.0498 -0.0186
17711W        W33520  11.988  12.223   0.014  0.2149 -0.0294 -0.2316
17712W        W33521   6.065   2.059   0.432 -0.1218 -0.0673  0.1261
17713W        W33522   5.015   8.650   6.028  0.3034 -0.1651  0.2654
17714W        W33523  12.743   9.101   2.543 -0.1232  0.1732 -0.1508
17715W        W33524   8.880  10.135   5.540 -0.0423 -0.0983 -0.1819
17716W        W33525   4.973   4.893   5.599 -0.4793  0.1041 -0.0681
17717W        W33526  12.529   1.987   3.967 -0.0276 -0.1219  0.0644
17718W        W33527  11.357   8.537   2.812 -0.0780  0.2631  0.1114
17719W        W33528   2.297   6.854   3.733  0.0650  0.0529 -0.1595
17720W        W33529   6.205  14.436   1.893  0.2840 -0.0711 -0.3765
17721W        W33530  15.815  12.666  12.252  0.0652 -0.0118 -0.0721
17722W        W33531  14.674   6.410  12.173  0.3121 -0.0602 -0.0384
17723W        W33532  11.861  15.889  14.421  0.0534  0.0174  0.0952
17724W        W33533   6.531   7.517  15.640 -0.1114  0.0886  0.1961
17725W        W33534  12.606  16.836  10.899  0.1759  0.0383  0.1297
17726W        W33535  14.912  13.224   2.287 -0.0187 -0.1763 -0.1830
17727W        W33536  10.730  11.699  16.411  0.0310 -0.2041  0.2518
17728W        W33537   2.905   8.860  15.240  0.0664 -0.1706  0.0580
17729W        W33538  12.000  11.881   1.987  0.0407  0.3005 -0.0446
17730W        W33539   8.805  11.083  14.309 -0.0521 -0.1478 -0.1357
17731W        W33540   5.481  13.064  13.140  0.2121 -0.1941 -0.0267
17732W        W33541   2.058   2.679   4.858  0.0574  0.0167 -0.1821
17733W        W33542  12.661  13.526   3.513  0.0658  0.1481 -0.1647
17734W        W33543  11.849   0.196   0.923  0.1158 -0.0823  0.3289
17735W        W33544  11.350   9.502  12.199 -0.1938 -0.0583 -0.3007
17736W        W33545   9.748   1.093  16.280 -0.0476 -0.1811 -0.2114
17737W        W33546  17.485   9.880   4.354  0.1215  0.2297  0.0712
17738W        W33547   7.480  10.815   4.414 -0.0655 -0.1058 -0.0719
17739W        W33548  12.631   2.650   4.866  0.1177 -0.0117  0.0033
17740W        W33549  14.780  12.934  15.727 -0.2395  0.1399  0.0052
17741W        W33550   7.032  11.881   3.574  0.2809  0.1728  0.0966
17742W        W33551   1.311   1.903   0.819  0.1853  0.0515  0.1287
17743W        W33552   7.636   0.110  14.615 -0.0870  0.2737 -0.0233
17744W        W33553  10.679  12.701   3.939 -0.1212 -0.1890 -0.1694
17745W        W33554   5.009  14.677   4.597  0.0032  0.0251  0.1840
17746W        W33555   3.947  11.207   4.806  0.4572  0.1257 -0.0181
17747W        W33556  14.586   5.435   5.217  0.0616  0.1298 -0.3243
17748W        W33557  11.999  11.402   1.799  0.2441 -0.3040  0.0505
17749W        W33558   4.807  13.389  15.497  0.2901 -0.1964 -0.0113
17750W        W33559   5.832   8.040  14.342  0.0796  0.1287 -0.3240
17751W        W33560   5.903  17.332  12.722 -0.1446  0.0310 -0.1451
17752W        W33561   0.726   8.908  13.256 -0.1173  0.0904 -0.1940
17753W        W33562  15.620   3.326  14.603  0.0353 -0.0887 -0.0521
17754W        W33563  15.008   1.501  15.985 -0.1304  0.1938  0.3459
17755W        W33564  15.669   2.093   2.476  0.0041  0.0556 -0.0918
17756W        W33565  11.011   4.117  12.255 -0.0080  0.0225 -0.1894
17757W        W33566   2.813   8.556  13.964 -0.1503  0.0828 -0.0521
17758W        W33567   7.304  13.384   2.056 -0.1149 -0.1588 -0.1943
17759W        W33568   0.485  11.745   5.784  0.0199 -0.3001 -0.2404
17760W        W33569   0.147   1.900   6.700 -0.0724 -0.1349  0.0442
17761W        W33570  10.744   7.716  14.713  0.1562  0.0587 -0.2227
17762W        W33571   3.551  14.681   3.793 -0.3169 -0.0647  0.4207
17763W        W33572  10.858   2.170  13.325  0.0108 -0.2087  0.2477
17764W        W33573   6.352   4.922   1.839 -0.3903 -0.0455 -0.1001
17765W        W33574  14.753  10.124   4.660  0.0050 -0.0576 -0.0715
17766W        W33575  15.903  12.861   1.136 -0.2371  0.0520 -0.1625
17767W        W33576   5.374  10.523   5.652 -0.3015  0.0703  0.0971
17768W        W33577   7.765  10.761   0.147  0.0209  0.0317  0.0340
17769W        W33578   0.642   9.272  13.698  0.0145  0.0770 -0.1254
17770W        W33579  14.297  16.202   3.640  0.2127 -0.0710  0.1746
17771W        W33580  17.142  11.313  16.587 -0.1475  0.0828 -0.4531
17772W        W33581  17.476  13.963  16.381  0.1647 -0.1679 -0.0451
17773W        W33582   7.373   1.320   1.428 -0.1001 -0.1135 -0.1240
17774W        W33583   5.016   1.121   5.315  0.0390  0.1371 -0.1910
17775W        W33584  10.930   0.129   5.270  0.0884 -0.4028 -0.1211
17776W        W33585  16.114   7.583   3.099 -0.0399 -0.0086  0.1552
17777W        W33586   0.987  11.693  15.549 -0.2490 -0.1438  0.1877
17778W        W33587  12.541  17.234  11.377  0.2495  0.1272 -0.0337
17779W        W33588  15.786   4.516   4.624  0.0646 -0.0864 -0.1772
17780W        W33589  10.066  14.744  16.571 -0.3768 -0.1182  0.0650
17781W        W33590  13.636  17.174   1.625  0.0162 -0.2995  0.0072
17782W        W33591   7.957   8.220   2.368  0.3503 -0.0141  0.0008
17783W        W33592  16.312  13.893   2.826 -0.2743 -0.1981 -0.1227
17784W        W33593  10.743   0.844  14.024 -0.2564  0.0310 -0.1232
17785W        W33594   5.610  16.522  15.191 -0.1934  0.1123  0.4771
17786W        W33595  13.602   1.521  13.354  0.3771  0.1020 -0.2489
17787W        W33596   8.301  17.065   4.127 -0.1343 -0.1138 -0.2223
17788W        W33597   0.677  14.029   0.569  0.1057  0.1992 -0.2178
17789W        W33598   1.428  11.631  14.198 -0.1578  0.2403  0.2625
17790W        W33599   5.226  15.679  16.390 -0.0718 -0.1903  0.2229
17791W        W33600  17.508  16.542  15.772  0.0979 -0.1906  0.0562
17792W        W33601  12.949   2.928   0.086  0.0493  0.0363  0.3946
17793W        W33602  14.854   2.569   5.407  0.0704 -0.0450  0.2127
17794W        W33603  10.934   4.077   2.683  0.0406  0.2200 -0.6113
17795W        W33604   4.868  17.379  16.095  0.4599 -0.0026  0.0085
17796W        W33605   4.229  10.122  15.878 -0.1698  0.1239  0.0606
17797W        W33606  17.365  17.027  13.861 -0.1852 -0.2505  0.1877
17798W        W33607   2.561   7.310  13.935 -0.0756  0.1978 -0.1537
17799W        W33608   2.824   4.587   1.609  0.1878  0.1968  0.0024
17800W        W33609  10.367   1.758   3.754 -0.0222 -0.0536 -0.1447
17801W        W33610   5.648  10.530  15.376  0.1571  0.1338  0.2353
17802W        W33611   7.834   2.372  14.296  0.0698  0.0972 -0.1264
17803W        W33612  17.010   9.610   2.008  0.2730  0.2459 -0.2542
17804W        W33613  16.437   2.508   4.537 -0.0540 -0.0536  0.0999
17805W        W33614   7.121   1.162   1.924 -0.1868 -0.1232 -0.3786
17806W        W33615   8.632  10.923  12.021  0.1970  0.3077 -0.1292
17807W        W33616   9.624   7.985  16.237  0.1193  0.1292  0.2123
17808W        W33617  11.495   4.163   4.579  0.2791  0.1487  0.2026
17809W        W33618   0.920   8.229  16.615 -0.0661  0.5648 -0.3765
17810W        W33619  10.201  15.138   0.874  0.2155 -0.0058 -0.1847
17811W        W33620  14.783   7.304   6.673 -0.0665 -0.3049  0.0138
17812W        W33621  11.921  15.992  14.944 -0.2151 -0.3866 -0.2773
17813W        W33622   9.107  13.238  13.139  0.0602  0.2347 -0.0086
17814W        W33623  13.645   3.601  16.649 -0.2077 -0.0386  0.2077
17815W        W33624  11.614  14.019  16.564  0.0963 -0.0920  0.0454
17816W        W33625   6.721  17.172   4.928 -0.1090  0.1687  0.1331
17817W        W33626  16.697  10.031   2.680 -0.1150  0.0678 -0.2412
17818W        W33627   8.618   6.966   2.108  0.1194 -0.1589  0.0299
17819W        W33628   8.320  10.728  11.149  0.0166 -0.1689 -0.0280
17820W        W33629  12.032   7.738  11.872 -0.1017 -0.0686 -0.0577
17821W        W33630   6.456  12.864   3.833 -0.1351 -0.2950  0.0880
17822W        W33631  13.156  11.123   3.950 -0.1875 -0.0245 -0.0015
17823W        W33632   8.474  10.937   4.270 -0.0375  0.1040  0.2766
17824W        W33633   2.366  16.868  15.889  0.2598 -0.0277 -0.0472
17825W        W33634   5.095   8.975   6.372 -0.0983 -0.1471 -0.2512
17826W        W33635   2.830   7.452   2.385 -0.1578 -0.0079  0.2176
17827W        W33636  16.806  12.558   3.613  0.1153  0.0300  0.1781
17828W        W33637   8.023  12.391  16.171 -0.0530 -0.0061 -0.0328
17829W        W33638  10.272  11.978   3.498  0.0223 -0.0959  0.1567
17830W        W33639   3.327  10.079   3.240 -0.0537 -0.0938 -0.1691
17831W        W33640  14.952  14.472   1.469  0.0394  0.3099 -0.1018
17832W        W33641   3.801   0.074  15.713  0.3097 -0.0833 -0.1037
17833W        W33642   2.010   2.786   3.515 -0.0844 -0.0157  0.0985
17834W        W33643   4.476  14.760  16.449  0.0780  0.1762  0.2893
17835W        W33644  15.586   4.151   5.497  0.0407 -0.0591  0.0915
17836W        W33645   9.796   9.725  12.472  0.0836  0.0719  0.2789
17837W        W33646  14.658   9.226   4.054  0.0490  0.1853 -0.1573
17838W        W33647  10.021  11.059  11.705  0.1756  0.0326  0.2852
17839W        W33648   6.688  12.287   5.115  0.0644 -0.0564 -0.3267
17840W        W33649   0.227  16.533   2.401 -0.0240 -0.0856  0.0460
17841W        W33650   1.271   5.532   0.791  0.0733  0.0696  0.1453
17842W        W33651  11.872   0.531   2.381 -0.2044  0.3883  0.1797
17843W        W33652  14.706   3.388  14.123  0.0767  0.2489 -0.3996
17844W        W33653  15.895  11.129   3.160 -0.4673 -0.3971 -0.2072
17845W        W33654  14.892   9.737  13.397  0.1633 -0.0256  0.0021
17846W        W33655   5.193   9.012  13.515  0.0410  0.2770 -0.4315
17847W        W33656  10.113   6.433  16.739  0.1503  0.0530 -0.1742
17848W        W33657  17.733   8.095   3.858 -0.0540 -0.2192 -0.2301
17849W        W33658   8.352  10.417   2.863  0.0658  0.0646 -0.1180
17850W        W33659   5.006   4.228   1.531  0.0695 -0.0461  0.1265
17851W        W33660   7.424   3.022  11.953 -0.0764 -0.3542 -0.0920
17852W        W33661   3.072   9.073   3.383  0.1042 -0.2349  0.2026
17853W        W33662  14.786   5.450  14.348  0.0242  0.3437  0.1991
17854W        W33663  15.442  17.445   2.865  0.1362 -0.0211 -0.2267
17855W        W33664   4.590   6.393   4.002  0.0351  0.3498 -0.2569
17856W        W33665   8.519  12.128   0.442  0.0866  0.3365 -0.0827
17857W        W33666  11.222   3.042   5.834 -0.1541  0.0269 -0.0491
17858W        W33667   6.320  17.121  10.899  0.1870  0.1417  0.2715
17859W        W33668   6.676  12.664   0.095  0.2185  0.3007  0.2036
17860W        W33669  14.832   5.444   1.037  0.1802  0.1809 -0.0496
17861W        W33670   0.566  14.810  13.036  0.0305  0.1608  0.1780
17862W        W33671   9.747  15.631  11.079 -0.1910  0.1323  0.2795
17863W        W33672  11.198   3.196   2.682 -0.1443  0.0631  0.0226
17864W        W33673   2.118  17.153  14.224 -0.0787  0.0264 -0.0635
17865W        W33674   7.108   7.746  12.050  0.0858 -0.0723 -0.2216
17866W        W33675   2.072   3.799  12.197  0.0227  0.0803 -0.0579
17867W        W33676  16.486   3.320  16.756 -0.0916 -0.0367 -0.0096
17868W        W33677  15.153   9.751  11.472 -0.0412 -0.3008 -0.3206
17869W        W33678  10.718  10.843   5.765 -0.2679 -0.1683  0.0098
17870W        W33679  13.226   2.302  13.157  0.3102  0.1088 -0.3358
17871W        W33680  11.231   7.509  14.913 -0.0365 -0.0372 -0.1638
17872W        W33681   6.602  14.188  11.784  0.2481  0.2201 -0.1709
17873W        W33682   0.576  15.106   2.600 -0.1438 -0.0448 -0.0124
17874W        W33683  10.116   5.664  15.126 -0.1454  0.2648 -0.0290
17875W        W33684  14.608   4.049   0.059  0.1184 -0.0352  0.0502
17876W        W33685  13.847   2.754   0.379 -0.0432  0.0653 -0.0686
17877W        W33686   7.373   0.072  12.206  0.0225  0.3717 -0.0618
17878W        W33687   9.681   5.237   1.090 -0.0259  0.0243  0.1701
17879W        W33688   4.632   9.529   5.709  0.2362 -0.1998 -0.3593
17880W        W33689   9.144   9.449   4.438 -0.2959  0.1724 -0.2056
17881W        W33690   9.545  14.155  15.548  0.1205 -0.0717  0.1558
17882W        W33691   5.579   6.981   2.891  0.2526  0.1353  0.0935
17883W        W33692  16.295   5.284  12.080 -0.2756  0.1239  0.0536
17884W        W33693  17.654   2.411   6.348 -0.2011  0.0399  0.3258
17885W        W33694   3.111   3.556   3.996 -0.0525  0.0923 -0.0796
17886W        W33695   4.739   3.283   4.104  0.0220  0.0621  0.0334
17887W        W33696   6.468   4.901  13.969 -0.2937  0.4620  0.2024
17888W        W33697   4.568   9.953  14.465  0.1185  0.2071 -0.1444
17889W        W33698   0.774  14.383   1.925 -0.2009 -0.0764 -0.0549
17890W        W33699   4.294  14.288   3.913 -0.2695 -0.2653  0.1859
17891W        W33700  15.310   9.459  13.284 -0.0342  0.3293  0.0890
17892W        W33701   8.682   7.981   0.243  0.3748  0.0000 -0.0164
17893W        W33702  10.438  10.169  13.129  0.1296 -0.0369  0.1269
17894W        W33703   2.941   2.278   6.646 -0.1290 -0.2432  0.0636
17895W        W33704  10.466  17.432  11.563 -0.0563  0.0401  0.1123
17896W        W33705  16.974   0.718   4.709 -0.2717 -0.1104 -0.2443
17897W        W33706   5.150  12.402   3.746  0.0744  0.0634  0.0245
17898W        W33707  17.565   4.474  16.157  0.0379 -0.4047  0.0730
17899W        W33708   3.026  10.724   5.642 -0.2285 -0.1960 -0.0389
17900W        W33709   1.797  17.424   0.854 -0.0444 -0.0127 -0.0029
17901W        W33710  10.745  14.478   3.890 -0.2280 -0.1797  0.0809
17902W        W33711  10.856  12.086  14.856 -0.1669 -0.2481 -0.1061
17903W        W33712  11.241  11.642   3.343  0.0469  0.0455  0.2315
17904W        W33713   8.014   7.608  11.502 -0.1524  0.0669  0.0380
17905W        W33714   0.368  15.711  12.225  0.0696  0.0072  0.1358
17906W        W33715   2.101   0.324   4.397  0.2419  0.1379 -0.1062
17907W        W33716  12.183   3.992  14.008  0.0465  0.0500  0.1161
17908W        W33717  12.274   2.945   0.795 -0.2145 -0.4469 -0.0141
17909W        W33718  15.397  11.982  16.656  0.1896 -0.0298  0.1401
17910W        W33719  14.254   5.331   5.566 -0.1331 -0.1518  0.0956
17911W        W33720  16.387  10.308   1.972  0.0019  0.2357  0.2589
17912W        W33721  13.254   6.118  15.945 -0.0009 -0.0693  0.1439
17913W        W33722   6.141  17.360  16.489  0.1378 -0.1404 -0.1754
17914W        W33723  15.768   6.489  12.731  0.0572 -0.0109  0.0500
17915W        W33724   2.170  14.153  15.958 -0.0849 -0.0622  0.2139
17916W        W33725   3.608  12.316  14.634  0.3174 -0.1028  0.3010
17917W        W33726   1.468  11.806   3.665 -0.1777 -0.1379 -0.1227
17918W        W33727  16.578   0.974  12.792  0.1340  0.1186  0.1796
17919W        W33728   5.117   0.703   4.985  0.1600  0.1289  0.1571
17920W        W33729  11.453   7.530   0.173  0.3503 -0.0779 -0.1707
17921W        W33730   2.747  14.803   2.782 -0.0784  0.0493 -0.1767
17922W        W33731  14.604   5.231  12.888  0.4446 -0.1080 -0.0267
17923W        W33732   4.697   8.471   3.774  0.2321 -0.1836 -0.0191
17924W        W33733   1.969   8.980   1.885 -0.1418  0.3260 -0.1029
17925W        W33734  10.033   0.084  11.524  0.2671 -0.2923 -0.0787
17926W        W33735  15.808   4.640  12.522  0.0062 -0.1824  0.2734
17927W        W33736  11.920  12.557  12.485  0.1456  0.0986 -0.1692
17928W        W33737  14.163   4.356  11.979  0.0137  0.0975 -0.0397
17929W        W33738   4.579   8.804  12.734 -0.2029 -0.1621  0.1140
17930W        W33739   1.282   3.244   4.024  0.1534  0.1692  0.1980
17931W        W33740  13.084  17.592   3.161  0.1411 -0.2429 -0.0618
17932W        W33741   6.070  17.154   0.031 -0.0346  0.3968 -0.1511
17933W        W33742   2.847  11.707  13.636 -0.0377  0.1338  0.0546
17934W        W33743  13.354   9.098   5.081 -0.0181 -0.1640 -0.1460
17935W        W33744   7.851   3.517  13.644  0.1775  0.1168 -0.1849
17936W        W33745   5.538   7.090   0.122 -0.4523  0.1119 -0.1914
17937W        W33746   1.327   1.334   2.672 -0.1914 -0.1889 -0.0986
17938W        W33747  10.902   0.947   0.105  0.0815  0.0077  0.3424
17939W        W33748   9.365  16.958  16.933  0.0316  0.1227  0.1923
17940W        W33749  14.964   2.811   0.457 -0.1284 -0.0455  0.1178
17941W        W33750   6.671   1.856  16.373 -0.1962  0.2782  0.0642
17942W        W33751  14.090  11.774  12.945  0.0130 -0.0781  0.1124
17943W        W33752   7.753   7.998   4.569 -0.0728  0.2996 -0.0548
17944W        W33753  13.199   5.055  13.156  0.1728  0.0147  0.1760
17945W        W33754  14.745  15.965   2.769 -0.1642 -0.1651  0.1917
17946W        W33755   5.691   1.934  12.915  0.2677 -0.0996 -0.1205
17947W        W33756  15.548   1.025   5.113 -0.1347 -0.0915 -0.0830
17948W        W33757   2.733  16.864   5.725  0.1377 -0.2942  0.0109
17949W        W33758  16.455   7.966   4.180 -0.0031  0.2986 -0.0089
17950W        W33759  16.513  16.728  15.534  0.2460 -0.1373 -0.0118
17951W        W33760  10.722   5.393  11.439  0.0194  0.3759  0.2700
17952W        W33761  13.637  16.250   4.265  0.0176  0.2087 -0.2759
17953W        W33762  11.792   1.840   0.389  0.3223  0.0780 -0.0904
17954W        W33763  12.619   4.613   2.691  0.0949  0.1354  0.0044
17955W        W33764   8.774  11.769   0.156 -0.1431 -0.2463  0.2568
17956W        W33765  15.540   8.693   1.371  0.1026 -0.1217 -0.0509
17957W        W33766   5.377   5.139  16.177  0.2100  0.2668 -0.0183
17958W        W33767  11.291   1.891  15.650 -0.1536 -0.0498 -0.0415
17959W        W33768   7.478  17.488  14.307 -0.0128 -0.0937  0.0836
17960W        W33769   0.303   8.298  14.520 -0.0716 -0.0423  0.2244
17961W        W33770   5.271  13.783  16.332  0.1507  0.0514  0.2246
17962W        W33771   2.755  11.797  16.182 -0.2930 -0.3566 -0.1518
17963W        W33772  13.415  17.115  11.918 -0.2341 -0.1862  0.0462
17964W        W33773  12.516   3.290  15.650  0.0808  0.1028  0.0532
17965W        W33774   2.504  12.007   1.803  0.2819 -0.0078  0.0292
17966W        W33775   8.578  13.192   0.027 -0.3876  0.0461 -0.0551
17967W        W33776  12.804   3.824   4.120 -0.0630  0.1748  0.3003
17968W        W33777   6.520  17.425  12.581 -0.2006 -0.1885 -0.1770
17969W        W33778   6.406   8.546   2.742 -0.3943 -0.0334 -0.1154
17970W        W33779   4.346  15.591   1.546 -0.1821  0.0708  0.1640
17971W        W33780  12.911   6.224   4.925  0.0534 -0.0143 -0.1912
17972W        W33781  14.927   2.024   5.654 -0.1386  0.1633 -0.0671
17973W        W33782   0.959   2.815   5.449 -0.2041 -0.1397 -0.0731
17974W        W33783   2.679   4.591   5.912 -0.2086  0.2358 -0.2778
17975W        W33784  14.557  12.370   5.236 -0.1250 -0.0778  0.0024
17976W        W33785  10.709   8.514   3.500 -0.0236  0.0216 -0.1582
17977W        W33786  12.352   8.139  12.199 -0.2147 -0.1954 -0.0857
17978W        W33787  14.416  10.983  10.938 -0.0623 -0.0337  0.0751
17979W        W33788   4.335  11.910   4.164 -0.0207  0.0563 -0.0788
17980W        W33789  10.366   7.019  15.234 -0.1136 -0.3891  0.0737
17981W        W33790  16.305   0.282  16.345  0.2380 -0.2859  0.0173
17982W        W33791  14.235  11.912  15.011  0.2179 -0.0682 -0.2302
17983W        W33792   8.280   7.989  13.131  0.0671  0.3808 -0.0543
17984W        W33793  14.443   6.842   3.114 -0.0627 -0.1229 -0.3571
17985W        W33794  10.501  12.882  11.445  0.0474 -0.0375  0.0189
17986W        W33795  15.513   9.880  14.090 -0.1923  0.4498 -0.1733
17987W        W33796   6.944  14.425   2.919  0.1491 -0.1690  0.0740
17988W        W33797  12.644   0.750  14.683 -0.1328 -0.2967  0.0902
17989W        W33798   6.470   3.430   1.288 -0.2526  0.2284 -0.1577
17990W        W33799  13.816  13.694   4.536  0.3578  0.2085  0.0552
17991W        W33800   1.719  15.853   3.078 -0.2119  0.0421 -0.0949
17992W        W33801   8.248  11.919  16.496  0.1005  0.1122  0.0740
17993W        W33802   4.646  11.209   1.682  0.4058 -0.0714 -0.0085
17994W        W33803  16.050  17.157   2.187 -0.0785 -0.0283 -0.1358
17995W        W33804  14.170  12.493   0.681 -0.0537 -0.1723  0.0043
17996W        W33805  13.262   5.477   1.501 -0.0973 -0.2210 -0.1468
17997W        W33806   9.241  17.491  14.549  0.2699  0.1524  0.0008
17998W        W33807   0.763  13.601  12.443  0.1323  0.0356  0.2148
17999W        W33808   0.118  12.079  11.477  0.1545  0.0658  0.0834
18000W        W33809   3.685  12.632   4.993  0.1930 -0.0704 -0.0722
18001W        W33810   1.092  17.030  16.222 -0.1150 -0.2923  0.4505
18002W        W33811   8.686   8.143   1.192 -0.0366  0.0353 -0.1466
18003W        W33812  13.537   1.675  12.352 -0.1140  0.1981 -0.1519
18004W        W33813   4.200   6.849  15.180  0.0973  0.0859 -0.2239
18005W        W33814  10.340  14.638   3.290 -0.1171 -0.0129 -0.2379
18006W        W33815  15.449   8.465  15.469 -0.0226 -0.0337 -0.1249
18007W        W33816  15.975   0.770  15.913 -0.0202  0.1970 -0.3444
18008W        W33817   2.711   1.816   3.264  0.0240  0.2498  0.2846
18009W        W33818  11.100  11.846  16.718 -0.1216 -0.0342  0.1001
18010W        W33819   1.165   8.939  11.612 -0.1273  0.0085  0.0503
18011W        W33820   3.702  16.626   4.112  0.1942  0.3111 -0.0573
18012W        W33821   5.840  11.526   3.924 -0.0295  0.2056  0.0064
18013W        W33822   5.141  10.857   6.275 -0.0182 -0.0509 -0.1578
18014W        W33823  14.044   7.769   5.015 -0.1495  0.0670  0.2267
18015W        W33824   9.287   9.684   5.549 -0.0093 -0.1291 -0.3489
18016W        W33825   9.483   3.419  11.376 -0.1346  0.0432  0.1211
18017W        W33826  15.414  13.253  10.532 -0.2090  0.0147  0.1921
18018W        W33827   4.650   1.758  12.515  0.3420 -0.1356  0.0525
18019W        W33828  14.760   6.324   3.122 -0.1423  0.1819  0.0903
18020W        W33829   2.548   8.035  12.408  0.2391  0.0661  0.0425
18021W        W33830  12.350   8.979  15.217 -0.1234  0.0420  0.2650
18022W        W33831  10.250   4.429   3.231 -0.0179  0.2825  0.1492
18023W        W33832   0.783   0.092   4.847 -0.0522  0.0730  0.0363
18024W        W33833  11.103  14.261   3.623 -0.2653 -0.0243  0.0479
18025W        W33834   2.895  12.786   2.861  0.2988  0.0235 -0.2888
18026W        W33835   6.481   6.152   2.073  0.0563  0.3402 -0.2007
18027W        W33836  14.893   5.958   1.554 -0.0850 -0.1034 -0.2667
18028W        W33837   8.929  14.984   3.268 -0.4156  0.1023 -0.0714
18029W        W33838   7.500   3.785  12.185  0.1242 -0.0465  0.1404
18030W        W33839   0.942  16.110  13.225 -0.0909 -0.1581 -0.1118
18031W        W33840   2.739  15.932   2.261 -0.1981  0.0711  0.2613
18032W        W33841   6.753   4.304   5.266 -0.1429 -0.1491  0.2396
18033W        W33842  14.433   8.517  15.230 -0.0472  0.0404  0.0142
18034W        W33843   2.527   6.679   5.172 -0.1118 -0.1683 -0.0645
18035W        W33844   7.297  12.209  13.320 -0.1960 -0.2540 -0.0647
18036W        W33845  11.397  12.928   3.245 -0.0085 -0.1304  0.1722
18037W        W33846   8.258  10.884  12.467 -0.2478 -0.1602  0.2592
18038W        W33847  17.434  17.397   2.497  0.0192  0.0527 -0.2331
18039W        W33848  15.786   4.251   2.181 -0.0052 -0.0522  0.1867
18040W        W33849   8.166   7.611   1.858 -0.1469 -0.0831 -0.1712
18041W        W33850  12.115   5.645   3.281  0.1842  0.2072 -0.0936
18042W        W33851   5.721  16.074  15.411  0.1222 -0.1309  0.2967
18043W        W33852   8.237   9.295  13.862 -0.0027  0.1503 -0.2455
18044W        W33853  15.826  10.396  14.818 -0.0963  0.2443  0.4390
18045W        W33854  13.360  12.730  11.941 -0.1049 -0.2556  0.1565
18046W        W33855  12.212   0.679   5.310 -0.0464 -0.1842 -0.1525
18047W        W33856  17.329   8.382   5.210  0.0791 -0.2686  0.1517
18048W        W33857  15.128   1.110   1.778 -0.2895 -0.4307 -0.0678
18049W        W33858  16.468   5.169   2.202 -0.1140 -0.3640  0.1669
18050W        W33859   0.755   0.419   5.355 -0.1329 -0.1734 -0.1041
18051W        W33860   3.809  14.463  11.984 -0.1217 -0.2065  0.0878
18052W        W33861   4.392  16.209  16.573  0.0086  0.2952 -0.0287
18053W        W33862  15.184   6.865   3.637  0.2810 -0.0732 -0.2555
18054W        W33863  16.628  13.431   4.144  0.1871  0.3561  0.2114
18055W        W33864  11.309  10.349  11.912  0.1243 -0.1810  0.1952
18056W        W33865  17.456   9.405   1.110  0.0975  0.2516 -0.3033
18057W        W33866   6.676   2.200   6.216 -0.0853  0.1404 -0.1431
18058W        W33867  17.502   0.296   0.855 -0.0451 -0.2828  0.1226
18059W        W33868  12.761   1.948   0.780  0.0121 -0.1248  0.2186
18060W        W33869   8.874  14.981   3.922 -0.1343 -0.0406 -0.0037
18061W        W33870  13.041  14.797   0.364 -0.0417  0.0430  0.3875
18062W        W33871   1.070   1.444   1.116 -0.0094 -0.2688  0.4100
18063W        W33872   5.010  14.241   2.735  0.0074  0.1482  0.2205
18064W        W33873  13.643  16.147  15.391  0.0986  0.0736  0.0951
18065W        W33874   9.507  14.531   2.064  0.2566 -0.1107  0.1343
18066W        W33875   5.896   5.519   5.926 -0.0385 -0.1519  0.1723
18067W        W33876   7.064  10.384  16.536 -0.0513  0.2248  0.0397
18068W        W33877  10.264   5.357   3.750  0.2674  0.2717  0.2513
18069W        W33878  11.877  12.765  13.620  0.0248  0.0394 -0.1703
18070W        W33879   0.900  12.993  15.423  0.0118 -0.1613 -0.2104
18071W        W33880   5.955  13.084   0.408  0.1524 -0.0157 -0.0497
18072W        W33881  17.211  13.922  12.254 -0.0899 -0.2273 -0.0144
18073W        W33882   6.064   8.408  12.378 -0.0922 -0.2252  0.0974
18074W        W33883   3.997  11.706   4.593  0.0565  0.0404  0.0620
18075W        W33884   7.704   6.470   2.080 -0.1253  0.0037  0.1741
18076W        W33885   9.788   2.145   1.253 -0.0089  0.0155 -0.2071
18077W        W33886   7.772   3.216  14.972  0.2918 -0.1192  0.0546
18078W        W33887   6.838   7.461   5.680 -0.0091  0.0091 -0.2283
18079W        W33888  15.002   1.962  16.219  0.2864  0.0124  0.0273
18080W        W33889  15.208  14.749   4.164  0.2676  0.1628 -0.2839
18081W        W33890   7.986  14.140  13.343 -0.0352  0.0054  0.0646
18082W        W33891   0.636   0.025   2.438 -0.0841  0.1100  0.1092
18083W        W33892   7.923   3.756   2.285  0.1325  0.2941 -0.0203
18084W        W33893  11.032   4.245  13.928  0.1017  0.2788 -0.3087
18085W        W33894   3.576   5.188  16.407 -0.1957 -0.1731  0.2926
18086W        W33895  10.237   1.541  13.557 -0.2470  0.1201 -0.1980
18087W        W33896   3.933   4.927   4.232  0.0838 -0.2326 -0.1372
18088W        W33897   1.268   3.245  13.567 -0.8867 -0.1318  0.3926
18089W        W33898   4.744   0.731  17.005  0.0578 -0.2901  0.0862
18090W        W33899  11.439   9.889   5.132  0.1652 -0.0771 -0.1461
18091W        W33900  15.062   4.833   2.217 -0.0468 -0.1724 -0.1467
18092W        W33901   9.477  15.061   3.555 -0.1732  0.3432 -0.2925
18093W        W33902   5.446   0.228   5.265  0.2258  0.0129  0.0448
18094W        W33903  17.489   9.620  14.179 -0.0071  0.1932  0.1838
18095W        W33904  17.171   5.783  14.454 -0.0522  0.4391  0.1015
18096W        W33905   2.464   5.293   6.009 -0.0645 -0.0548  0.1277
18097W        W33906   7.686  13.070   0.441 -0.0666  0.0844 -0.4203
18098W        W33907  15.239  12.365   1.536 -0.0011  0.0268 -0.3211
18099W        W33908  16.850  10.748   2.722  0.2208 -0.2736  0.0050
18100W        W33909  14.440  13.747  11.939  0.3193  0.0321  0.0509
18101W        W33910  10.606   3.502  12.893  0.0730  0.1142 -0.1544
18102W        W33911   1.765   6.616   2.780  0.1652 -0.2276  0.1081
18103W        W33912  15.442  15.456  13.047 -0.1323  0.2146  0.0935
18104W        W33913  14.502   9.488   1.026  0.0420 -0.0631  0.0178
18105W        W33914   2.499  13.549  15.996 -0.2086  0.2546  0.0417
18106W        W33915  11.841   7.976   3.672 -0.1702 -0.2875 -0.3509
18107W        W33916   4.714  16.357  16.224 -0.0349 -0.2387 -0.0464
18108W        W33917  11.035   6.542   4.042  0.1883  0.3073 -0.1388
18109W        W33918  13.492   9.197   2.139  0.2467  0.3124 -0.1870
18110W        W33919  13.730   7.457  16.300  0.1145  0.0314  0.0681
18111W        W33920   6.882   6.153  15.435 -0.3403 -0.4155  0.3320
18112W        W33921   3.315  14.614  11.903 -0.3316  0.2131 -0.2436
18113W        W33922   6.754   5.743   2.160  0.1694  0.2770  0.0497
18114W        W33923  15.308   8.633   2.906 -0.0306 -0.5142  0.0731
18115W        W33924   4.858  11.636   5.159 -0.0340  0.0125 -0.1276
18116W        W33925   8.643   3.172   3.134  0.1341 -0.0461  0.0675
18117W        W33926   7.455   9.257   4.776 -0.4324  0.1955 -0.0644
18118W        W33927  15.687   8.259   1.142 -0.0736 -0.3114  0.1096
18119W        W33928   3.016  14.298  15.565  0.2772  0.0754  0.0318
18120W        W33929   3.249   8.428  16.420  0.3276  0.0262 -0.2332
18121W        W33930  14.614   7.503  11.466 -0.0385  0.0602 -0.1262
18122W        W33931  14.374   6.804  12.598  0.0140 -0.2886  0.2183
18123W        W33932   5.930   3.189   3.484  0.0609 -0.5732 -0.1108
18124W        W33933   3.318  16.396   0.768  0.1805 -0.0184 -0.1971
18125W        W33934   5.668   8.853  15.673 -0.0313  0.0139 -0.2930
18126W        W33935   0.774  13.857   3.247 -0.0415  0.0241  0.0607
18127W        W33936   9.628  16.677   0.297 -0.1635  0.1468  0.1430
18128W        W33937   3.687  14.107   1.995 -0.0992 -0.1552  0.2525
18129W        W33938  12.870   0.732   3.306 -0.0912 -0.1136 -0.0729
18130W        W33939   1.574  12.187  11.762  0.1081 -0.1793 -0.0747
18131W        W33940   4.946   3.102  12.237 -0.1920  0.0756 -0.1046
18132W        W33941   2.321   3.625   5.783  0.0718 -0.0033 -0.0128
18133W        W33942  15.587   6.211   2.773 -0.2053 -0.2423 -0.1642
18134W        W33943  15.174  13.419   0.168 -0.1695 -0.1604 -0.0127
18135W        W33944   7.865  10.941  12.804  0.2133  0.0064 -0.0890
18136W        W33945  10.042   0.175   1.266  0.2237  0.0431 -0.2320
18137W        W33946  16.154  12.791  15.229  0.0187  0.0238  0.0913
18138W        W33947   9.139  14.242  16.807 -0.0373  0.2332  0.0821
18139W        W33948   3.016   4.987  14.896 -0.4486  0.1540  0.1757
18140W        W33949   1.568   6.464   3.705  0.0651  0.1723  0.1505
18141W        W33950   1.275   6.812  16.005  0.1379  0.1744 -0.0303
18142W        W33951   3.880  14.072   5.695 -0.0229  0.0900 -0.0817
18143W        W33952   3.136   4.381   3.858 -0.1716  0.0682  0.1663
18144W        W33953   9.865  16.998  12.777  0.1222 -0.0393  0.2126
18145W        W33954  12.872   0.850   4.555 -0.1403  0.2850 -0.1527
18146W        W33955   2.607   7.874   2.373 -0.1237 -0.2509 -0.1242
18147W        W33956   1.749   9.721  15.458 -0.3796 -0.0930 -0.0503
18148W        W33957   9.669  16.655   1.729 -0.2277  0.1670  0.1450
18149W        W33958   0.837  11.849  12.670  0.0601  0.1700 -0.2377
18150W        W33959   1.897   2.129   5.066  0.2678  0.1177  0.2503
18151W        W33960  10.043   1.925  11.716 -0.1019 -0.0912 -0.1327
18152W        W33961  11.623  16.763   0.432  0.0784 -0.0995  0.2667
18153W        W33962  15.210   5.637  13.409 -0.0483  0.0074 -0.1370
18154W        W33963   1.696   8.510   4.786  0.1206 -0.1111  0.1118
18155W        W33964   5.111   1.354   3.866  0.0953 -0.3066  0.1014
18156W        W33965   1.798  15.835  14.738  0.1408  0.0008  0.1069
18157W        W33966  14.551  12.189  12.365 -0.0945  0.1075 -0.2511
18158W        W33967  11.334   9.683   2.468  0.3036 -0.0481  0.2596
18159W        W33968   8.838   7.216  14.550 -0.0630 -0.1928  0.0193
18160W        W33969  10.282   3.269   4.774 -0.0671  0.0637 -0.1528
18161W        W33970  16.595   8.807   3.937  0.1279 -0.1650  0.2425
18162W        W33971  15.080   6.586   1.035  0.0310  0.1746  0.0110
18163W        W33972  15.243  12.426  16.868  0.2614  0.0359 -0.1645
18164W        W33973  12.380   1.031   1.104  0.0750  0.4435 -0.0992
18165W        W33974  12.176   4.916   0.745  0.0296  0.0458  0.1280
18166W        W33975  10.389   3.531   5.714 -0.0697 -0.2086  0.1331
18167W        W33976  17.357   7.603  14.671 -0.1251 -0.1379 -0.1551
18168W        W33977  10.647   7.917   5.723  0.2157 -0.0731 -0.2152
18169W        W33978  15.285  10.276  14.832 -0.1138  0.0282 -0.0483
18170W        W33979   9.581  14.990  15.767  0.0113 -0.0665  0.3586
18171W        W33980  11.208  14.099  11.135 -0.2358 -0.1541  0.0873
18172W        W33981   4.654  14.832   0.152  0.2522  0.2622 -0.4023
18173W        W33982   2.225  14.898   1.466  0.1222 -0.0266 -0.1390
18174W        W33983   7.869   0.554   2.678  0.0416 -0.1290  0.1266
18175W        W33984   5.441   8.835   1.734  0.2515 -0.2027  0.1652
18176W        W33985   2.881   0.268   3.663  0.2653  0.1030  0.0211
18177W        W33986   7.145  12.841   1.293  0.1745  0.1559 -0.0305
18178W        W33987   0.519   9.289   4.437  0.1916  0.0155 -0.0724
18179W        W33988  14.086   2.043  14.669  0.0368 -0.0370 -0.1026
18180W        W33989   9.332   7.875  14.954  0.0845  0.1474 -0.2195
18181W        W33990   6.446   5.147  12.226  0.0702  0.1980 -0.1119
18182W        W33991   0.223   8.084   4.311 -0.3107 -0.1223  0.1388
18183W        W33992  12.736  15.767   0.879  0.5024 -0.0742  0.0183
18184W        W33993   9.257   3.249  15.220 -0.0748 -0.1767  0.0158
18185W        W33994  11.826  13.442   3.973  0.1117 -0.2375 -0.1091
18186W        W33995   1.079  14.418   3.997  0.2386  0.0925  0.1322
18187W        W33996   4.127  17.347   1.434 -0.1545 -0.0091  0.1976
18188W        W33997   6.154  10.940  11.890 -0.0972  0.0759 -0.4701
18189W        W33998   8.595   5.650   0.289  0.0143 -0.0101  0.3376
18190W        W33999   2.508   6.323  11.865  0.2230 -0.1202 -0.2141
18191W        W34000  15.596  11.766  14.837 -0.0785 -0.0957 -0.1190
18192W        W34001   7.070  12.205   5.944  0.0828  0.1425  0.2566
18193W        W34002  13.398   5.496   3.422 -0.0231 -0.1523  0.1449
18194W        W34003   1.955   9.370  11.884  0.1288 -0.4489 -0.2775
18195W        W34004   4.660   9.934   2.980 -0.0935  0.3536 -0.1743
18196W        W34005   4.661   6.014  15.707 -0.1957  0.2103 -0.1680
18197W        W34006   3.943  17.178  14.897 -0.3376 -0.2217 -0.0898
18198W        W34007  15.383   6.678   0.541  0.1283  0.0612  0.2712
18199W        W34008  11.930   5.779   6.020  0.2251  0.0931  0.2668
18200W        W34009  14.472  12.166   3.266 -0.1074 -0.3198 -0.0388
18201W        W34010  13.272   6.255  16.469 -0.2008 -0.0913  0.1061
18202W        W34011  10.586  17.543  14.297 -0.2797  0.1166  0.0532
18203W        W34012   2.000  13.643   4.993 -0.1890  0.1457  0.0220
18204W        W34013  15.832  13.012   3.667  0.1940  0.0816  0.4114
18205W        W34014  12.875   1.818  15.633 -0.0445 -0.2289  0.1070
18206W        W34015  15.580   7.565  12.547  0.0415 -0.0021  0.2146
18207W        W34016  14.468   2.966   2.863 -0.0131  0.2351 -0.6223
18208W        W34017  16.835   0.380   2.528 -0.0198  0.1863  0.0857
18209W        W34018  11.575  12.468   5.115 -0.0949  0.2832  0.0222
18210W        W34019   3.101  15.530   2.222 -0.0168 -0.1172  0.0982
18211W        W34020   7.938   8.322   3.708 -0.0634 -0.1934  0.1500
18212W        W34021  15.332  14.616   4.588  0.0300 -0.1074 -0.0242
18213W        W34022  15.182   7.970  15.925 -0.3773  0.1712 -0.0149
18214W        W34023  11.576  12.162  11.751 -0.1327 -0.3028  0.3494
18215W        W34024  17.362   4.859  11.756 -0.1982  0.0114 -0.0457
18216W        W34025  10.028   9.412   0.109  0.0105 -0.0005  0.2166
18217W        W34026  13.532   5.836  15.039  0.1214 -0.1271 -0.2705
18218W        W34027   9.569   9.291   2.585  0.1446  0.3791 -0.0762
18219W        W34028   8.384  15.278   2.641 -0.0292  0.0044  0.2972
18220W        W34029   2.964  12.174   4.478  0.0435  0.0526 -0.0960
18221W        W34030   9.878   3.425  12.219 -0.1015 -0.0788 -0.0157
18222W        W34031  15.763   9.027   4.151  0.1624  0.3400 -0.0040
18223W        W34032   9.209  14.622   1.283 -0.0276  0.2962 -0.3814
18224W        W34033   6.551   3.713  12.041  0.0494  0.2261  0.1934
18225W        W34034   6.759   4.013   0.159 -0.1785 -0.1258  0.1258
18226W        W34035  15.853  17.334   3.207 -0.1082  0.1930 -0.1200
18227W        W34036   0.538   6.185  16.075  0.0637  0.0275 -0.5243
18228W        W34037   4.310  10.294   5.857  0.1111 -0.0908 -0.2255
18229W        W34038   5.219  12.706  14.249  0.0214 -0.1513  0.1947
18230W        W34039   9.633  12.979   1.325  0.0885  0.2160  0.1617
18231W        W34040  12.309   4.302  14.430  0.0946 -0.0813  0.1820
18232W        W34041  14.277   8.810   4.817 -0.1030  0.0089  0.3187
18233W        W34042   4.202   9.832   3.151  0.0143  0.0691  0.1152
18234W        W34043   5.649   3.561   3.645 -0.0682  0.1424  0.0036
18235W        W34044   2.665   2.385   2.518 -0.1707 -0.4905  0.2024
18236W        W34045   2.121  10.331  13.603 -0.1386 -0.5013  0.2256
18237W        W34046  16.608   6.889   0.438 -0.1467  0.2437 -0.0570
18238W        W34047  14.433  10.721   2.592 -0.0947  0.3017 -0.1429
18239W        W34048  17.209   4.177  15.913  0.4759 -0.0237  0.0843
18240W        W34049   8.012   4.163   2.611  0.1236  0.1837 -0.1653
18241W        W34050  11.709   4.910  15.774  0.0652 -0.0612 -0.0138
18242W        W34051   7.855  17.730  12.286  0.3052  0.1139 -0.2491
18243W        W34052   0.777  13.180   0.807  0.1111  0.1313 -0.0220
18244W        W34053   7.182  14.059  15.843 -0.1136 -0.0201  0.1020
18245W        W34054   6.469   4.803   4.512 -0.1141 -0.3090 -0.1153
18246W        W34055  12.128  14.519  14.735  0.0734 -0.2485 -0.1460
18247W        W34056   3.903   6.404  15.496  0.2637 -0.2678  0.0071
18248W        W34057  17.567   6.007  14.115  0.0155 -0.2269  0.0063
18249W        W34058  17.195  16.167   0.332  0.1944 -0.2063 -0.1557
18250W        W34059   7.367   6.921  15.206  0.0738  0.0094 -0.0692
18251W        W34060  11.799  10.061  11.837  0.3151 -0.0155  0.1662
18252W        W34061   3.143   7.537  12.053 -0.0424 -0.0031 -0.0184
18253W        W34062   1.506  11.530   3.230  0.1553  0.2683  0.0939
18254W        W34063   3.627  17.730  16.949  0.0303  0.0957 -0.1798
18255W        W34064  11.375   3.871  13.891 -0.2504  0.0147 -0.2992
18256W        W34065  16.024  13.105  16.141 -0.1440  0.1292  0.2484
18257W        W34066   5.071  17.595  13.670  0.1914  0.0905  0.2670
18258W        W34067  13.200   4.436   4.579 -0.1791  0.0220  0.1995
18259W        W34068   0.615   9.219   5.211 -0.0574  0.2940  0.1483
18260W        W34069   2.862  13.227  11.905 -0.0724 -0.0012 -0.1868
18261W        W34070  13.741  14.155   4.649 -0.1206  0.1955  0.0551
18262W        W34071   1.058  14.787   4.423 -0.0886  0.2483  0.0502
18263W        W34072   1.557  15.636  11.410  0.1525  0.0712 -0.0270
18264W        W34073  13.602   2.499   2.433 -0.1266  0.1924 -0.0218
18265W        W34074   0.794  13.422   1.246  0.1871 -0.0858  0.0967
18266W        W34075   8.376   0.577  15.352 -0.2626 -0.0014  0.0433
18267W        W34076   1.389   8.018  15.193  0.1349  0.0926 -0.0800
18268W        W34077  17.654  11.262   3.402  0.0693 -0.1053  0.0926
18269W        W34078  16.942   3.692  14.721  0.0867 -0.1036 -0.1609
18270W        W34079  17.046   2.418   3.819 -0.1593 -0.0584 -0.2502
18271W        W34080   1.489   8.038  16.892  0.0698  0.0538  0.2526
18272W        W34081  10.635   4.940  12.585 -0.0568  0.0773 -0.0227
18273W        W34082  15.875  11.942   0.740  0.0421 -0.2449 -0.0045
18274W        W34083  13.958  16.100   1.694 -0.0748  0.0748 -0.0808
18275W        W34084  11.326   6.654  16.873  0.1099  0.0892 -0.0687
18276W        W34085   1.908   2.857   6.147 -0.2376  0.0027 -0.3488
18277W        W34086   9.359  16.427  16.951  0.2806 -0.0167 -0.2758
18278W        W34087   7.088   2.455  15.026  0.2525 -0.0038  0.2587
18279W        W34088  15.574   9.233  14.211  0.1233  0.0256 -0.0256
18280W        W34089   4.662  17.523  11.620  0.0063 -0.2151 -0.0509
18281W        W34090   3.365  10.735  16.692 -0.2292 -0.2179 -0.2728
18282W        W34091  12.682  12.857   1.427 -0.1210 -0.1002  0.0382
18283W        W34092   8.736   5.315   2.615 -0.4380  0.1421  0.3390
18284W        W34093  13.153  16.870  11.581  0.0856 -0.0254  0.2402
18285W        W34094   5.318   1.792   5.837  0.2905  0.0432  0.3234
18286W        W34095   3.170  14.753   4.606  0.1806 -0.3652 -0.1510
18287W        W34096  13.832   9.569  15.590 -0.2624  0.1477 -0.0438
18288W        W34097  12.201   5.661   0.992 -0.1717 -0.0135  0.4122
18289W        W34098   4.353   8.438  16.344 -0.1214  0.1088 -0.0641
18290W        W34099   4.218  14.074  14.514 -0.2421 -0.0707  0.2803
18291W        W34100  15.288  11.249  13.170  0.1892 -0.0323 -0.1429
18292W        W34101  12.599   9.788  14.716 -0.3000 -0.0159 -0.0653
18293W        W34102   9.175   8.271   1.482  0.4788 -0.0016 -0.1348
18294W        W34103  10.315   5.012  16.309 -0.0099 -0.0032 -0.1989
18295W        W34104   9.410  12.023   3.331 -0.0938 -0.2062  0.4531
18296W        W34105  16.185   1.137  16.235  0.0401 -0.1043 -0.3690
18297W        W34106   8.362   6.668  15.331 -0.0436 -0.0489 -0.2957
18298W        W34107   9.135  17.119  12.508  0.0212 -0.2583 -0.2945
18299W        W34108  16.960   0.359   3.033 -0.2162  0.1084 -0.2313
18300W        W34109  11.520   2.884   0.397  0.0865 -0.0639  0.2741
18301W        W34110  13.402   3.025  15.670 -0.3158  0.0773 -0.1353
18302W        W34111   3.306   9.513   3.123  0.1082  0.0640 -0.0801
18303W        W34112  16.322  15.842   0.341 -0.0668 -0.0226 -0.1677
18304W        W34113   5.790   6.334  13.853  0.0502 -0.1098  0.0718
18305W        W34114   7.205   4.481   2.423 -0.1053 -0.1417  0.1037
18306W        W34115  10.749  10.801  14.572 -0.0123 -0.3134  0.0739
18307W        W34116   3.781   7.441  12.770  0.1410 -0.0366 -0.1181
18308W        W34117   5.813   2.363   3.076 -0.1634 -0.2403 -0.2328
18309W        W34118  16.218  14.298   3.084 -0.3409  0.0992 -0.0658
18310W        W34119   2.021   8.111   6.082  0.1024  0.1122 -0.1617
18311W        W34120   1.501  12.534  13.703 -0.0072  0.2943 -0.0132
18312W        W34121   7.368  15.728   0.678  0.2103  0.1338 -0.1381
18313W        W34122   5.600   4.998  13.499 -0.0668 -0.2707 -0.1025
18314W        W34123  11.986   7.022   4.896  0.1416  0.0931  0.3347
18315W        W34124  13.171   0.557  16.577  0.2997 -0.3365 -0.0524
18316W        W34125   4.633  13.351   2.295 -0.2905 -0.0402 -0.0478
18317W        W34126  17.242   8.917   1.884 -0.0677 -0.2799 -0.0739
18318W        W34127   5.204  14.456   1.339  0.3390  0.0155  0.0273
18319W        W34128   6.769  11.040   1.684 -0.0267 -0.2244 -0.3602
18320W        W34129  14.589   1.216  11.407 -0.0417 -0.0186  0.1172
18321W        W34130  12.489  12.213   1.715 -0.2063  0.1177  0.1190
18322W        W34131  13.632  15.922   1.078 -0.1638  0.0564 -0.1321
18323W        W34132  13.520   3.103   3.331 -0.2318 -0.0880  0.0453
18324W        W34133   0.756   5.312  12.395  0.1330  0.1869 -0.0854
18325W        W34134   3.831   6.068   2.014  0.0096 -0.0023 -0.1410
18326W        W34135   4.521  11.641  12.963  0.0563 -0.0737 -0.2023
18327W        W34136  13.092   5.615  15.036  0.0138  0.4582 -0.1369
18328W        W34137  17.388  10.799   2.557  0.0468 -0.1323 -0.0356
18329W        W34138   0.818  12.825  12.227  0.1724 -0.1402 -0.0717
18330W        W34139   0.792   1.477   5.250  0.3207  0.0337  0.4755
18331W        W34140   0.723  16.069   0.177 -0.2759  0.1507  0.0496
18332W        W34141   7.611  14.694   0.128 -0.0004  0.0688  0.0081
18333W        W34142  17.609   8.659  15.225 -0.2584  0.0383  0.0616
18334W        W34143   4.019   2.863  15.542 -0.1453  0.1187 -0.0088
18335W        W34144  11.547   2.946   2.421 -0.1257 -0.0857 -0.1529
18336W        W34145  10.192  11.495  13.545  0.1727  0.3462 -0.0871
18337W        W34146   2.272   2.077   4.101 -0.0816  0.3493  0.2770
18338W        W34147   1.874  14.845  15.802  0.2511 -0.1165 -0.0265
18339W        W34148  12.340  15.839  10.898  0.1637 -0.0120 -0.0591
18340W        W34149   6.834   2.255   1.179 -0.2425  0.0524  0.0927
18341W        W34150   6.751   0.382  10.652  0.0604  0.1638  0.3166
18342W        W34151   6.705  10.711   4.600  0.0076  0.2006  0.1327
18343W        W34152  17.089   8.698   4.015 -0.1684 -0.2333 -0.0886
18344W        W34153   6.862  12.257  14.671 -0.2117 -0.2206 -0.0257
18345W        W34154  10.005   9.888   2.124  0.0610 -0.0288 -0.2028
18346W        W34155   2.358  17.613   5.940  0.1860  0.0335 -0.1358
18347W        W34156  11.691  13.634   1.675 -0.0684 -0.1519  0.0756
18348W        W34157  17.145   4.292   4.355 -0.1265 -0.0797 -0.0556
18349W        W34158   1.936   8.342   3.394  0.0931 -0.2942 -0.0339
18350W        W34159  16.179   3.754   0.929 -0.0729  0.0964 -0.2234
18351W        W34160  16.040   0.412   4.808 -0.2709  0.0452 -0.0741
18352W        W34161   4.013   9.706  16.147 -0.0886  0.1747  0.0912
18353W        W34162   6.711  11.870   2.113 -0.4039 -0.1242  0.2291
18354W        W34163   9.813  15.590   4.628 -0.0351 -0.0012 -0.1463
18355W        W34164   0.088  17.291   0.392  0.3457  0.2102  0.1680
18356W        W34165  16.406  17.327   4.283  0.2555 -0.2177 -0.0264
18357W        W34166   5.318   8.567   1.268 -0.2250  0.2856  0.1324
18358W        W34167   3.143   8.494  14.308  0.0700 -0.0008  0.3479
18359W        W34168  15.250   4.623   3.864  0.0380  0.0570 -0.1857
18360W        W34169   0.098  15.958   1.317  0.1180 -0.0002 -0.0331
18361W        W34170   6.611   3.424   2.640  0.0646  0.2743 -0.0603
18362W        W34171  15.473   2.799  12.096  0.1786 -0.0700  0.2197
18363W        W34172   8.201  15.990  16.487  0.1633 -0.1599  0.2445
18364W        W34173   7.529  15.426   1.441  0.0674 -0.0448 -0.0432
18365W        W34174  14.211  12.832  13.535 -0.2442  0.0464  0.3515
18366W        W34175   2.722   6.607   2.675  0.1195  0.0958 -0.1192
18367W        W34176   6.443   8.043   3.589  0.2818  0.2986  0.4574
18368W        W34177   8.830   7.296   2.419 -0.0119 -0.0215  0.0690
18369W        W34178   1.327  17.233   1.023  0.2737 -0.0886 -0.1163
18370W        W34179  15.419  10.359   2.442  0.4097  0.2509  0.5636
18371W        W34180   8.063   0.974   2.927  0.0870 -0.0647 -0.1515
18372W        W34181  11.371  15.867  14.279 -0.0586  0.0221 -0.0668
18373W        W34182  16.546   8.906  15.979  0.3638  0.0258  0.3635
18374W        W34183  12.539   5.159   4.333 -0.2612  0.0149 -0.0099
18375W        W34184   8.993  12.389  16.553  0.1631  0.1522  0.1734
18376W        W34185   5.276   2.487   1.791 -0.0132  0.2264  0.0126
18377W        W34186   4.790   7.795  12.489 -0.0709  0.0436  0.0729
18378W        W34187   6.951  16.648  10.806  0.1465 -0.0369 -0.3930
18379W        W34188   1.767   7.760   2.351  0.2461  0.2033 -0.0813
18380W        W34189  14.472   0.720   4.455  0.0380 -0.3466  0.0255
18381W        W34190   3.325   0.298   1.491 -0.1161  0.1726 -0.1084
18382W        W34191  13.207   5.550  13.555 -0.2817 -0.1141 -0.1017
18383W        W34192   4.528   2.994  11.942 -0.1266 -0.0805  0.1527
18384W        W34193   4.198  13.694   4.779 -0.2644 -0.2095  0.0316
18385W        W34194   9.240   9.351   3.393  0.0252 -0.1780  0.1482
18386W        W34195   1.913   4.308   0.336  0.3439 -0.0410  0.1899
18387W        W34196  12.127   4.100   2.989 -0.3862 -0.1921  0.0567
18388W        W34197  15.769   0.345   2.480  0.2670 -0.0004  0.0151
18389W        W34198   0.671   5.207  11.562 -0.2626 -0.1685 -0.2160
18390W        W34199  10.834  13.628  13.712 -0.0498 -0.0475 -0.0063
18391W        W34200  17.701  17.350  12.472  0.1810 -0.3777  0.0112
18392W        W34201   8.602  17.658   5.218 -0.1501  0.1436  0.3558
18393W        W34202   2.245   2.807   0.496  0.0386  0.0635  0.0833
18394W        W34203   0.174  17.239  12.016 -0.0602  0.2302 -0.0100
18395W        W34204  16.153  11.415  12.301 -0.1277  0.1095  0.2194
18396W        W34205   4.747  15.999   5.256  0.4179 -0.1023  0.0300
18397W        W34206  17.600  15.757   4.265 -0.3136 -0.3548  0.1741
18398W        W34207  16.218  16.022   2.136  0.0647 -0.2577  0.2918
18399W        W34208   8.717   3.687  16.400 -0.3445 -0.3697  0.1341
18400W        W34209  13.697  11.341   0.280  0.1805  0.4241 -0.0428
18401W        W34210  11.036  14.409  11.643  0.1712  0.2281 -0.2575
18402W        W34211  13.069   4.941   4.285  0.1759  0.2007 -0.0203
18403W        W34212   9.460  11.243  11.830  0.0823 -0.1991  0.0239
18404W        W34213  13.597   1.657  16.393 -0.0109 -0.2474  0.1002
18405W        W34214  16.251   1.192   2.550  0.2788  0.1157 -0.4846
18406W        W34215   2.327   0.461   2.846 -0.4528 -0.1320  0.0887
18407W        W34216  10.394  16.541   1.633 -0.1224 -0.1692 -0.0720
18408W        W34217   5.027  14.193   3.222 -0.0632  0.3431  0.0613
18409W        W34218   5.725   4.323  13.050  0.0590  0.2680 -0.1835
18410W        W34219  16.311  10.401   0.558  0.2796  0.0200  0.2728
18411W        W34220   1.677   6.884  12.558 -0.3133 -0.0324 -0.0399
18412W        W34221   2.161  15.846   3.345 -0.1035  0.1346  0.0007
18413W        W34222   4.102  15.171   2.074  0.2231 -0.0111  0.1350
18414W        W34223   8.165   5.823  13.098 -0.1121  0.0090  0.1041
18415W        W34224   6.561   4.698   1.370  0.1420 -0.2716  0.1378
18416W        W34225   5.698   4.646   2.181 -0.2914 -0.1684  0.0996
18417W        W34226  10.066  10.577   2.651 -0.1619 -0.1182  0.0794
18418W        W34227  16.367  11.432   0.099  0.2366  0.1229 -0.0694
18419W        W34228   3.890  11.300  15.609 -0.2261 -0.1319  0.1480
18420W        W34229   3.126   8.919   5.668  0.0168  0.2439  0.0041
18421W        W34230  15.420  13.757  13.231  0.0593 -0.0882 -0.2007
18422W        W34231  11.981   9.988  13.186  0.2101  0.1677 -0.0183
18423W        W34232   6.658   6.483  16.771 -0.4711 -0.1662  0.0204
18424W        W34233  14.602   5.133   6.133 -0.2146 -0.1909 -0.2446
18425W        W34234   0.148   7.864   0.240 -0.0855  0.1714 -0.2858
18426W        W34235   4.515   6.178  12.731  0.2851  0.0098  0.0395
18427W        W34236   6.412  10.953   1.271  0.0160 -0.1272 -0.0928
18428W        W34237   1.847   0.188   2.869  0.4643  0.0501  0.0243
18429W        W34238  15.738   1.835   4.631  0.1926  0.1174 -0.0661
18430W        W34239   2.934  11.091  11.828 -0.2462  0.2219 -0.2301
18431W        W34240   1.567  14.529   2.395 -0.0264 -0.1580 -0.1085
18432W        W34241  15.854  15.138   1.539 -0.0769  0.2764  0.0015
18433W        W34242   7.700  15.744   1.836  0.0620  0.1886 -0.4030
18434W        W34243  15.700   8.609   2.464 -0.0264  0.1435 -0.0787
18435W        W34244   4.217  10.110   4.137 -0.1335  0.1799  0.2132
18436W        W34245   7.885  11.634   0.305  0.0648 -0.2108  0.0879
18437W        W34246   1.476   8.924  16.470 -0.1320 -0.3400  0.0130
18438W        W34247   2.937  14.206  13.201 -0.0458  0.0261 -0.3757
18439W        W34248   4.623   7.120  13.128 -0.0511 -0.1865  0.0180
18440W        W34249   0.332  15.830   0.410 -0.0315 -0.1988 -0.3322
18441W        W34250   3.243   0.311   0.026  0.2203  0.1618 -0.0275
18442W        W34251   0.797   6.649  12.191 -0.0461 -0.0398 -0.1891
18443W        W34252   2.888  13.952  14.097  0.1761 -0.1441  0.0444
18444W        W34253   6.394   0.594   5.005 -0.0872  0.2430 -0.0322
18445W        W34254   8.290   6.410   5.678 -0.0350  0.1300  0.0899
18446W        W34255   6.612  13.200   6.240  0.1430 -0.2324  0.0723
18447W        W34256   5.470  16.433  16.929 -0.0351  0.1015  0.0616
18448W        W34257   2.278   1.611  15.656 -0.0613 -0.2577 -0.0722
18449W        W34258   4.137   8.088  13.257 -0.1975 -0.0567 -0.0065
18450W        W34259   0.812  13.116   4.513  0.3149 -0.2969  0.1326
18451W        W34260   8.585  15.599  12.450  0.0854 -0.3948  0.0579
18452W        W34261   1.517   8.716   5.208  0.1817 -0.0617 -0.1181
18453W        W34262   7.898   9.911  11.760  0.0776  0.0146 -0.1581
18454W        W34263  11.265   1.244  16.841 -0.1316 -0.1639  0.2846
18455W        W34264  16.103  11.685  14.051  0.1243  0.1637 -0.1418
18456W        W34265  15.754   2.855   3.554 -0.0028 -0.3223 -0.0408
18457W        W34266   3.184   7.338  11.614 -0.4597 -0.2200 -0.2985
18458W        W34267   0.018   8.970  12.590 -0.1900  0.3064  0.2569
18459W        W34268  10.997  16.635  11.865  0.0529  0.2541  0.0942
18460W        W34269   0.278  13.912  13.312  0.0122 -0.2517  0.1226
18461W        W34270  11.254  16.729  12.731  0.4868 -0.0608 -0.0348
18462W        W34271   7.317   6.296   4.832 -0.1530  0.2122  0.4208
18463W        W34272   5.641   5.957   3.435  0.2440  0.1986 -0.2320
18464W        W34273   2.655   3.848  14.741 -0.0968 -0.0884 -0.0324
18465W        W34274   9.402  12.766   2.774  0.1098 -0.1801 -0.0081
18466W        W34275   0.894  16.528   4.816 -0.0736 -0.3690 -0.0215
18467W        W34276  16.122   3.515  12.065  0.0608 -0.0522 -0.0518
18468W        W34277  12.547   5.094  15.480 -0.5002 -0.0100  0.1250
18469W        W34278  17.188  17.509  15.769  0.2331  0.3562  0.1085
18470W        W34279  12.830  16.652   4.453 -0.2256  0.0868 -0.2460
18471W        W34280   9.908   4.433   0.546  0.1649 -0.1019  0.1491
18472W        W34281   4.484   6.967  11.909 -0.2046 -0.2029 -0.0142
18473W        W34282   3.909  12.559   5.519  0.3498 -0.1690  0.3347
18474W        W34283   2.698   2.618  12.211  0.3419 -0.0930  0.2631
18475W        W34284  12.975   5.145  14.698  0.3095  0.1621 -0.3150
18476W        W34285   2.003   1.453   1.439  0.0747 -0.1741 -0.0445
18477W        W34286  16.155  14.885   0.499 -0.2502  0.0239 -0.0116
18478W        W34287   2.018   2.950  16.019 -0.0633 -0.1890 -0.0663
18479W        W34288  12.246   4.041  12.320 -0.1352  0.0918  0.1839
18480W        W34289   4.278   0.163   4.370 -0.0422 -0.0540 -0.0061
18481W        W34290   9.513   1.192  12.362  0.2225  0.2825 -0.2772
18482W        W34291   7.750   6.493   3.349  0.2527  0.1611  0.2089
18483W        W34292   3.853   6.784  12.672  0.2524 -0.0563 -0.1593
18484W        W34293  12.313   6.377   0.513  0.1896  0.1308 -0.1522
18485W        W34294   0.336   8.545   0.419 -0.1014 -0.1170  0.0087
18486W        W34295   3.982   5.700   0.617 -0.0506  0.1283  0.2457
18487W        W34296   2.912  16.741  14.486  0.0423 -0.0497  0.2799
18488W        W34297   1.539  16.063  11.698 -0.0644  0.2433 -0.1131
18489W        W34298  14.716  15.323  12.916 -0.0285  0.2701 -0.1782
18490W        W34299   2.763   3.720   2.191  0.1735  0.2305 -0.3498
18491W        W34300   6.818  17.154  14.875 -0.0525  0.1658  0.1520
18492W        W34301  17.173   3.236  12.965  0.0800 -0.0223  0.0104
18493W        W34302   7.720  15.604   3.077 -0.1309 -0.1566 -0.1025
18494W        W34303  13.251  12.894   4.296  0.1026 -0.0429 -0.0102
18495W        W34304  10.514   2.035   0.084 -0.0627 -0.4436  0.0322
18496W        W34305  14.266  15.842  11.498  0.0756  0.3352  0.2374
18497W        W34306  11.173   3.298  16.114 -0.2861 -0.1205 -0.0972
18498W        W34307   8.823   6.221   4.620 -0.1946  0.1386  0.1317
18499W        W34308   6.047  15.580  14.289  0.1217  0.1373  0.1707
18500W        W34309   6.341   8.013  14.411  0.0138  0.2927  0.1494
18501W        W34310   9.990   4.566   2.701  0.0539 -0.2652 -0.2824
18502W        W34311   7.605   7.146   4.543  0.0170 -0.4211 -0.0194
18503W        W34312  10.088  14.814   4.020 -0.2903 -0.1112  0.0811
18504W        W34313   4.846   3.541  13.739  0.1188  0.0161 -0.0906
18505W        W34314   3.239   3.307   0.296  0.2523  0.0723  0.3106
18506W        W34315   8.026   2.931  13.388 -0.0693  0.3241 -0.0663
18507W        W34316   2.298  12.426   3.727  0.0873 -0.1666 -0.3810
18508W        W34317   1.366   5.073  13.807  0.1652  0.1470 -0.1005
18509W        W34318   9.103   0.164   1.058 -0.0054 -0.2384 -0.0582
18510W        W34319   7.389  13.931  11.546 -0.3186 -0.0938  0.1211
18511W        W34320  17.365   2.537   0.771 -0.1203 -0.0824  0.1588
18512W        W34321  13.677   7.163   1.975  0.2224  0.2631 -0.2914
18513W        W34322   3.765   2.256   0.940 -0.0401 -0.0102 -0.0299
18514W        W34323  10.044   1.051   1.597  0.1434  0.1690  0.0244
18515W        W34324   9.696  16.632   3.221  0.1310 -0.1841 -0.0631
18516W        W34325   6.053  13.804   4.436  0.0139 -0.4291  0.3209
18517W        W34326  11.987   2.837   2.065  0.0562 -0.3164 -0.3176
18518W        W34327   5.919   8.101  11.854 -0.0492 -0.0820  0.0761
18519W        W34328   1.950  11.023   4.708  0.2612  0.0941 -0.3807
18520W        W34329   0.097  13.921  11.000 -0.0133  0.1315  0.1332
18521W        W34330  16.052   8.214   1.769 -0.0489  0.1086 -0.1111
18522W        W34331  13.220  16.333  14.834 -0.2212  0.0297  0.2968
18523W        W34332  14.577  15.137   2.784  0.1041 -0.1733  0.0124
18524W        W34333  17.275  17.427  10.999  0.0025  0.1199  0.0748
18525W        W34334  10.112  16.482   3.531  0.1560  0.1067  0.2953
18526W        W34335   7.106   2.107  14.629 -0.1029 -0.1144 -0.0311
18527W        W34336   2.122   2.909   4.328 -0.3342  0.1028  0.0264
18528W        W34337   4.164  16.897  14.062 -0.2999  0.2038 -0.1060
18529W        W34338   8.360  11.210  10.070 -0.1014  0.1539  0.1725
18530W        W34339  15.857   9.118   3.645  0.0840  0.0893  0.0511
18531W        W34340   4.334  11.874  11.638  0.0974  0.0527 -0.0521
18532W        W34341  16.692  17.372   3.628 -0.3229 -0.2476  0.0383
18533W        W34342   2.105   9.263   3.459 -0.2005  0.1318 -0.0304
18534W        W34343   5.140   1.052   0.809  0.4500 -0.2560  0.1524
18535W        W34344   7.680   0.435  14.240  0.4734  0.0333 -0.2109
18536W        W34345  11.303  17.735   1.000 -0.8134  0.0122  0.4794
18537W        W34346   8.048   4.677  14.103 -0.0897 -0.0457  0.2072
18538W        W34347  11.710   1.420  15.052 -0.0356  0.1410 -0.0976
18539W        W34348   4.072   4.588  13.993  0.0035  0.0440 -0.1985
18540W        W34349  16.513   3.210   3.222 -0.0596  0.1725 -0.1259
18541W        W34350   8.551  14.049  14.751  0.0409 -0.2253 -0.2823
18542W        W34351  11.367   5.315   0.335  0.1045 -0.2385 -0.1220
18543W        W34352  13.224   3.692   1.255 -0.2720 -0.0627 -0.3048
18544W        W34353  15.782   0.035  14.383 -0.1273  0.0467 -0.0350
18545W        W34354  16.528  15.751   4.818  0.1264  0.4509  0.0025
18546W        W34355   0.205  13.260  15.955  0.2719  0.0274 -0.0077
18547W        W34356  13.711  17.564   0.051 -0.2094 -0.2769 -0.3772
18548W        W34357  15.119   1.192  14.733  0.0212 -0.0261  0.1475
18549W        W34358  12.930  11.079  11.210  0.0615  0.0685 -0.0885
18550W        W34359  17.723   6.033  12.197  0.1397 -0.1414 -0.0121
18551W        W34360  12.480   8.012   4.494 -0.0562 -0.1984  0.0125
18552W        W34361   3.672  12.450   4.221 -0.3686 -0.0882 -0.0526
18553W        W34362   3.233   8.261  15.314 -0.2757 -0.0927 -0.0790
18554W        W34363   6.857   8.313  16.347 -0.1340 -0.3773  0.0795
18555W        W34364   9.212   7.290  15.651 -0.0990 -0.0887  0.3842
18556W        W34365  15.696   3.932   0.895 -0.1514  0.0022 -0.1840
18557W        W34366  15.315  13.110   3.780 -0.1594  0.1055  0.1053
18558W        W34367  11.319   7.117   3.855 -0.2004  0.2797 -0.3017
18559W        W34368  17.232  13.019  14.866 -0.2405  0.3739 -0.0187
18560W        W34369   5.466  12.572   4.053  0.0568  0.1095 -0.0422
18561W        W34370  13.825   6.377   0.208 -0.0285 -0.2437 -0.1868
18562W        W34371  12.465   6.548  16.056 -0.3526 -0.1484 -0.0483
18563W        W34372  16.901  15.823   5.992  0.1439 -0.0705 -0.3315
18564W        W34373   0.528   6.569  15.360  0.0258 -0.0850 -0.3372
18565W        W34374  16.830   5.263   1.271  0.0608 -0.0717  0.2477
18566W        W34375   5.857   8.406   1.445  0.0495 -0.0321  0.0583
18567W        W34376  10.472   4.076   3.593 -0.1626  0.0266 -0.2367
18568W        W34377  17.112  13.264   1.484 -0.0553 -0.2673 -0.0530
18569W        W34378  13.692   6.268  12.371 -0.0093 -0.2263  0.1481
18570W        W34379  12.830   0.021   4.020 -0.2174  0.1273  0.0267
18571W        W34380   0.976  13.511  16.930 -0.2087  0.0331 -0.1590
18572W        W34381  11.587   0.346   0.087 -0.2522  0.2193 -0.2220
18573W        W34382   2.878   0.960   5.490 -0.1147  0.0675 -0.0337
18574W        W34383   6.356  12.722   2.582  0.0778 -0.0336 -0.1337
18575W        W34384  13.057   1.223   2.057 -0.0141  0.2937 -0.2282
18576W        W34385  16.132   8.116  13.635 -0.4219 -0.1991 -0.0561
18577W        W34386   6.645  16.130   4.403  0.2138  0.0607  0.1606
18578W        W34387  12.864  11.960  15.646 -0.2214 -0.1544 -0.0392
18579W        W34388   5.888   8.981   1.614 -0.1541  0.1421 -0.0023
18580W        W34389   4.065  12.179   4.532 -0.0663 -0.0623  0.2513
18581W        W34390   9.836  10.270  14.465  0.0407  0.2467  0.3985
18582W        W34391  16.966  17.268   4.116  0.0455  0.1903 -0.0385
18583W        W34392  14.102  17.676   4.599 -0.0763  0.1250 -0.1591
18584W        W34393   7.286   4.874   0.812  0.1698  0.0149 -0.0837
18585W        W34394   5.678  10.953  11.708 -0.0912  0.1435  0.1119
18586W        W34395   0.408  17.711  12.299 -0.0842  0.0673  0.0670
18587W        W34396   9.317  13.044   5.299  0.0175 -0.1323 -0.0265
18588W        W34397  13.880  15.818   2.155 -0.0675  0.0849  0.1340
18589W        W34398   9.831   1.880  13.038  0.2453  0.2226  0.2767
18590W        W34399  10.557   2.662   5.449  0.2541  0.1161 -0.1493
18591W        W34400   7.917  10.860  16.674 -0.3237  0.0566 -0.2476
18592W        W34401   4.064   7.495   2.800 -0.2047  0.0070  0.1531
18593W        W34402  17.122   1.221   3.170  0.0606 -0.1304  0.1038
18594W        W34403   3.873   9.865  13.539  0.2125  0.1487 -0.0280
18595W        W34404   5.884   9.347   1.273 -0.1167  0.3001 -0.4059
18596W        W34405   3.715   0.732   3.167 -0.0703  0.2924 -0.0885
18597W        W34406   0.816  17.536   1.030 -0.1142 -0.0800 -0.4517
18598W        W34407  13.521  12.568  15.599 -0.4479  0.1152  0.0741
18599W        W34408   3.466   8.146   0.668  0.1128  0.1225  0.0565
18600W        W34409   4.865   7.684  13.055 -0.2473 -0.0943 -0.0872
18601W        W34410   8.972  11.274   2.700  0.0537  0.0497 -0.1729
18602W        W34411  13.368   1.048  13.429 -0.1341  0.0460  0.0020
18603W        W34412  13.638  13.370   5.049  0.1230  0.1457 -0.3686
18604W        W34413   2.532  15.492  12.230  0.0196  0.2385  0.1342
18605W        W34414   4.507  10.970  13.625 -0.0948  0.3343 -0.3486
18606W        W34415  11.325   8.103   5.179 -0.1424  0.1154  0.0055
18607W        W34416   2.331   9.142   5.255 -0.0106  0.0586 -0.1827
18608W        W34417  10.793   7.615  12.708 -0.0128 -0.0988 -0.0700
18609W        W34418  11.027  15.132   0.001  0.1551  0.0007  0.2154
18610W        W34419   7.084   1.698  14.204  0.0849 -0.2013 -0.0758
18611W        W34420   1.283  16.051  12.433 -0.3584 -0.3227 -0.1266
18612W        W34421  10.172   8.360   1.688  0.1263  0.3181 -0.1524
18613W        W34422   0.323  10.422   2.632  0.0196 -0.0880 -0.0121
18614W        W34423  11.364   8.436   0.659 -0.1912 -0.0546 -0.0870
18615W        W34424   0.823  11.135  15.337 -0.0717 -0.0735 -0.3416
18616W        W34425  17.456   3.093   0.002  0.1842 -0.2013 -0.0709
18617W        W34426   1.584   7.684  15.625 -0.4323  0.2773 -0.3298
18618W        W34427  13.844   2.987  16.856  0.2713  0.1951  0.1925
18619W        W34428   7.559  10.822   3.911 -0.1349  0.0503  0.1800
18620W        W34429   7.696  14.350  15.120  0.1101 -0.2145 -0.3364
18621W        W34430   5.207  15.995  12.432 -0.2275 -0.0664  0.0062
18622W        W34431   8.023   3.427   3.658  0.0643  0.0867  0.0926
18623W        W34432   5.668  14.890   2.434 -0.1427 -0.1874 -0.1052
18624W        W34433   6.987   0.544   0.891  0.1979  0.1964  0.1217
18625W        W34434   1.706   8.177   4.345 -0.1565 -0.2193  0.0590
18626W        W34435  10.263   0.718  14.098  0.0484  0.1102  0.3120
18627W        W34436   1.436  15.184   2.448  0.1066 -0.0408 -0.1914
18628W        W34437   7.254   4.887  14.709  0.1276  0.3075 -0.0956
18629W        W34438   7.296   6.030   5.318 -0.0200 -0.0725 -0.2614
18630W        W34439   4.374   8.214  12.374  0.2607 -0.2006  0.4577
18631W        W34440   5.780  13.244  11.309  0.1713 -0.1211  0.0561
18632W        W34441  12.176  13.668   4.829  0.1530 -0.0582  0.0626
18633W        W34442  12.003  13.047  16.237 -0.0901  0.0901  0.1643
18634W        W34443  15.852   3.664   2.238 -0.0540  0.0234 -0.0765
18635W        W34444  15.806   4.999  16.197 -0.0951 -0.0533  0.0137
18636W        W34445  10.250  11.770   3.049  0.0235  0.0125  0.2420
18637W        W34446   5.941   1.930   1.876  0.4132  0.0533  0.1551
18638W        W34447  16.036   3.200   4.485 -0.2180 -0.1628 -0.2120
18639W        W34448  14.066   0.723  16.393 -0.2049  0.1001  0.3572
18640W        W34449  16.576  11.040  13.173 -0.1241 -0.2056  0.1998
18641W        W34450   0.250  15.592  12.714  0.3657  0.4293  0.1591
18642W        W34451   2.485   2.836   5.287  0.1139  0.0224  0.3055
18643W        W34452  10.423   4.075   2.181 -0.0041 -0.1010 -0.1641
18644W        W34453   5.135   0.983  14.078 -0.1267 -0.2902 -0.1627
18645W        W34454  12.287   8.054  15.618  0.0476  0.0506 -0.0325
18646W        W34455   5.274  10.540  12.981 -0.0164  0.1974 -0.0262
18647W        W34456   0.004  14.885   1.379 -0.0697  0.2272 -0.1072
18648W        W34457   4.833   2.469   4.923  0.2396 -0.0970 -0.1523
18649W        W34458  10.416   8.670   0.744 -0.3072 -0.1693 -0.0350
18650W        W34459  13.898   4.257   2.521  0.0668  0.3827  0.1296
18651W        W34460   5.067  16.496  15.250 -0.0657  0.0723 -0.0927
18652W        W34461  10.779  13.908  12.467 -0.1213  0.3170  0.1482
18653W        W34462   2.071   9.855   3.501  0.0230  0.2554 -0.0214
18654W        W34463  13.658  14.379   0.422 -0.1075  0.2253  0.0503
18655W        W34464   3.158   2.463   3.232  0.1734 -0.0800  0.0689
18656W        W34465   0.234   4.494   0.016  0.0347 -0.2701 -0.2212
18657W        W34466   5.213  17.436  14.159 -0.1736  0.0498  0.0661
18658W        W34467  17.189  10.671  11.779 -0.0975 -0.3689  0.1732
18659W        W34468  16.367  17.638   1.280  0.0008  0.0172 -0.1099
18660W        W34469  17.076   6.523  15.223  0.0304  0.2260  0.1811
18661W        W34470   2.102   8.035   1.587  0.2472 -0.0325 -0.0487
18662W        W34471   7.485   6.711  16.329  0.1951  0.1185  0.4893
18663W        W34472  15.887   1.498  11.865  0.0175  0.1347 -0.1311
18664W        W34473  13.822   1.404  15.380  0.0344 -0.1626  0.1273
18665W        W34474   7.022   6.214   2.934 -0.0041 -0.1513  0.0483
18666W        W34475  12.066   5.014  16.777 -0.3932  0.0258 -0.0986
18667W        W34476  15.351   0.019   1.664 -0.0742 -0.1139 -0.0382
18668W        W34477  10.002  12.641   3.281 -0.0338  0.0392  0.0711
18669W        W34478  10.509   1.095  12.359 -0.0596  0.2044 -0.3408
18670W        W34479   9.420  16.406  12.236 -0.0780  0.0120  0.0402
18671W        W34480   0.861   1.552  16.230 -0.1480  0.2963  0.0031
18672W        W34481  13.418   9.732  16.794  0.0103  0.0369  0.1050
18673W        W34482   3.162  14.821   3.139  0.0613  0.1274 -0.1564
18674W        W34483  15.358  13.741   1.113 -0.0905 -0.0505  0.0424
18675W        W34484   6.630   1.721   4.098 -0.1481 -0.4423 -0.0018
18676W        W34485  15.228  10.900  16.323 -0.2630  0.1337 -0.1398
18677W        W34486   2.680   4.035   0.114  0.0587 -0.0528 -0.2529
18678W        W34487   0.828   9.064  12.303  0.0655  0.0355 -0.1717
18679W        W34488  10.635   8.521  16.051  0.1605  0.2943 -0.2478
18680W        W34489  17.642  13.435  11.689  0.1671 -0.0927 -0.5063
18681W        W34490   1.608  15.592   2.320 -0.0829  0.0525 -0.3211
18682W        W34491   4.519   7.009   2.452 -0.1034  0.0375 -0.2000
18683W        W34492  13.850  10.684  14.800  0.2819 -0.1325 -0.2803
18684W        W34493   6.920  16.004  11.986  0.1438 -0.1008 -0.1820
18685W        W34494   4.493  13.316  15.053  0.0096  0.2760  0.1044
18686W        W34495  14.597  13.333  12.845 -0.1900 -0.1366  0.1901
18687W        W34496   6.926   3.463   3.427 -0.0726  0.0595 -0.0121
18688W        W34497  13.636   3.911  13.580  0.1511  0.3183  0.2212
18689W        W34498   9.647  16.087   4.739  0.0609 -0.1118  0.0226
18690W        W34499   3.417  14.211   0.626 -0.0662  0.0197 -0.1124
18691W        W34500  10.023   5.254  15.589  0.0743 -0.1144 -0.1150
18692W        W34501   3.237   1.854   1.767  0.0366 -0.2636 -0.0761
18693W        W34502   2.675   4.471  16.847 -0.0962  0.0854  0.3485
18694W        W34503  10.382  12.163   0.692  0.1677  0.0545  0.3502
18695W        W34504   0.037   4.997  13.285  0.1441  0.1178 -0.2853
18696W        W34505  15.298  17.338  16.028 -0.1305 -0.1265  0.1686
18697W        W34506  13.583   2.263  16.376  0.0888 -0.1628  0.3446
18698W        W34507   0.007   5.501  13.448  0.3413 -0.1927 -0.0232
18699W        W34508  14.538   5.931   4.923 -0.0032  0.0166  0.3129
18700W        W34509  16.891   5.698  12.268 -0.0263  0.0846 -0.1844
18701W        W34510  16.077  15.143   3.064 -0.0502 -0.1865  0.0687
18702W        W34511  15.398   8.096   4.131  0.1279 -0.1650  0.1431
18703W        W34512   3.066  17.653  12.862 -0.0313 -0.0055 -0.0767
18704W        W34513   3.758  10.306   3.974 -0.1078  0.1287  0.3612
18705W        W34514   4.816   1.606   4.711  0.1950 -0.0807  0.1594
18706W        W34515   2.529  11.445   3.425 -0.1115  0.0921 -0.0452
18707W        W34516   5.034   6.154   1.701 -0.1512  0.0852 -0.1549
18708W        W34517  10.521   0.093   3.036  0.0286  0.1307  0.2252
18709W        W34518  12.613  14.605   3.827 -0.0057 -0.0475 -0.1621
18710W        W34519  13.123   1.742   2.093  0.2076 -0.3052 -0.3133
18711W        W34520  11.972  15.168  12.430  0.1178 -0.2478  0.1492
18712W        W34521  14.296   3.709  15.485 -0.1692  0.1069 -0.1240
18713W        W34522  15.342  15.141   4.557  0.0000 -0.1773 -0.0727
18714W        W34523   7.554   1.892  12.022 -0.0482  0.0867 -0.0617
18715W        W34524  14.968  15.201   3.109 -0.0643 -0.1789  0.0574
18716W        W34525   6.689   4.733  15.991  0.0395  0.0674  0.0941
18717W        W34526  13.393   0.934   1.196 -0.0636 -0.0037  0.0442
18718W        W34527  12.681   9.412   0.396 -0.3913  0.1195  0.2031
18719W        W34528  10.985   0.473  15.617  0.0091  0.1402  0.0035
18720W        W34529  12.034   5.964   0.646  0.0705 -0.0851  0.1079
18721W        W34530  12.218  16.256   1.970 -0.1438 -0.2082  0.0826
18722W        W34531   2.180  11.414  12.867 -0.3859 -0.0331 -0.0828
18723W        W34532   4.975   3.671   1.743 -0.2674  0.0633 -0.2309
18724W        W34533  16.639  13.080   1.556 -0.0859  0.1115  0.0501
18725W        W34534  11.369   5.170  15.481  0.2535 -0.2327 -0.2134
18726W        W34535   5.230   6.134   0.685 -0.2289  0.1440 -0.1513
18727W        W34536  17.018  16.267   2.641 -0.0122 -0.3292  0.2649
18728W        W34537   6.168   8.223  13.565 -0.0795 -0.3324  0.2251
18729W        W34538   0.209  14.744  15.110  0.0628  0.0799  0.0435
18730W        W34539  11.506   9.524   2.905  0.1993  0.1264 -0.1135
18731W        W34540  15.033   7.648  16.460  0.1017 -0.1039 -0.0491
18732W        W34541  14.083   6.442   1.140 -0.0970  0.3759  0.1804
18733W        W34542  15.632   8.131  13.336 -0.2278 -0.2626  0.4916
18734W        W34543   1.989  13.442   1.169 -0.0041 -0.0222 -0.1306
18735W        W34544   2.638   9.699  16.749 -0.2958  0.1964  0.0971
18736W        W34545   6.555  17.522   4.245  0.1569  0.1566 -0.0456
18737W        W34546   7.860   5.445  15.509 -0.1906  0.1095 -0.2135
18738W        W34547   2.918   8.241   3.291 -0.0771 -0.2016 -0.2534
18739W        W34548   9.700  16.187  16.021  0.3161 -0.0882 -0.0199
18740W        W34549  15.427  11.384   1.998 -0.0365  0.1277 -0.1060
18741W        W34550  14.327   0.643   0.289 -0.0557 -0.2359 -0.1108
18742W        W34551  11.198  13.483   1.517 -0.1375  0.0349  0.2448
18743W        W34552  15.050  14.468   3.713  0.1902  0.1674  0.2550
18744W        W34553   1.230   3.723  12.902 -0.4319 -0.0329 -0.0546
18745W        W34554   5.211   8.050   2.142  0.2033  0.1848 -0.1050
18746W        W34555   5.174   8.626  12.673 -0.3205  0.0551 -0.3635
18747W        W34556   7.635   8.552   4.006  0.2990  0.4069 -0.1820
18748W        W34557  11.071   3.062   4.067 -0.3433 -0.0276 -0.1202
18749W        W34558   2.985  12.703  14.628  0.0598  0.2314  0.2202
18750W        W34559   1.655  16.931  12.179  0.2900 -0.0380 -0.1107
18751W        W34560   6.193   4.344  13.152 -0.2367  0.1122 -0.1120
18752W        W34561  11.478   7.121  14.254  0.4266 -0.0295  0.1096
18753W        W34562   9.868   8.116   3.508 -0.1415  0.1663  0.1727
18754W        W34563  16.794   8.674  14.204  0.1329  0.1234  0.1307
18755W        W34564  17.378   2.856  15.000  0.1603 -0.0860  0.3337
18756W        W34565  11.394   0.714   1.653  0.1212 -0.0119  0.2595
18757W        W34566   3.989   5.732   3.570 -0.0546  0.4333  0.0089
18758W        W34567  16.684   6.833  15.507 -0.1637 -0.1818 -0.0450
18759W        W34568   5.968   6.796  16.335  0.0208 -0.0873 -0.3649
18760W        W34569   4.174   4.960  13.121  0.0846 -0.0671 -0.2784
18761W        W34570   7.336   8.005  15.150  0.0827 -0.0947  0.2891
18762W        W34571   3.385   5.621  14.732  0.2151 -0.2209 -0.1897
18763W        W34572  10.638  12.542  16.482  0.0967 -0.2433 -0.0029
18764W        W34573   0.415  10.630   3.114 -0.2577 -0.3197  0.2538
18765W        W34574  14.074  13.736  14.966  0.0844 -0.0204  0.1971
18766W        W34575   3.036  13.355   2.082 -0.0471 -0.0277  0.0452
18767W        W34576   5.147   4.209  16.033 -0.1350 -0.1457  0.0400
18768W        W34577   4.129  11.935   1.955 -0.2489  0.3458  0.0038
18769W        W34578  12.837   8.499   0.859 -0.2714 -0.1734 -0.0796
18770W        W34579  12.802   5.912  12.354  0.0803 -0.1467  0.3431
18771W        W34580   2.594   8.090  13.964 -0.0540  0.4081 -0.1400
18772W        W34581   1.752  11.046   1.830  0.1943 -0.2215  0.3413
18773W        W34582  11.944  17.116  15.551 -0.0776 -0.3230 -0.0383
18774W        W34583   5.179   2.619   4.525 -0.2541  0.0459 -0.5283
18775W        W34584   5.078   4.677   0.583 -0.1183  0.1951 -0.1648
18776W        W34585   9.941  10.452   5.280 -0.1150  0.2497 -0.1105
18777W        W34586  16.107   8.881   3.229 -0.2398 -0.1962 -0.5418
18778W        W34587  10.317   3.051  16.297  0.3043 -0.1046  0.2253
18779W        W34588   6.938  12.571   4.527  0.3086 -0.0536 -0.2969
18780W        W34589   6.939  13.478   2.867 -0.1069 -0.1981 -0.0159
18781W        W34590  14.077  10.902  13.426  0.0646  0.2027  0.0192
18782W        W34591  13.337   0.260   3.974  0.0790  0.1239 -0.1545
18783W        W34592  12.861  16.511  15.683  0.1759 -0.0819 -0.2105
18784W        W34593   2.328   7.172  13.528  0.3095  0.1465  0.0206
18785W        W34594   0.266   5.076  16.765 -0.0724 -0.0228 -0.0021
18786W        W34595  11.412  15.247  13.604 -0.0060  0.0445 -0.1134
18787W        W34596   9.680  14.841   1.224  0.0339 -0.3274  0.1719
18788W        W34597   7.858  13.311  14.201 -0.2917  0.1488 -0.0577
18789W        W34598   8.277  17.060  15.390  0.1641 -0.2694 -0.2707
18790W        W34599  16.326   7.625   0.030 -0.0293  0.3047 -0.0787
18791W        W34600   8.602  11.190   5.653 -0.1158 -0.1719 -0.0500
18792W        W34601   0.422   5.778  13.314 -0.1532  0.0262 -0.2325
18793W        W34602   0.674   1.273   1.417  0.1361  0.2257 -0.1699
18794W        W34603  13.332  14.429   4.797 -0.1526  0.0768  0.0353
18795W        W34604  10.405   2.805  15.772  0.0119 -0.0743 -0.0162
18796W        W34605  12.494   0.272   5.115  0.1919  0.0223  0.0054
18797W        W34606  16.714   4.281   1.585 -0.2632 -0.0641 -0.1237
18798W        W34607   8.353   5.291  15.467  0.3443 -0.1357 -0.2551
18799W        W34608   2.600   6.798  13.118 -0.1088 -0.0615 -0.0040
18800W        W34609   3.717  13.368   0.714  0.2584  0.0932  0.0942
18801W        W34610  12.082   8.800  11.349 -0.0172  0.0087 -0.0633
18802W        W34611  16.079   1.188   0.385  0.1556  0.2493  0.0121
18803W        W34612   8.419   9.118   3.495  0.3077 -0.1679 -0.0550
18804W        W34613  16.212  13.089   3.373 -0.2577 -0.1397 -0.1654
18805W        W34614   7.663  17.694   5.043  0.5447  0.1913  0.0441
18806W        W34615   8.688  14.501  11.089  0.0404 -0.0162  0.1566
18807W        W34616  13.443   1.201  12.552 -0.0480 -0.3036 -0.1533
18808W        W34617   7.504  10.275   1.459  0.0901  0.1527  0.0627
18809W        W34618  13.519  16.680  14.592 -0.0243 -0.1959  0.0753
18810W        W34619   2.163  12.121   5.881 -0.1055 -0.2546  0.0940
18811W        W34620   6.460   5.569   0.130 -0.1156  0.0301 -0.0233
18812W        W34621  14.745   4.417   3.359  0.1108 -0.0782 -0.2901
18813W        W34622  14.006  17.308  16.753 -0.0518 -0.1275 -0.3195
18814W        W34623   7.091   5.231   5.028  0.1180  0.0164  0.1410
18815W        W34624   8.317   6.073  16.187  0.1464 -0.1559  0.2197
18816W        W34625   1.536  14.519  14.468 -0.0457 -0.2174  0.3200
18817W        W34626   4.998  10.988  13.767  0.4337  0.0456  0.1167
18818W        W34627   8.004   4.230  12.709  0.0058  0.0177  0.0393
18819W        W34628  10.433   6.521   3.886  0.1860 -0.1855 -0.1166
18820W        W34629   0.498   2.910  12.694 -0.3592 -0.1968 -0.0678
18821W        W34630  17.291   8.857  14.331  0.0061 -0.1401 -0.1750
18822W        W34631  10.146   7.263   0.140 -0.0913 -0.1697 -0.0666
18823W        W34632   7.696  14.324  13.730  0.0649 -0.1252  0.2306
18824W        W34633   9.189   2.720   2.764  0.0071  0.2990  0.1146
18825W        W34634   1.588   4.947   3.887 -0.0757 -0.0919 -0.0191
18826W        W34635  13.691   7.938  13.775  0.0167 -0.2043 -0.1050
18827W        W34636   5.410   7.814   4.739 -0.3092 -0.3111  0.2213
18828W        W34637   1.666  14.259  12.308 -0.0202 -0.0263  0.0238
18829W        W34638  15.725   4.436  16.278  0.1421  0.3686  0.1285
18830W        W34639  11.086   8.520  15.212  0.0841 -0.1576 -0.0227
18831W        W34640  16.105  13.565  14.394 -0.0017  0.0319 -0.0784
18832W        W34641  16.234  12.739   1.518 -0.0867  0.2266  0.0929
18833W        W34642   5.313   6.959  14.365 -0.1529 -0.1570  0.1589
18834W        W34643   2.361  16.227   3.750  0.0728 -0.0730 -0.0423
18835W        W34644   6.442  12.326  16.420  0.3126  0.2176 -0.1356
18836W        W34645  12.504   2.278   5.149  0.2145  0.2611 -0.0540
18837W        W34646   6.880  14.501   4.627  0.0152 -0.2672 -0.1722
18838W        W34647  13.431   1.893   5.406  0.0677  0.2631 -0.1195
18839W        W34648   4.994   5.403   1.776  0.1349  0.0625 -0.1223
18840W        W34649  16.513   0.933   6.007  0.2300 -0.0872  0.3012
18841W        W34650  12.915  12.474  15.352 -0.0714  0.1546  0.2897
18842W        W34651   1.589  17.287  15.376 -0.0215 -0.2306  0.0228
18843W        W34652   7.194   4.863  15.914 -0.3359  0.1204  0.0508
18844W        W34653   0.251   2.048   1.245  0.1476  0.2741 -0.3733
18845W        W34654  12.026  10.519  12.277  0.2919  0.1261 -0.0552
18846W        W34655   3.418  10.242  16.613  0.0874  0.1637  0.2626
18847W        W34656   0.963  13.500   4.183  0.0192 -0.2530 -0.4377
18848W        W34657   3.168  17.574  15.083 -0.2160  0.2727 -0.1347
18849W        W34658   3.130   9.845   2.784  0.0717  0.2027 -0.2552
18850W        W34659   5.014   5.305  14.246 -0.0334  0.2215 -0.3910
18851W        W34660   6.276  16.833  14.850  0.4497 -0.4047 -0.0077
18852W        W34661   1.553   7.846   5.230  0.0925  0.0698 -0.0457
18853W        W34662  10.083   3.711  13.896  0.1162 -0.1057  0.3148
18854W        W34663   9.016   9.897   0.619 -0.1138  0.0148 -0.0831
18855W        W34664   8.121   4.486   1.216 -0.1508  0.0004  0.0241
18856W        W34665   8.473  10.347  12.682  0.0150 -0.0342  0.0336
18857W        W34666   2.197   2.583  12.121  0.2954 -0.1376  0.0592
18858W        W34667  16.436   2.208  13.562  0.1106  0.3455 -0.1075
18859W        W34668   3.625  10.609  15.078 -0.0662 -0.0253 -0.0436
18860W        W34669   1.241  13.730   2.449 -0.2100 -0.1464 -0.0271
18861W        W34670  12.368   4.826  15.950  0.2000  0.0447  0.1885
18862W        W34671  11.796   5.706   5.566 -0.3826  0.1897 -0.0189
18863W        W34672   4.129  14.073   3.055 -0.0044 -0.2585  0.0400
18864W        W34673   5.664  15.192  16.339  0.0140 -0.0229 -0.1179
18865W        W34674   6.903  16.396  14.211 -0.0974 -0.0246 -0.0181
18866W        W34675  14.357   1.161  16.518 -0.0633 -0.2089  0.1408
18867W        W34676   5.624  17.214   1.609  0.1533  0.1052 -0.0542
18868W        W34677  10.094  10.450  16.301 -0.1113 -0.2524  0.2294
18869W        W34678   9.068   4.069   0.003  0.2962  0.0300 -0.1845
18870W        W34679   4.815   4.037   0.846  0.3435  0.0709  0.2022
18871W        W34680   6.928  14.120   1.087  0.0743  0.2744 -0.2414
18872W        W34681   0.741   5.911  13.687  0.1809 -0.1353  0.1289
18873W        W34682   0.462  16.729  15.276  0.1682  0.3624  0.3439
18874W        W34683   8.118  17.295  12.122  0.0041 -0.0937  0.1668
18875W        W34684   5.487  15.396   2.458  0.3432  0.1199 -0.1528
18876W        W34685  16.108  12.376   1.881 -0.2293 -0.0065  0.1021
18877W        W34686   7.296   9.734   0.783 -0.1533  0.0323  0.0025
18878W        W34687   8.006  16.347   0.583  0.0507  0.1271  0.0439
18879W        W34688  13.760   4.658   2.977  0.2816  0.1498  0.0101
18880W        W34689  12.705   6.367   2.811 -0.1086  0.1523 -0.1708
18881W        W34690  16.745  13.657  16.196  0.2826  0.0206  0.0228
18882W        W34691  11.001   1.289   1.369  0.1167  0.3057 -0.3300
18883W        W34692   9.664  12.921   0.614  0.0098  0.0090 -0.1041
18884W        W34693  16.936  14.321  12.060  0.1455 -0.3624 -0.2597
18885W        W34694   0.211  14.354  14.178 -0.0911 -0.3286 -0.3291
18886W        W34695  13.043  14.079  12.497 -0.2236 -0.0240  0.0126
18887W        W34696  10.403   7.378  12.967 -0.1654  0.0066 -0.0791
18888W        W34697   4.044   8.621  14.457  0.3634  0.0698 -0.0452
18889W        W34698  15.727   4.728  13.510 -0.0670 -0.0815 -0.2053
18890W        W34699   4.507   7.432  12.746 -0.1389  0.1085  0.2248
18891W        W34700  14.895  11.450   2.969  0.0592 -0.0692  0.0068
18892W        W34701   8.031   2.015  15.145 -0.0509  0.1026  0.1718
18893W        W34702   4.300   9.345   3.873  0.1451  0.1787  0.1662
18894W        W34703   1.552   9.028  14.032  0.0654  0.6196 -0.2142
18895W        W34704   0.418   9.792  15.557 -0.2325 -0.1851 -0.1395
18896W        W34705  15.532  10.972   5.090 -0.2350 -0.3377 -0.1726
18897W        W34706   6.999   0.331  15.482 -0.0926  0.0185  0.2191
18898W        W34707  17.521  10.858  11.444 -0.0972 -0.0493  0.0142
18899W        W34708  14.088   1.193   3.172 -0.2864  0.0959 -0.2436
18900W        W34709   5.285  13.182   4.217  0.0597  0.0805 -0.0680
18901W        W34710   0.547   4.632  15.335 -0.3658  0.0933  0.1217
18902W        W34711   0.617  16.058  15.187 -0.0693  0.1798 -0.0278
18903W        W34712  14.286   7.435  14.258 -0.1425  0.3564  0.0137
18904W        W34713  17.629  17.511  12.958  0.2023  0.1745  0.1250
18905W        W34714   1.602   1.561   5.677  0.2287  0.0413 -0.1862
18906W        W34715  10.108  16.210   3.972 -0.1637 -0.1900 -0.1205
18907W        W34716   5.782   0.025  12.915 -0.1470  0.0779  0.0956
18908W        W34717  15.063   2.017  14.581  0.2513 -0.0954  0.0650
18909W        W34718  14.848   8.624  13.436  0.1731  0.3084 -0.0477
18910W        W34719  10.955  12.651   0.973 -0.1195  0.2891 -0.2443
18911W        W34720   1.802  11.557  15.959 -0.1084  0.1188  0.1222
18912W        W34721  10.460  10.097  15.302 -0.0540 -0.2391 -0.0671
18913W        W34722   2.849  14.874  14.306 -0.2086  0.0273  0.1600
18914W        W34723  13.698  15.512  11.921  0.0478 -0.1849 -0.0896
18915W        W34724  16.864  11.997   0.611 -0.0180  0.0250  0.2171
18916W        W34725   1.685   4.655   0.003  0.3335 -0.1313 -0.1259
18917W        W34726   5.876  14.857  13.268 -0.0547 -0.0891 -0.0189
18918W        W34727  13.642  13.701   3.131  0.3034  0.0356 -0.4157
18919W        W34728   4.535   2.073  12.915  0.0817 -0.0779  0.2203
18920W        W34729   3.231  17.400  13.307 -0.0712  0.3310 -0.2252
18921W        W34730   9.858  16.687  16.086  0.0856  0.0822  0.1069
18922W        W34731  15.464  15.805  14.905 -0.3240  0.2171 -0.2725
18923W        W34732  14.363   6.721  16.176  0.1695  0.3479 -0.2309
18924W        W34733  15.007   5.694   0.580  0.1939 -0.0910  0.0731
18925W        W34734   4.754   4.885   3.322  0.1508  0.1095  0.0809
18926W        W34735  17.407   4.979   2.047 -0.1322  0.0711 -0.2774
18927W        W34736   7.933  10.610  13.865 -0.0549 -0.0960  0.2562
18928W        W34737  11.583   0.538  11.868 -0.1253  0.0891  0.1041
18929W        W34738   6.944  14.845  16.709  0.2680  0.0345  0.0026
18930W        W34739  13.454   3.548   3.532 -0.0387 -0.0375  0.2632
18931W        W34740  11.484   6.264   1.518  0.0997 -0.2462 -0.2457
18932W        W34741   4.445   0.090  16.409  0.2568 -0.1339  0.1176
18933W        W34742  14.189   7.348   2.324 -0.1400  0.3437  0.1033
18934W        W34743   6.916  10.622   0.555 -0.0115 -0.2551  0.1104
18935W        W34744   1.846   8.626  16.290 -0.0328  0.0401 -0.1988
18936W        W34745  12.526   8.135  15.088 -0.2018  0.2706 -0.0807
18937W        W34746   6.640   8.929   5.326 -0.1668 -0.1329 -0.0384
18938W        W34747  17.475  11.626  14.007 -0.3305  0.0890 -0.0409
18939W        W34748   0.136   5.927   5.568 -0.0763  0.1207 -0.2469
18940W        W34749   2.489   9.407  15.963 -0.1149  0.1952  0.0429
18941W        W34750   5.790   1.222   6.477  0.2259 -0.3371  0.0480
18942W        W34751  15.025   3.002  12.965  0.0585  0.1701 -0.2492
18943W        W34752  13.070  11.475  16.148 -0.1228 -0.1608  0.1198
18944W        W34753   4.207  14.697   1.067  0.2605  0.2235  0.1934
18945W        W34754  13.612   2.998   1.304 -0.1365 -0.1795 -0.2317
18946W        W34755  13.089   5.997   2.722  0.0953  0.0250 -0.0973
18947W        W34756   7.632  12.541   0.525  0.0125  0.0971  0.1385
18948W        W34757  10.364   2.524   4.231 -0.2639  0.0408 -0.1835
18949W        W34758  10.159  15.702   0.118  0.2833  0.3793 -0.2837
18950W        W34759  17.334  13.356   1.925 -0.1257  0.2469 -0.1242
18951W        W34760  15.931   5.695  14.658 -0.0475  0.1900  0.0124
18952W        W34761  14.617   0.972   1.283 -0.0565  0.0524  0.0086
18953W        W34762  12.317  16.764   2.024 -0.1112 -0.3129 -0.0140
18954W        W34763  12.878   4.376   4.986  0.1520 -0.1075  0.0591
18955W        W34764  14.649   7.106  16.077  0.1469 -0.1546  0.0515
18956W        W34765   8.169   1.005  15.616 -0.0089 -0.2395  0.1265
18957W        W34766   4.009   5.820  16.275 -0.0254  0.0756 -0.0355
18958W        W34767   6.967  17.181  12.798  0.1417  0.0212  0.1077
18959W        W34768  11.942  13.871   0.267  0.3091 -0.0954  0.1548
18960W        W34769   9.464  16.554  11.085  0.1441 -0.0727  0.2315
18961W        W34770   1.886   0.563  14.959 -0.2987  0.1718 -0.1075
18962W        W34771   8.340   2.286  14.251 -0.0597 -0.2558 -0.1986
18963W        W34772   2.611   7.433  15.676  0.1323  0.1297 -0.1078
18964W        W34773   5.338  16.086  15.055 -0.2146 -0.0025 -0.0272
18965W        W34774  15.439   4.672   1.249  0.1341  0.0847 -0.0049
18966W        W34775   1.877  15.025  15.361 -0.0023  0.3507 -0.1088
18967W        W34776   6.829   6.551   4.726 -0.1336 -0.3315 -0.1572
18968W        W34777   2.529   1.197   0.893 -0.2410  0.0809  0.0637
18969W        W34778   7.144   4.318   0.103 -0.5327  0.2335 -0.1239
18970W        W34779   6.969   3.337  12.868 -0.1506  0.0251  0.0317
18971W        W34780  10.700  17.335   0.695  0.0768 -0.2456  0.0050
18972W        W34781  15.937   3.955  13.277 -0.4258 -0.0620 -0.2769
18973W        W34782   7.139   8.424  15.306  0.1363 -0.0888 -0.0683
18974W        W34783   4.867   0.213  12.758  0.0999 -0.2549 -0.3710
18975W        W34784   3.460  15.578  15.851 -0.0129  0.2403  0.0980
18976W        W34785  15.920  14.279   2.589 -0.1548  0.1590 -0.2290
18977W        W34786   7.201  13.727  10.257  0.0064 -0.1233  0.2982
18978W        W34787   6.600   7.695  12.847  0.2055 -0.2277 -0.1517
18979W        W34788  10.536  16.781  13.679 -0.4002  0.0794 -0.0480
18980W        W34789   3.330   1.713  15.265 -0.0419  0.1373  0.1645
18981W        W34790   1.170   3.672  12.014  0.2726 -0.0565 -0.2462
18982W        W34791   3.849   1.765  15.749  0.2535 -0.2833  0.0009
18983W        W34792   8.514  14.203   3.592  0.0855  0.0993 -0.0602
18984W        W34793   9.115  17.291   3.369 -0.2350  0.2768 -0.1594
18985W        W34794   0.913   9.273  15.134  0.1005  0.2805  0.1832
18986W        W34795   2.085  12.605   5.877 -0.1207 -0.1634 -0.0566
18987W        W34796  13.068  15.277  12.991 -0.0919  0.1364 -0.2519
18988W        W34797   2.197  15.952  13.494 -0.0591 -0.0226  0.0291
18989W        W34798   9.486   4.037  16.358 -0.3884  0.0128  0.2733
18990W        W34799  13.116  16.160  12.980 -0.2311 -0.4424  0.2556
18991W        W34800  16.901  13.240  16.804  0.0821  0.0613 -0.0969
18992W        W34801   6.372   1.211   2.831  0.1123  0.0366 -0.0656
18993W        W34802   7.959   3.101  16.055 -0.0520 -0.2131 -0.0148
18994W        W34803   7.533   1.251   2.727  0.2279  0.1894  0.0019
18995W        W34804  14.660  11.954   4.952  0.0202 -0.0968 -0.1210
18996W        W34805   0.308  12.164   3.669 -0.2862  0.0279  0.1136
18997W        W34806  13.407   4.982   3.543 -0.1702  0.1537  0.0075
18998W        W34807  15.762  16.402  11.546  0.2747  0.1087  0.2745
18999W        W34808  13.893   6.670   2.956 -0.2431  0.0947  0.1351
19000W        W34809  13.030   3.468   3.225 -0.1635  0.3149 -0.1211
19001W        W34810   5.744  15.730  15.039 -0.0498  0.0048 -0.2408
19002W        W34811  10.628  12.406  12.709  0.1541 -0.0948  0.1369
19003W        W34812  17.253   0.177   5.341 -0.1382  0.0352  0.2401
19004W        W34813  10.194  15.292  13.497 -0.2144  0.2910 -0.2242
19005W        W34814  17.089   5.358  13.944  0.1832 -0.2821  0.0069
19006W        W34815   0.732  15.634  15.646  0.0734 -0.1250  0.2035
19007W        W34816  12.159   3.668   3.453 -0.0455 -0.0389 -0.1218
19008W        W34817   2.785  15.790   5.698 -0.0122 -0.2009  0.2561
19009W        W34818   8.146   2.196   5.358 -0.1456 -0.1420  0.2485
19010W        W34819  17.044   3.793  15.210  0.0232 -0.2186 -0.1009
19011W        W34820   9.378   8.067  13.374 -0.0114  0.1244 -0.3305
19012W        W34821   5.832   3.016  15.890 -0.1165  0.0793  0.1849
19013W        W34822   4.105  12.200  12.578  0.2173  0.2781 -0.1100
19014W        W34823  15.850   5.144   2.182 -0.0181 -0.2228  0.1527
19015W        W34824   8.286  15.746  16.066  0.1969  0.0789  0.0143
19016W        W34825  12.257  12.854  12.131 -0.0304  0.0657 -0.0204
19017W        W34826  11.391   6.173   0.321  0.5557 -0.1036 -0.0882
19018W        W34827  14.255  12.589  16.233 -0.2155 -0.2057  0.1960
19019W        W34828   6.097  16.927   2.866 -0.1462  0.2771 -0.1292
19020W        W34829   9.355   5.667  13.900 -0.4550 -0.2939 -0.1688
19021W        W34830   6.854   5.774  12.734 -0.0488 -0.1618 -0.2248
19022W        W34831  16.409  13.831   5.639  0.1188 -0.0396  0.1060
19023W        W34832   9.025  12.028   5.415 -0.1017  0.0528  0.1906
19024W        W34833  13.198  12.376  14.484 -0.0411 -0.1898 -0.0195
19025W        W34834   7.856  10.359   3.780  0.0060 -0.2045  0.2633
19026W        W34835   5.551  14.650   2.876 -0.1997  0.1620  0.0935
19027W        W34836   7.525   0.630  13.428 -0.0493 -0.1703 -0.3166
19028W        W34837  14.386   4.141  16.597 -0.0431  0.0203 -0.1701
19029W        W34838  17.024   3.498   1.946  0.0016 -0.0255  0.0781
19030W        W34839   9.746  11.336   3.733  0.3395 -0.1113 -0.3135
19031W        W34840  13.131  17.115  16.435  0.4059  0.2073 -0.0452
19032W        W34841  13.035   6.714  14.754 -0.0313  0.0098 -0.1932
19033W        W34842   4.879  15.502   2.737 -0.0561  0.1388  0.0036
19034W        W34843   7.354  11.742  12.462  0.2746  0.1016  0.2115
19035W        W34844   9.680   8.650  14.720 -0.0303  0.0702  0.1029
19036W        W34845  15.835   0.073   5.425  0.2958  0.0111 -0.2518
19037W        W34846  12.706  14.618   4.864  0.1509  0.2440  0.1224
19038W        W34847   6.256   0.723  16.804  0.1096  0.3605  0.0052
19039W        W34848  10.220   8.671  16.380 -0.3225 -0.2596  0.0717
19040W        W34849   7.588  10.010   3.512  0.0490  0.2505 -0.0383
19041W        W34850  10.393   2.043   1.331  0.0150 -0.0621  0.1158
19042W        W34851   1.070  15.375   1.175  0.3199  0.0598 -0.1782
19043W        W34852  15.684   0.001  11.963 -0.2667  0.1585 -0.3434
19044W        W34853  11.850   2.761  14.566 -0.2254  0.0854  0.2451
19045W        W34854   2.721   2.023   4.375  0.1892 -0.0651  0.0606
19046W        W34855   7.018  10.153  11.609 -0.3442 -0.3185  0.1771
19047W        W34856   0.467  17.066   4.142  0.3006 -0.3636 -0.0285
19048W        W34857  17.185   9.810  14.518 -0.0657 -0.0324  0.1622
19049W        W34858  11.460  11.330   5.747 -0.3622  0.1304  0.1901
19050W        W34859  13.141   4.714   2.671  0.1658  0.2037 -0.0094
19051W        W34860  11.827  14.745   4.665 -0.2268  0.1763  0.0797
19052W        W34861   8.368   3.900   3.765 -0.3175  0.1781 -0.6253
19053W        W34862   4.656  12.338   0.458  0.2538  0.1596  0.1632
19054W        W34863   1.390   7.549   1.641 -0.1076  0.3821 -0.1765
19055W        W34864   9.703   3.387   4.606 -0.0039  0.4054  0.1591
19056W        W34865   8.658   5.228  16.481  0.2141  0.1580  0.2247
19057W        W34866  12.615  10.344  15.365 -0.1556  0.1066  0.1179
19058W        W34867  16.136   1.193  14.200  0.1966  0.1081  0.0643
19059W        W34868  10.401  11.409  16.102  0.1569  0.1341 -0.0632
19060W        W34869   9.798   0.737   2.911  0.1737 -0.1466 -0.1918
19061W        W34870   3.265  14.083  11.802  0.4374  0.1376  0.1241
19062W        W34871   5.536   8.024   1.301 -0.2313  0.0502  0.2368
19063W        W34872   4.069  12.915  15.092  0.0909  0.0565 -0.1179
19064W        W34873  11.795  10.221   1.964 -0.2718  0.2480 -0.1715
19065W        W34874   3.567   1.833  12.097 -0.0587  0.1369  0.0072
19066W        W34875   1.805   3.348   0.953 -0.0356  0.0055 -0.0973
19067W        W34876  15.071  16.991   3.484 -0.0193  0.2795 -0.0147
19068W        W34877   6.017  16.935  15.851  0.0595  0.2706 -0.1216
19069W        W34878  15.102   2.582  13.320 -0.1526  0.3615  0.2011
19070W        W34879  16.744  16.347   5.154  0.1910 -0.2019 -0.1294
19071W        W34880   6.514   5.207  14.377  0.0324 -0.0718 -0.0311
19072W        W34881  14.968   9.403   2.260 -0.4517  0.0806  0.2143
19073W        W34882   5.108   7.873   2.732 -0.1301  0.0152  0.0712
19074W        W34883  12.014  10.913  15.055  0.1357 -0.1207  0.1374
19075W        W34884  10.475   0.143  11.301 -0.0546 -0.0451  0.2584
19076W        W34885   1.795  16.754  15.191 -0.0542 -0.1075  0.1159
19077W        W34886  15.408   5.037   4.090 -0.2903  0.2641 -0.0414
19078W        W34887   6.955  11.881  13.478 -0.0244 -0.1142 -0.1148
19079W        W34888   0.669  13.662   2.391 -0.1639  0.1974 -0.1643
19080W        W34889   2.753   9.645  11.716  0.2054  0.1060  0.1825
19081W        W34890   0.246  16.702  12.011 -0.0245 -0.2369  0.2420
19082W        W34891   1.921   4.465   1.412  0.0250 -0.2575 -0.0630
19083W        W34892   4.705   6.511  11.935 -0.0330  0.1925 -0.0029
19084W        W34893  13.913  12.687  15.898  0.2775 -0.0387 -0.3254
19085W        W34894  14.573  15.567  15.355  0.0330  0.0370 -0.2145
19086W        W34895   0.051  16.541  12.550 -0.2415  0.1764  0.2979
19087W        W34896  15.440   7.533  16.725  0.0884  0.0105 -0.2028
19088W        W34897   1.706  15.423  12.810  0.1906 -0.3653 -0.1141
19089W        W34898   1.041   8.731  12.587 -0.0029 -0.0413  0.1455
19090W        W34899   4.569  15.319   5.553  0.1563  0.0601 -0.0453
19091W        W34900  13.114   4.418  15.672 -0.0409 -0.1684  0.0492
19092W        W34901   6.603  15.335  10.635 -0.2423  0.1765  0.0269
19093W        W34902  14.720   8.665   1.697  0.3820  0.1465  0.4730
19094W        W34903  14.496   0.421   2.591  0.0782  0.0665 -0.1755
19095W        W34904  12.311   3.614   2.914  0.3218  0.2711 -0.2746
19096W        W34905  10.546  15.167   2.589  0.2211  0.1307  0.0070
19097W        W34906   5.517  11.583   4.322  0.3530  0.4478  0.2435
19098W        W34907  10.700   8.933   3.210  0.1800 -0.1115 -0.2166
19099W        W34908   9.366  15.253   3.086 -0.1131  0.0288  0.1172
19100W        W34909   2.890   7.669   5.652  0.0001 -0.1264 -0.0719
19101W        W34910  11.352  15.326  16.710 -0.0727  0.1790  0.0912
19102W        W34911  15.686  10.820  16.127  0.0464 -0.3541 -0.1267
19103W        W34912   7.594  16.165   0.911 -0.0285 -0.0402 -0.3305
19104W        W34913  13.312   0.004   5.730  0.1743 -0.0018 -0.1477
19105W        W34914  10.405  11.235   3.027 -0.0759 -0.2344  0.1620
19106W        W34915   1.715  12.858  10.544  0.0871  0.0216  0.1701
19107W        W34916  14.076  12.288  16.606  0.0612  0.1156  0.0837
19108W        W34917  11.799   8.165  15.633  0.1614  0.1021 -0.0936
19109W        W34918  13.681  17.327  12.874  0.0677 -0.0918  0.1030
19110W        W34919  15.713  12.879   5.083  0.0179  0.0498 -0.0755
19111W        W34920   3.681  16.175   1.223  0.1649  0.0409 -0.0272
19112W        W34921   2.474   9.455  12.626  0.1974 -0.0527  0.1081
19113W        W34922   4.112   8.687  12.352  0.0411  0.1454  0.3417
19114W        W34923  10.526   5.359  15.286  0.2293 -0.2489  0.1220
19115W        W34924   7.512  14.528  13.275  0.1357 -0.1542  0.0388
19116W        W34925  10.306   3.165   3.479 -0.2943 -0.1825  0.4434
19117W        W34926  16.999  10.401  15.948 -0.2535 -0.1511  0.4315
19118W        W34927  16.922   2.291   5.292 -0.0670 -0.1151 -0.1413
19119W        W34928   1.719   5.158   0.260  0.0772  0.1592 -0.1185
19120W        W34929  11.896   4.689  13.649  0.0588 -0.1743 -0.2251
19121W        W34930   3.994   0.764  15.641 -0.0208  0.1378 -0.3856
19122W        W34931   6.673   2.342  12.160 -0.3481  0.1479  0.0832
19123W        W34932  10.485   1.860   2.849  0.0880 -0.0440 -0.2136
19124W        W34933   4.835   0.439  14.017  0.0641 -0.0869  0.1248
19125W        W34934   9.208  17.277   2.364  0.1086  0.2055  0.2444
19126W        W34935   4.209  17.580  15.027 -0.1026 -0.0574  0.0002
19127W        W34936   9.600   1.605   2.533 -0.0855  0.1662 -0.0487
19128W        W34937  17.653   2.942   0.500 -0.0056 -0.1836 -0.0636
19129W        W34938   4.863  11.958   1.821 -0.0821 -0.2699  0.2342
19130W        W34939   1.104  17.246  16.678 -0.0406  0.1400 -0.0907
19131W        W34940   3.333  11.303   5.690  0.1174  0.4512 -0.1659
19132W        W34941  14.081   2.447   2.568 -0.3621 -0.2535  0.2477
19133W        W34942   0.051   3.927   1.938 -0.0931  0.1640 -0.0848
19134W        W34943   2.801   7.389  14.517 -0.2029  0.1724 -0.3515
19135W        W34944  16.924  17.118   1.710 -0.1364 -0.2200 -0.1772
19136W        W34945   0.708  14.172   5.479 -0.0788 -0.0284  0.3443
19137W        W34946   1.407   7.190  12.958  0.0247  0.1259 -0.5359
19138W        W34947   8.745   9.656  12.121  0.2859 -0.2089  0.0786
19139W        W34948   7.180  13.011   4.611  0.0035 -0.0062  0.0411
19140W        W34949  10.717   1.353   2.079 -0.3529  0.1300  0.2219
19141W        W34950   7.073   9.974   4.367  0.0413  0.0144 -0.0884
19142W        W34951   7.726  12.032   3.242  0.2461  0.1415  0.0478
19143W        W34952  14.956   5.275  15.743  0.1653  0.0763  0.0073
19144W        W34953   5.776  13.538   5.054 -0.1687 -0.0919 -0.3064
19145W        W34954   7.971  15.075   5.953 -0.0695  0.1417 -0.0271
19146W        W34955   7.751   3.195   4.132 -0.2033 -0.1026 -0.1321
19147W        W34956   7.609   9.560  15.661 -0.1999  0.4875  0.1464
19148W        W34957   0.967  13.809  12.044  0.1691  0.0670 -0.1132
19149W        W34958   2.907   7.956   6.384  0.1756  0.1049  0.1034
19150W        W34959   9.905   1.013  13.962 -0.1097 -0.0795  0.0246
19151W        W34960   1.663   6.047  15.948 -0.1915 -0.2486  0.1553
19152W        W34961   2.051   3.008   2.041  0.0712 -0.1127  0.2128
19153W        W34962   8.024   0.988   0.720  0.0145  0.0157 -0.1297
19154W        W34963  12.579   0.128  11.491 -0.0142  0.0176 -0.2034
19155W        W34964  13.874  13.523  16.763  0.1640  0.0981 -0.1195
19156W        W34965   6.383   9.106   5.850  0.0600 -0.0697 -0.2778
19157W        W34966  10.996   3.842  14.237 -0.1131  0.1454 -0.1482
19158W        W34967   9.849   1.296   4.237  0.1547  0.5385 -0.1527
19159W        W34968   0.994   0.991  16.186  0.0803 -0.1446 -0.0563
19160W        W34969   5.279   6.443  14.749 -0.0675 -0.1968  0.0904
19161W        W34970  11.088  14.840  15.274 -0.3217 -0.3550  0.2602
19162W        W34971   3.309  11.191   2.414 -0.0316 -0.1065  0.3071
19163W        W34972  13.517   4.344   0.618  0.0927  0.0330 -0.0388
19164W        W34973  17.423   7.591   5.813 -0.1711 -0.2157  0.0708
19165W        W34974   0.617   2.122   3.342  0.1682  0.0464 -0.0386
19166W        W34975   7.181  10.605   1.115  0.1558  0.1410 -0.0719
19167W        W34976  14.870  14.633  16.417  0.1689 -0.2527  0.0606
19168W        W34977  16.724   8.018  12.497  0.0525 -0.0433  0.4733
19169W        W34978   7.152   8.082  11.574  0.1392 -0.2350 -0.0573
19170W        W34979   3.899  17.326  15.800 -0.0815  0.0318  0.1442
19171W        W34980   1.432   3.192  14.587  0.2029 -0.0852  0.1434
19172W        W34981   1.302   1.981   2.687  0.1223 -0.0298 -0.1581
19173W        W34982   8.485   4.211   1.028 -0.0081  0.1474  0.0968
19174W        W34983  15.129   0.534   0.624  0.0138  0.1853 -0.0559
19175W        W34984   2.431   0.867   4.235 -0.0907  0.1191  0.0211
19176W        W34985   8.998   8.169   2.582 -0.3064 -0.1672 -0.0773
19177W        W34986   7.840  13.466  10.412 -0.0699  0.2600 -0.2507
19178W        W34987   6.476   7.915   0.033  0.0271 -0.1762  0.1847
19179W        W34988   4.993  16.821   5.673  0.1054 -0.3013 -0.1179
19180W        W34989  10.404  10.676   2.988 -0.0328 -0.0888  0.2628
19181W        W34990   2.753  17.647   4.057  0.0021  0.0368  0.1471
19182W        W34991  15.510  16.946   3.035 -0.1308  0.0481  0.2499
19183W        W34992   7.327   2.985   1.125  0.0947  0.0995  0.0567
19184W        W34993  10.567   7.030  13.734  0.1074 -0.2155 -0.0762
19185W        W34994   9.393   0.149  16.857  0.0535  0.0755  0.0190
19186W        W34995   1.828  17.194   2.949 -0.1955 -0.0089 -0.1436
19187W        W34996   7.040   1.625   1.765 -0.1383  0.0316  0.1609
19188W        W34997   1.859   9.185  15.575  0.1410  0.0834 -0.1254
19189W        W34998  16.642  17.198   3.143  0.0878 -0.1773  0.1258
19190W        W34999   3.921   9.388  16.533 -0.0327  0.1554  0.1081
19191W        W35000  13.665  14.396   2.506 -0.2236 -0.0353 -0.1237
19192W        W35001   7.234   3.663   1.738 -0.1971 -0.1001 -0.4840
19193W        W35002   6.797  14.471  10.357 -0.1699  0.3657 -0.1253
19194W        W35003  12.306   9.165  13.666 -0.0762 -0.2086  0.1578
19195W        W35004  14.548  12.166  16.424 -0.3156  0.1234  0.0303
19196W        W35005   8.872  17.585  16.723  0.1723  0.1080 -0.0595
19197W        W35006  10.108   7.861  14.020 -0.3394 -0.1626  0.2359
19198W        W35007  17.703  11.519  15.505  0.1524 -0.0936 -0.1809
19199W        W35008  16.755   6.544  16.515 -0.0494  0.0181 -0.1180
19200W        W35009  16.758   2.065   0.858 -0.2806 -0.0005  0.0480
19201W        W35010   8.146   0.495  11.635 -0.1690 -0.3895 -0.0858
19202W        W35011  16.518   9.629   4.517 -0.0159  0.0314 -0.2292
19203W        W35012   3.713  13.958  12.673 -0.0056  0.2498  0.0216
19204W        W35013  12.764  13.863  16.544  0.1293  0.1728  0.1631
19205W        W35014   7.284  10.957   3.214  0.0981 -0.2440 -0.2626
19206W        W35015  10.943   7.281   0.900 -0.0121  0.1957  0.0821
19207W        W35016  13.813  10.248   1.490  0.0987 -0.3173 -0.1904
19208W        W35017  10.523   0.108  12.828 -0.0569 -0.0286 -0.1490
19209W        W35018   9.821   7.761  11.794  0.0725 -0.4045 -0.3517
19210W        W35019  10.473   1.050  11.763 -0.1999  0.0701  0.0293
19211W        W35020   5.666   6.150  16.914 -0.0743  0.0917 -0.1064
19212W        W35021   6.894   6.100   3.915 -0.2829 -0.0897 -0.1902
19213W        W35022   5.693   4.961  13.979  0.2109 -0.0877  0.0292
19214W        W35023   8.076  15.170   3.859 -0.1344 -0.0021  0.3415
19215W        W35024   3.657   8.787   1.651  0.1861 -0.0969  0.2921
19216W        W35025  10.124  14.188   1.452 -0.0155 -0.0717 -0.0341
19217W        W35026  16.598   4.992   3.633  0.0070  0.0516  0.1624
19218W        W35027  15.482  17.458   2.100  0.0295  0.2260 -0.0860
19219W        W35028  10.589   3.489  14.527  0.2405 -0.2452  0.0172
19220W        W35029  15.531  10.380  10.664 -0.2932  0.1325  0.0657
19221W        W35030   4.568  10.351   5.360 -0.1432 -0.1872  0.1442
19222W        W35031   8.935  11.498  13.618  0.0723  0.0583  0.1103
19223W        W35032  10.044   7.422  12.075  0.1702  0.0940  0.2259
19224W        W35033   5.153   7.077   5.165  0.0664 -0.0774 -0.3601
19225W        W35034   7.805   6.282  15.477 -0.0013  0.0061 -0.3316
19226W        W35035  10.132   2.268   5.426 -0.1924 -0.0351  0.0146
19227W        W35036  14.845   7.296   0.408  0.2716  0.3751  0.0142
19228W        W35037  16.197   8.843   2.146 -0.1750 -0.0903 -0.1872
19229W        W35038  12.560  11.926  13.395 -0.1602  0.0967  0.4251
19230W        W35039   5.138  12.288   2.730  0.0188 -0.0390  0.2843
19231W        W35040   8.873   3.480  12.424  0.2176  0.1180  0.2263
19232W        W35041  16.527  14.288  14.997  0.2274  0.1096 -0.1415
19233W        W35042  15.807  11.961  14.346  0.1675 -0.0686  0.0665
19234W        W35043   5.283  15.485   0.369  0.0308 -0.0744 -0.3233
19235W        W35044   4.177   7.031   3.090  0.0282  0.1146  0.0071
19236W        W35045   4.923  16.729   4.568  0.0488 -0.0157  0.0550
19237W        W35046   6.124   6.341  14.316  0.1846  0.0285  0.0595
19238W        W35047  14.565   4.155   5.501 -0.0324 -0.2405 -0.0462
19239W        W35048  13.583   2.719  16.077 -0.0373 -0.0735 -0.0213
19240W        W35049  16.851   5.832   1.053 -0.1780 -0.1990  0.4236
19241W        W35050  11.284   8.056  15.080 -0.2667 -0.1091 -0.1147
19242W        W35051   4.666   9.342  14.336 -0.2305  0.3522 -0.0269
19243W        W35052  11.864   4.956   1.100  0.0516 -0.2747 -0.1409
19244W        W35053   3.082   7.371  15.469  0.2725  0.2215 -0.0303
19245W        W35054   8.886   4.741   3.437 -0.3372 -0.1687 -0.1569
19246W        W35055  14.677  10.810   0.860  0.0453  0.0904 -0.0808
19247W        W35056   3.436  10.385  16.138 -0.1349 -0.2380 -0.2251
19248W        W35057   6.785   6.287   6.574  0.0103 -0.0033  0.0409
19249W        W35058  11.604   7.643   4.444 -0.1116  0.0719 -0.0910
19250W        W35059   9.135   3.282  11.968  0.0748 -0.3632  0.2180
19251W        W35060  15.676  16.962  14.138 -0.2390  0.2581  0.0064
19252W        W35061   0.337  11.109  15.695  0.0360  0.3684 -0.2136
19253W        W35062   8.913   2.245  15.241 -0.0100  0.0333  0.0704
19254W        W35063  16.100   2.002   2.794  0.1906  0.1133 -0.3464
19255W        W35064  12.937  11.612   1.909 -0.2230 -0.0275  0.3980
19256W        W35065  12.286  10.321   1.685 -0.1184 -0.3413  0.0758
19257W        W35066  13.671  17.022   5.348  0.1739  0.0039  0.0300
19258W        W35067  15.557  10.192   0.211  0.1299  0.0692 -0.1837
19259W        W35068   1.851   5.257   5.987 -0.0529  0.0109  0.2919
19260W        W35069  15.088   9.202   4.667 -0.0743 -0.1856  0.0159
19261W        W35070   4.432   2.261  16.126 -0.1805  0.2220 -0.2394
19262W        W35071  10.178   0.610  11.490 -0.0941  0.1288  0.5038
19263W        W35072   5.143  10.444  10.731 -0.2355 -0.1325  0.0507
19264W        W35073  10.451   7.428  15.981 -0.0880  0.2048  0.4476
19265W        W35074   7.641  14.742   2.627 -0.0984  0.0935 -0.0849
19266W        W35075   5.918  17.090   2.398 -0.1069 -0.1155  0.1181
19267W        W35076  17.661   6.651  16.090 -0.1153  0.0472  0.0599
19268W        W35077  11.495   5.272  11.977 -0.0714  0.3995 -0.0855
19269W        W35078   1.255  16.684   0.971  0.1191 -0.3070 -0.1826
19270W        W35079   5.691   6.287   4.664  0.1305 -0.1276  0.0709
19271W        W35080   9.941  12.579   2.772 -0.2059  0.2087 -0.0781
19272W        W35081  14.318  10.783   0.498  0.0002 -0.0602 -0.0197
19273W        W35082  16.735   8.626  15.564  0.1779  0.0744 -0.1670
19274W        W35083   9.611  17.700  11.856 -0.1133  0.1567 -0.0764
19275W        W35084  10.960  10.194   4.482  0.2139  0.1431 -0.0153
19276W        W35085   9.079  13.677  11.795 -0.1925 -0.2269  0.1434
19277W        W35086  10.048   7.329   6.301  0.2530  0.1247  0.1016
19278W        W35087   1.697   0.389   6.247  0.0381  0.3681  0.0067
19279W        W35088   9.419   8.907   5.156  0.2183  0.0471 -0.1564
19280W        W35089   2.584   0.504   3.247 -0.4245 -0.0418  0.1297
19281W        W35090   1.836  15.920  16.873  0.0759 -0.1205  0.4895
19282W        W35091   3.397  16.508  11.978 -0.0414 -0.2175 -0.1548
19283W        W35092   0.110  15.910   3.241  0.1067  0.2838 -0.0649
19284W        W35093  17.630   9.382   6.094 -0.1574 -0.1317 -0.2114
19285W        W35094   5.305  10.443  14.465  0.3345  0.0483  0.1309
19286W        W35095  13.559  16.438   4.713  0.0459  0.5080 -0.0347
19287W        W35096   1.336   6.078   0.202 -0.0816  0.1161  0.1511
19288W        W35097  10.574  16.649  16.686  0.0961 -0.0650  0.3274
19289W        W35098  15.592   5.825   4.831  0.2994 -0.1918  0.0042
19290W        W35099  14.708   2.348  13.522  0.0640 -0.0508  0.1952
19291W        W35100   6.119   8.631   4.792 -0.0678 -0.0105 -0.1730
19292W        W35101   6.680   4.122  13.855 -0.2055 -0.0742 -0.0094
19293W        W35102  11.101   4.198   4.096 -0.1119 -0.2923  0.1721
19294W        W35103  11.456  13.153  16.203 -0.0433  0.0233  0.0779
19295W        W35104   3.487  13.379   5.096  0.2672 -0.2506 -0.1954
19296W        W35105  14.705   9.949   1.114  0.0939  0.2541 -0.2356
19297W        W35106  13.982  13.262  15.183  0.0036 -0.0180  0.0858
19298W        W35107  16.262  13.776  16.591  0.1773  0.0177  0.2045
19299W        W35108  14.186   6.275   4.245  0.0519  0.1722  0.1490
19300W        W35109  17.585   7.113   0.093 -0.0867 -0.1937 -0.2481
19301W        W35110   6.875   9.131  13.932 -0.1072  0.0865  0.1976
19302W        W35111  13.155   8.114   5.622  0.1853  0.1549 -0.0485
19303W        W35112  16.418  16.951  12.687 -0.0847  0.2889 -0.0831
19304W        W35113   3.213   6.032   3.884 -0.1269  0.2843 -0.1484
19305W        W35114  13.319   3.544  12.444  0.0754 -0.0667 -0.0166
19306W        W35115   4.215   5.001   0.629 -0.1344  0.0956  0.2714
19307W        W35116   2.130   3.564   3.976  0.0238 -0.0322  0.1910
19308W        W35117  10.830   3.193   4.559 -0.2115  0.0931 -0.0113
19309W        W35118  14.821   1.097  13.755  0.3062  0.1678 -0.0500
19310W        W35119   7.261  14.847  16.176 -0.1581 -0.0800  0.0663
19311W        W35120  16.782   1.795   1.978  0.2750 -0.1620  0.0760
19312W        W35121   1.717   4.002   4.179 -0.0789  0.0839 -0.0785
19313W        W35122   1.063  17.676   3.913  0.0466 -0.2381  0.1166
19314W        W35123  14.152   1.582  16.247 -0.1438  0.0248 -0.0847
19315W        W35124   7.197  11.494  14.437 -0.3959 -0.0125  0.0194
19316W        W35125   0.822   7.993  11.453  0.1030 -0.2500 -0.0605
19317W        W35126  16.879  11.957  13.579 -0.2974 -0.0094  0.1263
19318W        W35127  11.355   6.083   4.713  0.1959 -0.0579  0.3270
19319W        W35128  11.940   9.118   4.202 -0.1145  0.3407 -0.1217
19320W        W35129   5.377   1.891  12.157  0.1484  0.1627  0.0641
19321W        W35130  14.268   5.200   2.485 -0.0238 -0.1840  0.0606
19322W        W35131   0.121  17.363   4.342 -0.2071  0.1417 -0.0395
19323W        W35132  16.756  12.349  16.326 -0.1926  0.0759 -0.0340
19324W        W35133   1.093   6.723   3.717 -0.1207  0.0202  0.2308
19325W        W35134   8.628  10.965   2.840 -0.2160 -0.0988  0.0830
19326W        W35135   4.216   8.930  15.773  0.0067  0.0304  0.2835
19327W        W35136   3.435   1.369   4.302  0.0089  0.1551 -0.0428
19328W        W35137  15.287   2.813   3.938 -0.0938  0.0296  0.1514
19329W        W35138   3.159   4.894   0.232  0.2173  0.2131  0.0841
19330W        W35139   2.959   5.445  12.115 -0.0261 -0.3021  0.0442
19331W        W35140  15.236  12.692  12.463  0.0793 -0.0504 -0.2394
19332W        W35141   3.425   2.467  16.993  0.1202  0.1432 -0.2812
19333W        W35142   6.223  16.269  13.847  0.1863 -0.0604 -0.1206
19334W        W35143   3.065  15.741  14.865 -0.1874  0.1933 -0.0375
19335W        W35144  10.797  14.575  13.878 -0.1986  0.0058  0.1087
19336W        W35145  13.533   9.364  12.890  0.2107  0.0161 -0.0619
19337W        W35146  13.840  15.466   0.601 -0.0638  0.4896  0.0958
19338W        W35147  11.845  14.455   4.231  0.1774 -0.3383 -0.0808
19339W        W35148   3.774   4.255  14.345  0.1817  0.1255  0.0825
19340W        W35149  14.345  10.375  12.703  0.0567  0.1937 -0.1596
19341W        W35150   6.615   2.961   1.604  0.1443  0.0597 -0.1031
19342W        W35151   5.645  16.577   4.124  0.0336  0.1607  0.1922
19343W        W35152   6.618   0.921  13.569  0.0867  0.0588  0.2133
19344W        W35153   7.015   9.338   4.625 -0.0229 -0.0978  0.2096
19345W        W35154   2.162   6.857  14.660 -0.1070  0.0623 -0.1551
19346W        W35155   5.292   5.815  12.598  0.4015  0.0431  0.2222
19347W        W35156   2.366  14.841  14.118  0.0470  0.0652 -0.2942
19348W        W35157   4.057   5.358   5.049 -0.2402  0.1414  0.0526
19349W        W35158   8.013  11.194  15.272  0.1587 -0.0362  0.4612
19350W        W35159   7.644   7.890  11.376 -0.0771 -0.0631  0.0305
19351W        W35160   0.231   4.560   3.352 -0.0761 -0.3796  0.1466
19352W        W35161  11.888   5.931   2.924  0.0219 -0.2354  0.3185
19353W        W35162   4.395   8.436  15.844  0.3245  0.2986 -0.0143
19354W        W35163   9.436  15.693  13.526  0.1585 -0.2308 -0.0341
19355W        W35164  12.025  16.654  11.039 -0.0545 -0.1893  0.2377
19356W        W35165  10.302  14.758   4.805  0.0359  0.3543  0.0558
19357W        W35166   4.202  10.506  13.610 -0.0282 -0.0850  0.0318
19358W        W35167   3.246   7.696   1.557  0.0567 -0.1554  0.1082
19359W        W35168   8.174  11.050   3.279  0.2478  0.0210  0.2297
19360W        W35169   7.308   8.047  14.665  0.2121 -0.0423 -0.1236
19361W        W35170   4.637   6.745   5.860  0.2445  0.0144 -0.0270
19362W        W35171   2.163   4.725  14.666  0.1515  0.2273 -0.0193
19363W        W35172  12.760  16.834  13.886  0.0822  0.1767 -0.0635
19364W        W35173   0.129  16.374  15.460 -0.0217 -0.0636  0.0593
19365W        W35174   0.132   3.884   3.846  0.0643  0.0843 -0.0434
19366W        W35175  13.089   2.310   0.794 -0.1257  0.0842  0.0612
19367W        W35176   1.717  16.093  15.142  0.0651  0.0804  0.0693
19368W        W35177   9.882   7.401   0.666  0.0511  0.2086  0.0315
19369W        W35178   0.572   7.201  12.447  0.0807 -0.0300  0.3558
19370W        W35179  10.177   9.916  16.346  0.0382 -0.1766 -0.1144
19371W        W35180   6.922  16.633  11.588 -0.1310 -0.1837 -0.0715
19372W        W35181  13.581  16.411   6.107  0.0100  0.0516 -0.1966
19373W        W35182  13.648  13.428   2.312  0.3742 -0.0711 -0.1633
19374W        W35183   3.221   3.951   4.730  0.2260  0.0088 -0.0021
19375W        W35184   2.171   3.554  15.475 -0.2213  0.0945  0.5097
19376W        W35185   1.949   4.891   1.762 -0.0790  0.1746  0.2629
19377W        W35186  15.759  12.380  16.778  0.2353 -0.4195 -0.0079
19378W        W35187  12.675   3.197  16.248 -0.0349 -0.0780 -0.1000
19379W        W35188  10.559   3.534  16.857 -0.1971  0.0843 -0.1873
19380W        W35189   5.815   1.908   4.342 -0.0999 -0.1513  0.0682
19381W        W35190   8.067  11.735  16.016 -0.1794 -0.0937 -0.0056
19382W        W35191   4.516   2.718  16.413 -0.0307  0.3160  0.1130
19383W        W35192   3.848  16.449   0.813  0.0505  0.1393  0.0003
19384W        W35193   5.886  12.802   3.754 -0.1235 -0.3270  0.0257
19385W        W35194   9.564   2.840  15.402  0.1780 -0.2090 -0.2007
19386W        W35195  15.128  10.669   3.311  0.1674 -0.0037 -0.0791
19387W        W35196   1.638   4.207  15.276 -0.0269 -0.1865  0.0890
19388W        W35197  13.580   3.396   1.520  0.2611 -0.1259 -0.4123
19389W        W35198  11.265  12.244  14.459  0.0504 -0.1511 -0.0161
19390W        W35199  14.534  14.321  13.723  0.0901  0.0318 -0.1883
19391W        W35200   5.927   9.246   2.929  0.1307  0.0323  0.0549
19392W        W35201   4.795   5.699  16.903 -0.0770 -0.0956 -0.0327
19393W        W35202   2.777  15.615   0.754  0.3262  0.2107  0.0532
19394W        W35203  16.276  17.216   3.485  0.1923 -0.0522  0.0739
19395W        W35204  11.546   4.835  16.678 -0.1660 -0.0371 -0.1898
19396W        W35205   8.885   7.969   4.915 -0.1275  0.3586 -0.0885
19397W        W35206   2.411   5.800   5.861  0.0991  0.0633  0.1833
19398W        W35207   6.153  13.881  16.834 -0.1676  0.2491 -0.0714
19399W        W35208  12.762   9.009   0.039 -0.0162 -0.0544  0.3678
19400W        W35209   5.448   7.999  16.589  0.0361  0.0202 -0.0783
19401W        W35210   8.793   8.797   5.684 -0.5289  0.0702  0.0385
19402W        W35211  12.126   2.571  12.086 -0.0696 -0.1497 -0.0162
19403W        W35212   2.905   3.725  14.303  0.2553  0.0611  0.0812
19404W        W35213  11.764   0.084  11.627  0.0630  0.1239 -0.1716
19405W        W35214   9.488  12.468  12.234  0.2059 -0.2560  0.0120
19406W        W35215   4.529   4.020   4.084  0.0086 -0.2948 -0.2706
19407W        W35216   6.573   6.401   4.170 -0.0010 -0.0174  0.0308
19408W        W35217   8.180   2.733  15.387  0.0778 -0.1118 -0.1749
19409W        W35218  15.415  13.249   4.804 -0.2466 -0.1423 -0.2452
19410W        W35219  17.402  13.934  11.114 -0.1523 -0.0171 -0.0688
19411W        W35220   8.756   2.600  16.597 -0.1032 -0.0272  0.1925
19412W        W35221  15.459   8.764   5.295 -0.2816  0.1314  0.1014
19413W        W35222   8.279   7.127  15.510  0.0045 -0.0624  0.2159
19414W        W35223  16.796  13.486   5.658 -0.0089 -0.2228  0.0213
19415W        W35224  15.625   0.833  13.534 -0.1397  0.2732  0.0371
19416W        W35225  15.585   7.997  14.330 -0.1078 -0.0104  0.1931
19417W        W35226  10.465  10.342   5.421  0.0352 -0.2146  0.0373
19418W        W35227   4.829   2.910   5.180  0.3690  0.0683 -0.3236
19419W        W35228   5.598   1.059  14.964 -0.1447  0.2536 -0.0303
19420W        W35229   0.198   2.226   2.287 -0.0951 -0.0444  0.1657
19421W        W35230   1.940   0.746   5.910  0.1001  0.0236  0.3019
19422W        W35231   1.478  16.046   1.310  0.0183 -0.2807  0.1779
19423W        W35232  16.099  16.456   2.356 -0.0274 -0.0174  0.0197
19424W        W35233   2.597   2.847  16.476 -0.1916  0.0401 -0.2755
19425W        W35234   2.535  14.448   3.056 -0.2597  0.0499  0.3283
19426W        W35235   9.249  10.432   0.609 -0.1539  0.0226 -0.0054
19427W        W35236   3.739  15.448   2.539  0.1104 -0.1675 -0.0022
19428W        W35237  17.334  15.459   6.091  0.0734  0.1754  0.0775
19429W        W35238   9.164  14.167  10.894  0.1230 -0.1123 -0.0607
19430W        W35239   7.623   4.972  15.076 -0.0662  0.0248  0.1680
19431W        W35240   7.155  14.355  14.461 -0.0843 -0.2838  0.0112
19432W        W35241  14.436  15.782   5.499 -0.2162  0.2714  0.2198
19433W        W35242  15.551  14.196  14.614  0.1036 -0.2947  0.2173
19434W        W35243   0.014   2.732  12.425 -0.1422  0.1863  0.2084
19435W        W35244   2.559   4.783   2.607  0.1445  0.0727 -0.0197
19436W        W35245  14.998  13.761   4.995 -0.0339  0.2744  0.0838
19437W        W35246   2.368   5.917   1.691  0.3088 -0.3443  0.2074
19438W        W35247  12.087  16.594   3.860 -0.0791 -0.2495 -0.0913
19439W        W35248   8.768  10.525   2.566 -0.1799  0.0570 -0.1410
19440W        W35249   0.520  12.462  13.792 -0.1040 -0.1106 -0.2214
19441W        W35250  13.801  16.576  16.862 -0.1167  0.4297  0.1740
19442W        W35251   0.135  12.828  12.422  0.1479 -0.1508 -0.1745
19443W        W35252  15.168   6.091   3.216 -0.2761  0.0542 -0.0858
19444W        W35253  10.128   1.281  14.944 -0.0811 -0.3623  0.1647
19445W        W35254  15.604   3.313   5.304  0.3479  0.1936 -0.3260
19446W        W35255  11.540  14.574  16.080  0.0213 -0.0743 -0.1001
19447W        W35256   5.008   9.762   3.889 -0.2225  0.3475  0.2393
19448W        W35257  17.542  11.772  12.516  0.2879 -0.1511  0.0019
19449W        W35258   3.538   3.512   1.990 -0.2386  0.2798 -0.2074
19450W        W35259   9.266   7.994   5.289 -0.0545  0.2134  0.0384
19451W        W35260   1.512  15.777  13.603  0.1984  0.1659  0.0195
19452W        W35261  10.076  11.075  15.725  0.1047 -0.2795 -0.1510
19453W        W35262   0.345  11.009   3.419  0.0553  0.0977 -0.1335
19454W        W35263   6.270  17.475   3.064 -0.0074  0.1488  0.1534
19455W        W35264  11.255   5.393   5.027  0.1164 -0.2076  0.1186
19456W        W35265  14.381  11.206  12.328  0.1033 -0.2966 -0.0195
19457W        W35266   9.856  16.474   1.293 -0.1877  0.0865  0.2183
19458W        W35267  13.477   8.269   3.404  0.1355  0.0837 -0.1042
19459W        W35268   6.345  11.404  15.912  0.0591  0.0262 -0.1080
19460W        W35269  15.176   0.946  13.426 -0.0783 -0.3438 -0.0662
19461W        W35270  13.023  14.889  11.540 -0.1349  0.0194 -0.1643
19462W        W35271   5.176   8.442   5.163  0.3956  0.1950 -0.0048
19463W        W35272  14.072   6.879   5.607 -0.4782 -0.0950  0.3418
19464W        W35273   8.847  15.574   2.709 -0.0482  0.1781  0.1189
19465W        W35274  10.563   5.025  13.638 -0.0055  0.3217 -0.3762
19466W        W35275  16.541   6.287   3.212  0.1165 -0.1499 -0.2226
19467W        W35276   5.932   9.761   4.079  0.1216 -0.3044 -0.0697
19468W        W35277  14.144   6.920   2.002 -0.2398 -0.4051  0.0460
19469W        W35278  14.954   6.408   4.112 -0.2987  0.2749 -0.2213
19470W        W35279  11.055   6.392   1.390 -0.2247  0.0035 -0.2085
19471W        W35280   0.906   3.128   3.160  0.1985 -0.2392  0.0433
19472W        W35281  11.386  14.850  16.465  0.0764 -0.0799  0.0147
19473W        W35282   1.889   7.823  12.905  0.2503  0.4344  0.1741
19474W        W35283   5.864  13.352   5.518  0.0043 -0.3706 -0.2520
19475W        W35284  11.025   3.154  15.237  0.0753 -0.1944  0.1193
19476W        W35285   3.282   2.893  15.119 -0.0171  0.0038 -0.2983
19477W        W35286  16.526  17.206   1.452  0.1438 -0.2134  0.4559
19478W        W35287   4.743   9.276   4.918 -0.3413 -0.2105  0.2581
19479W        W35288   2.052   6.816  16.698 -0.0477 -0.0562 -0.2051
19480W        W35289   9.165   0.199   4.039 -0.1438  0.2304  0.0358
19481W        W35290   5.048  11.485  12.143 -0.3271 -0.0425 -0.3365
19482W        W35291   2.620   9.062   1.670  0.0597  0.0396 -0.0475
19483W        W35292  11.141  17.203  14.857  0.1925 -0.0175 -0.0273
19484W        W35293   7.242  12.487  16.839  0.1320 -0.2565 -0.1759
19485W        W35294   8.802   3.723   3.980 -0.2722  0.0090 -0.0566
19486W        W35295   8.207   9.631   3.421 -0.3217  0.2791 -0.5062
19487W        W35296  11.604   5.643   4.617  0.0452 -0.2499  0.1102
19488W        W35297  16.887  10.982   0.133 -0.1071  0.1728 -0.0998
19489W        W35298   3.170  10.546  11.581 -0.1322  0.0874 -0.0540
19490W        W35299   3.716  16.204  15.096  0.0639  0.1694 -0.1315
19491W        W35300  10.789   9.518   2.453 -0.4354  0.1033  0.2807
19492W        W35301   3.160   5.423   3.879  0.1501 -0.0328  0.1970
19493W        W35302   6.258  15.054  14.176  0.0624 -0.0188 -0.0144
19494W        W35303  13.658  14.396   3.813 -0.2520 -0.2436 -0.0942
19495W        W35304  12.174   3.409   4.486  0.2982  0.0618  0.1643
19496W        W35305  15.306   1.517   0.247  0.2801  0.3177 -0.0121
19497W        W35306  13.730  11.681   1.249  0.2004  0.1614 -0.1667
19498W        W35307  11.395   2.668  15.333 -0.0603 -0.0368 -0.1231
19499W        W35308  16.949   5.823  15.711 -0.0162  0.1012  0.1344
19500W        W35309  17.592   6.609   0.721 -0.2363 -0.0176 -0.0917
19501W        W35310   4.906   3.919  16.873  0.1369 -0.1680 -0.0535
19502W        W35311   8.441   5.762   2.628 -0.1100  0.0674  0.0604
19503W        W35312  16.324  15.890  13.786 -0.3312 -0.0079 -0.0771
19504W        W35313  11.415  13.182   0.664  0.2326  0.2671  0.0426
19505W        W35314   3.496  11.774   1.158  0.0562 -0.0997 -0.0167
19506W        W35315  12.885   8.600   1.813 -0.1071  0.2256 -0.1799
19507W        W35316  15.010   4.178  14.354  0.3070 -0.2800  0.0255
19508W        W35317   6.476  16.582   2.862 -0.0294  0.1253 -0.0822
19509W        W35318  14.130   1.575   5.459  0.0076 -0.4724 -0.3908
19510W        W35319   2.725   5.356   5.576 -0.1435  0.0484  0.1755
19511W        W35320   1.025   4.062   0.941  0.0474 -0.1868  0.1667
19512W        W35321   2.440  13.481  11.971 -0.0442 -0.0218 -0.0942
19513W        W35322   1.781  12.710   1.656 -0.1380 -0.0719  0.1318
19514W        W35323   0.972  16.120   0.690  0.0813 -0.1364 -0.0308
19515W        W35324  10.534   3.484  13.968  0.1327 -0.0465 -0.1716
19516W        W35325   5.792  15.330   0.174 -0.0844 -0.1683 -0.2933
19517W        W35326  14.909   8.881   2.136  0.1376 -0.1521  0.1523
19518W        W35327  12.562   4.567   0.433  0.0180 -0.0189 -0.0057
19519W        W35328   7.479   4.276   3.918  0.0514 -0.1047 -0.0263
19520W        W35329  16.081   7.319  13.160  0.0715 -0.2380 -0.3224
19521W        W35330   3.758   9.859   2.779 -0.0382  0.1641 -0.2209
19522W        W35331   9.819  13.976   5.468  0.0600 -0.2229  0.1374
19523W        W35332   6.397   3.343   4.271 -0.2474  0.3905 -0.0555
19524W        W35333  10.321   3.820  13.415  0.1443 -0.3828  0.0642
19525W        W35334  11.456   3.996  16.512  0.2630  0.0072  0.2891
19526W        W35335  10.870   1.465   4.110  0.0899 -0.1478  0.1744
19527W        W35336   5.970   5.323  12.173  0.0166  0.0845  0.2745
19528W        W35337   0.870   4.081  14.547  0.1268 -0.0347  0.3513
19529W        W35338   3.383   9.352  13.969 -0.2229 -0.2480  0.0418
19530W        W35339  17.179   1.301   5.747  0.0636  0.0765  0.1221
19531W        W35340   9.712   9.909   5.169 -0.0687 -0.2327 -0.0944
19532W        W35341  10.326   6.449  12.033 -0.3084 -0.0623 -0.0513
19533W        W35342   8.486   8.064  15.328 -0.1160  0.0395 -0.1575
19534W        W35343   0.368   5.872  14.165  0.2102 -0.1601 -0.1257
19535W        W35344   5.676  16.744   2.773  0.0795  0.2819 -0.2008
19536W        W35345  10.741   3.220   5.636  0.2124  0.0318 -0.2092
19537W        W35346  13.442   9.061   4.553 -0.0160  0.0063  0.2159
19538W        W35347  10.591   7.004   0.151  0.1040  0.0446  0.0445
19539W        W35348   6.161   7.944  12.673  0.2179  0.0626  0.1885
19540W        W35349   6.389   2.832  15.257 -0.0437  0.1419 -0.1450
19541W        W35350  16.104   5.545   2.035  0.1060  0.4171 -0.2015
19542W        W35351   4.249   2.162  13.339 -0.0559 -0.1265 -0.1653
19543W        W35352   2.253  16.956  13.748 -0.2350 -0.3400  0.3375
19544W        W35353   6.145   8.912  16.031 -0.0788  0.1171 -0.0386
19545W        W35354   1.887   7.700   4.201 -0.1936  0.1101 -0.1331
19546W        W35355  15.263   0.724   5.601  0.1367  0.1358  0.0355
19547W        W35356   9.968   3.900  12.973 -0.0977  0.1827 -0.1049
19548W        W35357   7.159   4.161  15.195 -0.2637  0.0933 -0.0403
19549W        W35358  10.307   5.303  12.774  0.2068  0.1992 -0.0510
19550W        W35359   9.427  13.411   0.430  0.0620  0.0040 -0.1040
19551W        W35360   8.768  13.446   1.471  0.0377 -0.2023 -0.1707
19552W        W35361  16.839   1.815  14.319 -0.0563  0.0380 -0.0842
19553W        W35362  13.885   1.236  16.540  0.0333  0.1456 -0.1841
19554W        W35363   4.450  16.386  14.391 -0.0115 -0.1089 -0.0088
19555W        W35364   9.007  10.345  11.338  0.2269 -0.2410 -0.0072
19556W        W35365   7.334   6.618   3.039  0.1105 -0.2928  0.2647
19557W        W35366   5.982  15.036  16.713  0.1435 -0.0101 -0.1943
19558W        W35367  13.792  10.271  14.524  0.3739 -0.2159 -0.2687
19559W        W35368  11.187  17.282  12.599  0.0336 -0.0934 -0.1080
19560W        W35369   1.136   9.840  13.371 -0.1227  0.0125 -0.1131
19561W        W35370   4.530  11.012   0.936 -0.1079  0.2881  0.1777
19562W        W35371   8.320   8.044   1.681  0.2384 -0.0763  0.0517
19563W        W35372  16.027   0.764   0.877  0.4148  0.0394  0.0425
19564W        W35373  11.364  13.481  15.193 -0.0170  0.2044  0.1002
19565W        W35374   0.230   2.964   0.116  0.0010  0.2927 -0.1023
19566W        W35375  15.393  17.232  16.593  0.0001 -0.0184  0.0782
19567W        W35376   0.868   8.748   1.097 -0.0491  0.0312 -0.1091
19568W        W35377   6.633   2.743  13.637 -0.3700 -0.2274  0.0593
19569W        W35378  17.168  14.331   3.190  0.0689 -0.2174  0.4014
19570W        W35379  10.579   4.608  14.019 -0.1462  0.2473 -0.0769
19571W        W35380  10.628   8.038   0.375  0.1547 -0.0338  0.0388
19572W        W35381   4.704   3.442   2.729 -0.0949  0.0052  0.2853
19573W        W35382   1.062  13.190   3.301 -0.1444 -0.0175  0.3336
19574W        W35383  12.066   0.466  12.028  0.1818 -0.1564  0.0845
19575W        W35384  14.635  16.030  14.493  0.0095 -0.1375  0.1876
19576W        W35385  14.673   6.540  15.250 -0.0222  0.0928 -0.2401
19577W        W35386   2.486  10.444   3.278  0.0179  0.1155  0.1108
19578W        W35387   8.155  13.293   4.279  0.1011 -0.1528 -0.2264
19579W        W35388   9.735   2.552   0.927 -0.0951 -0.3131  0.0175
19580W        W35389   9.004   6.613   2.601 -0.0467 -0.0118 -0.1194
19581W        W35390  11.423   2.337  14.922 -0.2096  0.0579 -0.0465
19582W        W35391   8.507   1.892  15.016  0.2197 -0.0110 -0.2894
19583W        W35392   8.798   5.839  15.986  0.0724 -0.1540  0.1838
19584W        W35393   5.414  17.065   2.536  0.2913 -0.0601 -0.0570
19585W        W35394  17.078  16.018  16.704  0.4062  0.2166  0.1085
19586W        W35395   2.981  11.518  12.244  0.0808  0.0800  0.1568
19587W        W35396   7.032   4.703  16.445  0.1399  0.2462  0.0087
19588W        W35397   8.854  11.425  15.057 -0.0387 -0.1637 -0.3029
19589W        W35398   1.057   2.308  13.899  0.0467  0.0129  0.0153
19590W        W35399   6.070  16.198   5.053 -0.1716  0.1329 -0.1250
19591W        W35400  14.628  13.091  16.266 -0.2445  0.0120  0.0826
19592W        W35401   3.579  16.223   5.299 -0.1845 -0.1772  0.1867
19593W        W35402  13.482  10.200   2.069 -0.2117 -0.1611  0.1696
19594W        W35403   8.568   4.355  14.845 -0.0950 -0.0598 -0.2128
19595W        W35404  17.193   8.357  13.222  0.2083  0.1100 -0.4821
19596W        W35405   1.587  15.548   5.238 -0.3390  0.1926  0.1923
19597W        W35406   1.840  11.780  13.854 -0.0125  0.1327 -0.1692
19598W        W35407   6.633  10.061  12.066  0.1248 -0.2298  0.4056
19599W        W35408  12.183  17.220  16.300 -0.2449  0.1669 -0.0771
19600W        W35409   1.161  16.379  15.837 -0.1458 -0.0233  0.0882
19601W        W35410  10.273  16.105   0.317  0.1051  0.0085 -0.0844
19602W        W35411  10.194   8.624  14.474  0.0329  0.2120 -0.0627
19603W        W35412   8.945  15.732  13.742 -0.4070  0.0062 -0.3851
19604W        W35413  16.941   4.101  14.429 -0.1604  0.3626  0.1100
19605W        W35414  11.420  12.941  15.689 -0.0973 -0.0401  0.0889
19606W        W35415  13.603  12.759   1.910  0.0053 -0.1258 -0.0658
19607W        W35416   2.569   9.421   5.699  0.1903  0.2942 -0.2011
19608W        W35417   8.012   9.875  15.719 -0.0392 -0.2060  0.0494
19609W        W35418  16.284   3.257   6.369 -0.3496  0.2741  0.0513
19610W        W35419   3.550   5.106  14.743 -0.3703 -0.0065  0.0389
19611W        W35420   7.561  14.882  13.663 -0.0455 -0.0351 -0.0070
19612W        W35421   5.434   7.877   3.775 -0.1391 -0.3930 -0.1190
19613W        W35422  14.732   0.015   2.766 -0.2854  0.1392  0.0469
19614W        W35423   7.592   8.652   0.596 -0.2978 -0.2273  0.1085
19615W        W35424  17.037  10.665  12.285 -0.1128  0.1908 -0.0899
19616W        W35425  16.173   5.214  13.878  0.0721  0.0605 -0.1033
19617W        W35426  14.043  14.136  11.940  0.2020 -0.2073 -0.3980
19618W        W35427   0.955   9.895  15.868  0.2167  0.0547 -0.2355
19619W        W35428   9.174  17.517  16.283 -0.0455  0.2499 -0.0178
19620W        W35429  14.519   2.714   2.380  0.0103 -0.1912  0.0956
19621W        W35430  14.676   3.037  12.429 -0.1714 -0.2902 -0.1697
19622W        W35431   9.224   8.989   2.948 -0.1944  0.0533  0.0750
19623W        W35432   2.197  11.608  15.600 -0.2212 -0.1831  0.1834
19624W        W35433   2.834   9.855   3.175  0.0057  0.1590 -0.0177
19625W        W35434  17.326   3.582  14.408  0.1319 -0.1466 -0.0074
19626W        W35435   7.599  15.550   5.334  0.2245 -0.0036  0.2236
19627W        W35436   8.316   1.970   4.901 -0.0648 -0.2678 -0.1457
19628W        W35437   2.600  16.037  13.877  0.1612 -0.1127  0.2456
19629W        W35438   1.797   6.022  16.948 -0.0451 -0.2340 -0.3468
19630W        W35439  15.389   6.755   1.408  0.1638  0.1312 -0.2199
19631W        W35440  14.425  13.009   5.077 -0.0629  0.0381 -0.0773
19632W        W35441   2.878   8.849  11.388 -0.1343  0.0085 -0.0655
19633W        W35442   7.342   3.680   5.209 -0.1858  0.1077 -0.0058
19634W        W35443  13.029   9.088   3.024 -0.0633  0.1609  0.2012
19635W        W35444  14.463   4.685  12.855 -0.1468 -0.2922  0.0098
19636W        W35445   1.256  15.779  14.064  0.0567 -0.3543  0.2713
19637W        W35446  11.108   3.142   2.142  0.0206  0.1364  0.0114
19638W        W35447   8.869  12.445  15.908 -0.1523 -0.0027  0.2075
19639W        W35448   0.131  15.375   1.248 -0.0140 -0.3008 -0.0107
19640W        W35449   3.576  13.182  16.167  0.1219 -0.1720 -0.0846
19641W        W35450   7.008   4.823   4.530  0.0735  0.2696  0.0503
19642W        W35451   8.160  12.948   0.001  0.2407 -0.1622 -0.1358
19643W        W35452  15.745   4.428  12.027 -0.3540  0.0460 -0.0171
19644W        W35453   4.271  10.462   4.970  0.0824  0.0329  0.0537
19645W        W35454   7.651  15.483  13.592  0.3389  0.1651  0.2610
19646W        W35455  12.104   2.695   3.684 -0.2245 -0.1563  0.0638
19647W        W35456  10.330  12.128  16.311 -0.3781 -0.1561  0.0186
19648W        W35457  17.462   6.280   5.879  0.0830  0.5024 -0.0849
19649W        W35458   1.130  12.759   3.513  0.0243  0.4282 -0.2541
19650W        W35459   3.442   0.257   0.644 -0.0966  0.1389  0.0476
19651W        W35460   7.002   1.290  15.257  0.1103  0.3876  0.0387
19652W        W35461   9.489  13.175   3.508 -0.0333  0.0840 -0.0309
19653W        W35462  13.105  12.042  12.605 -0.1454  0.0069  0.0197
19654W        W35463  10.332   3.324   5.291 -0.1426 -0.2723  0.0032
19655W        W35464  15.903   8.327  14.519  0.0423  0.0629 -0.1068
19656W        W35465  12.645   6.237   3.820 -0.3435 -0.4219 -0.1112
19657W        W35466   4.003   6.131   1.508  0.2050  0.0833  0.2101
19658W        W35467   5.783   9.550   2.091 -0.1332  0.1636  0.1464
19659W        W35468  11.367   4.748   6.338  0.1420 -0.0124  0.0511
19660W        W35469   6.785  17.044  12.374  0.4644  0.3258 -0.1142
19661W        W35470   0.307   2.508  16.246 -0.1719 -0.0196 -0.0348
19662W        W35471  12.744   1.242  16.054 -0.1564 -0.1486 -0.0767
19663W        W35472  14.200   3.515   0.716 -0.2446  0.2551  0.0393
19664W        W35473  11.788  12.687   4.656  0.0185 -0.2242  0.0895
19665W        W35474  14.534   0.921  15.819  0.0272 -0.4237 -0.3841
19666W        W35475   6.764  11.323   1.273 -0.2119  0.1674  0.1318
19667W        W35476   0.609   7.087  15.519 -0.3384  0.0531  0.0095
19668W        W35477  16.337   0.003   4.578 -0.0528 -0.3951  0.0283
19669W        W35478   1.620   2.978   1.835 -0.2166  0.0250 -0.2374
19670W        W35479  14.889   3.870   3.412 -0.1259 -0.1526  0.0033
19671W        W35480   4.397  10.460   3.191 -0.0871 -0.0374 -0.0002
19672W        W35481   3.276  17.596   3.980 -0.0872  0.0438 -0.0689
19673W        W35482   8.838  12.829   5.180 -0.1830 -0.1669 -0.0805
19674W        W35483  15.427   7.176   0.260  0.1293 -0.0402 -0.1157
19675W        W35484   8.997  12.203  13.926  0.0815  0.1473 -0.1786
19676W        W35485  12.601   3.976   2.710 -0.0461 -0.0194  0.0102
19677W        W35486   7.440   4.816   3.212  0.0241  0.1129 -0.2034
19678W        W35487   2.755   0.653   4.503 -0.1819  0.0361  0.1641
19679W        W35488   2.941  14.565   5.762  0.0623  0.1810 -0.1277
19680W        W35489  16.488  13.125   5.473 -0.1151  0.1890  0.1085
19681W        W35490  17.058   3.772   2.849  0.1098  0.2356 -0.1558
19682W        W35491   3.222   0.740  15.239 -0.1889 -0.0264 -0.1042
19683W        W35492  12.291   5.531  15.358 -0.0403 -0.0087 -0.0857
19684W        W35493  12.432   5.073   0.300  0.0847  0.2480 -0.0689
19685W        W35494   5.828   1.299  14.507 -0.2174  0.2202 -0.1263
19686W        W35495   9.618  13.188   4.842 -0.0324  0.3675  0.0402
19687W        W35496   4.850  15.607   1.239  0.0415 -0.3322 -0.0027
19688W        W35497   9.683  13.829  10.955 -0.0955  0.0622 -0.0991
19689W        W35498   3.083   8.626  11.751 -0.1814  0.2427 -0.2774
19690W        W35499   0.136   9.696   0.469  0.0975  0.0307 -0.1129
19691W        W35500   2.319   7.602  16.326  0.1193 -0.0123  0.2367
19692W        W35501   6.563   7.264   6.035 -0.1585  0.0517  0.2602
19693W        W35502   1.806  13.420  11.969  0.1992  0.0346 -0.2202
19694W        W35503   4.745  17.690   0.112  0.0257  0.0336 -0.1319
19695W        W35504  12.697   3.900   2.170  0.1985  0.5392  0.1784
19696W        W35505  11.608   4.923   4.709 -0.1149 -0.1200  0.1055
19697W        W35506  16.162  13.722  13.048 -0.3021  0.0593 -0.3215
19698W        W35507  12.575   5.969   0.672  0.1792 -0.0652  0.1562
19699W        W35508  16.239  17.138  15.624  0.1735 -0.0892 -0.1383
19700W        W35509  11.758  15.156   4.383  0.0361 -0.0580 -0.1206
19701W        W35510  10.060  11.761  15.990  0.0383 -0.1580 -0.1953
19702W        W35511  13.665  11.596  10.876 -0.0893 -0.1531 -0.3697
19703W        W35512   1.942  13.674   4.024 -0.0700  0.2817  0.0473
19704W        W35513  16.974   7.800   5.727 -0.0343  0.2186 -0.1488
19705W        W35514  14.044  11.646  13.931 -0.1375  0.1644 -0.0806
19706W        W35515  11.485   3.247  13.913 -0.1064 -0.0319 -0.1949
19707W        W35516  11.531  15.284  13.166  0.0947  0.0506  0.0643
19708W        W35517  10.345  13.096   3.961  0.1416  0.0327  0.0060
19709W        W35518   7.102   9.914  12.668 -0.1376  0.2784 -0.2474
19710W        W35519   0.913   9.236   4.148  0.0867  0.0827 -0.1240
19711W        W35520   8.053  16.092   1.603 -0.0174 -0.1851  0.1051
19712W        W35521   6.674  14.859   2.832  0.1309  0.2386 -0.2010
19713W        W35522  10.364   3.182   1.055  0.0965  0.1298  0.0757
19714W        W35523   1.545  12.219  16.056  0.0190  0.2312  0.1895
19715W        W35524   0.686  12.995   5.300  0.1047 -0.1116 -0.0910
19716W        W35525   1.421  15.432  10.576 -0.0109 -0.0671  0.1227
19717W        W35526   4.344  10.883   4.671 -0.2298  0.2673 -0.1533
19718W        W35527   5.257  14.056  13.152 -0.0191 -0.2659 -0.1670
19719W        W35528  10.569  12.353  13.680  0.0511  0.0417  0.1645
19720W        W35529  14.987   7.442  16.975  0.0150  0.0084 -0.1946
19721W        W35530   7.139   6.240  13.372  0.0557  0.2962  0.1894
19722W        W35531   2.463   1.566   0.079 -0.0349 -0.1781 -0.2016
19723W        W35532   9.421  12.623  11.280  0.0162 -0.1252  0.0165
19724W        W35533  14.422  17.358   1.090 -0.1472  0.1944  0.2339
19725W        W35534   2.933  16.168  15.152 -0.1967  0.0082 -0.1815
19726W        W35535  16.591  10.871   3.736 -0.0601  0.3156 -0.3286
19727W        W35536   4.856   2.977   4.656  0.2787  0.0797  0.1965
19728W        W35537   9.029   6.026   3.969 -0.0263  0.0853 -0.1028
19729W        W35538   4.429   9.016  15.335  0.1486 -0.0412  0.0217
19730W        W35539  17.223   4.839   5.649  0.1140 -0.2899  0.4071
19731W        W35540   7.051   3.827  14.179 -0.1689 -0.1524  0.1381
19732W        W35541   0.397  12.427   0.421 -0.0554  0.3649 -0.3244
19733W        W35542  14.915  13.429  15.574  0.2373  0.0913  0.0394
19734W        W35543   8.934   3.538   5.764  0.2073  0.0254  0.3457
19735W        W35544  11.275  10.670   0.070  0.2698  0.1299  0.1441
19736W        W35545  11.442  12.185  13.202  0.2208 -0.0976  0.0208
19737W        W35546   0.799  10.822  13.543 -0.1980  0.0842  0.1677
19738W        W35547  16.908  11.022  12.596 -0.1219  0.1076 -0.2179
19739W        W35548  16.336   4.532   3.534  0.3134 -0.0480 -0.0147
19740W        W35549  16.743   5.654  15.212  0.0817  0.1533 -0.0717
19741W        W35550   0.097   8.304  15.564  0.2054  0.0190 -0.0514
19742W        W35551   2.612  16.161   3.272  0.2485  0.1800  0.0279
19743W        W35552   9.793   4.427  16.249 -0.0007 -0.1898 -0.2022
19744W        W35553  13.868  12.082   2.377 -0.0758  0.0368 -0.0840
19745W        W35554   6.294   3.934  16.966 -0.3233 -0.0944  0.0052
19746W        W35555  12.335   5.665  12.403 -0.4107  0.3437 -0.0945
19747W        W35556  12.142   9.509   4.488 -0.1211  0.2638 -0.1537
19748W        W35557  16.574   6.218  16.896 -0.2584  0.1463  0.2207
19749W        W35558   4.132  11.686   1.058  0.3168  0.0435 -0.0973
19750W        W35559   9.329   2.006  15.533 -0.1448  0.3250  0.0317
19751W        W35560   2.157   6.015  16.209  0.2262  0.3508  0.1657
19752W        W35561   9.420   8.979   3.655  0.1630  0.0740  0.0636
19753W        W35562   1.121   5.101  11.901  0.2359 -0.0304 -0.0481
19754W        W35563  17.332   0.022  15.375  0.0658 -0.3337 -0.0467
19755W        W35564   3.218  10.942   2.993  0.0074 -0.0929 -0.0221
19756W        W35565   2.639   7.904   3.875 -0.3595 -0.1027 -0.1659
19757W        W35566   3.866   0.140   3.980  0.0783 -0.4532 -0.0760
19758W        W35567   4.376   4.384  14.349 -0.0547 -0.1681  0.1583
19759W        W35568   7.809   1.053  12.352 -0.3177 -0.2806  0.0220
19760W        W35569   3.072   3.172  11.756 -0.0555 -0.1375  0.3003
19761W        W35570  16.582  12.640   5.149 -0.1132  0.0960 -0.0905
19762W        W35571   1.316  15.616   3.235  0.1063  0.2162 -0.2396
19763W        W35572   5.096  11.881   4.095  0.0986  0.1143 -0.2030
19764W        W35573   1.326   6.434   0.980  0.1892 -0.2495 -0.1372
19765W        W35574  13.407  16.187  13.841  0.2119 -0.1172  0.1605
19766W        W35575   6.057  16.789   5.667 -0.2320 -0.3285 -0.0059
19767W        W35576   0.533   4.474  11.900 -0.0827 -0.1248  0.2349
19768W        W35577   4.590  16.087   0.924  0.0450 -0.2271 -0.2867
19769W        W35578  13.864   3.069   1.772  0.1461  0.0502  0.0600
19770W        W35579   2.509   5.119  13.357  0.2486 -0.0617  0.1515
19771W        W35580  14.070  13.454   2.038 -0.0806  0.0442  0.0817
19772W        W35581  15.715  17.540  16.322 -0.0250 -0.1436 -0.0074
19773W        W35582   2.824  10.380   1.371  0.2959  0.0349 -0.0928
19774W        W35583   0.116   5.068   5.393  0.2553 -0.0260 -0.1006
19775W        W35584   8.013   3.349   5.280 -0.4259 -0.0906  0.0958
19776W        W35585  16.654  13.006   2.169 -0.0127 -0.0245  0.1592
19777W        W35586   6.941   1.441   0.493 -0.1082 -0.1609 -0.3628
19778W        W35587  14.222  13.313  14.610 -0.1258 -0.1728 -0.1412
19779W        W35588   4.601  11.675  12.057 -0.1800  0.0439 -0.0256
19780W        W35589   5.188  14.668   0.133 -0.2978  0.0113  0.0722
19781W        W35590  14.892  17.729   1.849 -0.0955 -0.1067  0.0284
19782W        W35591   8.433  16.340   4.435 -0.0730  0.0559 -0.4440
19783W        W35592  13.041  16.381   5.419 -0.0235  0.1533 -0.5398
19784W        W35593  13.063   1.353   1.554  0.1839  0.1456 -0.2107
19785W        W35594  15.895  13.516  16.390  0.0725  0.3907  0.4470
19786W        W35595   5.078  11.996  15.935 -0.0554  0.1351 -0.2856
19787W        W35596  15.229  17.024  14.053  0.0516 -0.0282  0.1178
19788W        W35597   2.441  17.486   2.423  0.0654  0.0823  0.0556
19789W        W35598  15.862   9.546   0.465 -0.0130 -0.0196  0.0343
19790W        W35599  13.884   4.226   3.305  0.0296  0.2646  0.3500
19791W        W35600  13.573   8.604  15.309 -0.2793  0.0002  0.0631
19792W        W35601   6.658   2.381   4.328  0.1720 -0.1159 -0.1840
19793W        W35602   7.695   9.786   3.106  0.0053  0.0002  0.2471
19794W        W35603   4.679   2.016   3.742  0.0950 -0.1066  0.0090
19795W        W35604   6.018   3.042  12.481 -0.1107 -0.1659  0.1246
19796W        W35605   8.606  17.164   3.629  0.0921 -0.0017 -0.0933
19797W        W35606  15.410  10.717  14.098  0.0803  0.1264  0.2638
19798W        W35607  14.853   8.618  12.348 -0.0351  0.0017 -0.1656
19799W        W35608   6.225   3.926  14.081 -0.0078 -0.0439  0.0201
19800W        W35609   0.926   8.459  15.288 -0.1641 -0.1295  0.0503
19801W        W35610  13.172  16.207   4.433  0.2015  0.0773 -0.3270
19802W        W35611   0.781  12.023  14.661  0.4412 -0.3704 -0.0161
19803W        W35612  16.950  16.735   2.467  0.2252  0.0280 -0.0795
19804W        W35613   6.352   4.345   0.298 -0.0348 -0.2880 -0.0464
19805W        W35614   7.037  12.094   2.542  0.0134  0.0402 -0.2182
19806W        W35615   7.011  11.052  14.567 -0.0314  0.0383 -0.2254
19807W        W35616  11.198   0.500  16.835 -0.0209 -0.0325 -0.0023
19808W        W35617   4.765   7.186   4.804 -0.0495  0.0610  0.1875
19809W        W35618   2.360  11.474   5.512  0.1559 -0.0359  0.1154
19810W        W35619  10.360  11.037  13.739 -0.1040 -0.1309 -0.0236
19811W        W35620  11.380   2.668   0.844 -0.0351  0.0222 -0.0006
19812W        W35621   8.231  13.140  15.717 -0.1426 -0.2483  0.0873
19813W        W35622  11.321  14.331   4.154  0.1282  0.2992 -0.2485
19814W        W35623   4.093  13.499   5.643 -0.0688  0.2402  0.0958
19815W        W35624   2.712  17.181  13.417  0.3157 -0.0720 -0.0129
19816W        W35625  11.205  15.657  13.380 -0.1492  0.0143 -0.4525
19817W        W35626   8.523   1.047   3.040 -0.2004  0.0987 -0.2903
19818W        W35627   6.537   6.097   1.216 -0.1774 -0.3324  0.3093
19819W        W35628   7.280  17.187   2.275  0.1040 -0.2074  0.2734
19820W        W35629  10.398   6.701  13.373 -0.0569  0.0943 -0.0577
19821W        W35630   0.521   1.869  15.486  0.3636 -0.2951 -0.3037
19822W        W35631  15.745  14.648  16.287  0.1852  0.0960  0.0950
19823W        W35632  17.164  17.277  16.683  0.1542  0.1109  0.0720
19824W        W35633   5.141   8.494  11.924  0.1374  0.3767  0.2735
19825W        W35634  13.444  16.183  13.333 -0.0642  0.0055 -0.4217
19826W        W35635  11.559  13.176  14.521 -0.1565  0.3238 -0.2662
19827W        W35636  13.273   2.839   5.372 -0.1058  0.3373 -0.1188
19828W        W35637   4.969  10.854   5.495  0.1103  0.1509  0.3705
19829W        W35638  14.813   0.756  14.737  0.1296  0.0321  0.1138
19830W        W35639   0.739  11.757   4.916 -0.3300 -0.0528 -0.1597
19831W        W35640   1.613   9.297  10.702 -0.2790  0.1234 -0.0130
19832W        W35641  10.951   7.923  13.640  0.1211  0.2809 -0.0839
19833W        W35642   3.908   5.296  12.256 -0.1819 -0.2709  0.1257
19834W        W35643  12.423   6.040  14.068  0.3353 -0.1168  0.2531
19835W        W35644  11.504   4.886  12.252  0.1714  0.0921  0.2670
19836W        W35645  13.274   2.023  11.662  0.2640 -0.0823  0.3617
19837W        W35646   0.628   6.696   5.473  0.1009  0.1439  0.0054
19838W        W35647  11.452  11.654  15.368 -0.3710 -0.0271 -0.1217
19839W        W35648   2.561   5.937  14.957  0.0990  0.0543  0.0772
19840W        W35649  16.295   1.813   2.094 -0.1695  0.0042 -0.0860
19841W        W35650   6.223   9.726  13.899 -0.1546 -0.0611  0.1416
19842W        W35651   8.036  10.697  15.092  0.1168  0.0302  0.2301
19843W        W35652   7.054  12.981  14.124  0.0834 -0.0684  0.3455
19844W        W35653   4.769   6.712   1.200  0.1996 -0.3992  0.1453
19845W        W35654   7.647   3.579   0.186 -0.2744 -0.0861  0.3094
19846W        W35655   9.561  14.347   2.776 -0.0217  0.4476 -0.1284
19847W        W35656   9.670   9.724   2.808  0.0300 -0.0267  0.2645
19848W        W35657  12.311  16.223  11.559 -0.1842 -0.2086  0.0244
19849W        W35658   2.565  11.301  14.356 -0.2181 -0.0341  0.1386
19850W        W35659   2.108   1.133  16.647 -0.0466  0.2067  0.3015
19851W        W35660   2.775  16.537  16.620 -0.2165 -0.0013 -0.2599
19852W        W35661   6.443  15.902  12.887  0.1478  0.0102  0.1412
19853W        W35662   6.680   8.185  14.057 -0.3558 -0.3248 -0.0761
19854W        W35663  12.276  15.401   1.395 -0.0244  0.0915 -0.0303
19855W        W35664   1.020   9.174   1.365 -0.1359  0.0308  0.1224
19856W        W35665   6.883   9.897   0.264 -0.0157  0.0518 -0.0408
19857W        W35666   1.090  14.491  15.675 -0.0678  0.0996 -0.2407
19858W        W35667  10.322  14.518  13.744 -0.2125  0.0084 -0.1585
19859W        W35668   4.517   9.820   3.629 -0.0453 -0.1027 -0.2523
19860W        W35669   8.247   9.935   4.844  0.1727 -0.0501  0.1244
19861W        W35670   7.130  10.500   4.280 -0.1375  0.1745  0.4186
19862W        W35671   8.197  10.201   4.174 -0.1904  0.2179 -0.2073
19863W        W35672  11.138  13.840  14.085 -0.0917  0.0301 -0.0749
19864W        W35673  10.620  12.673  13.097 -0.1458  0.1816 -0.1294
19865W        W35674   1.534   2.552   3.526 -0.1290  0.0207 -0.0793
19866W        W35675   6.133   8.602   1.043 -0.0199  0.3978 -0.1939
19867W        W35676  14.104   7.155  16.246  0.0577  0.0354  0.1390
19868W        W35677   1.085   1.902   0.298 -0.1230 -0.1963 -0.0877
19869W        W35678  15.344   5.983  15.724  0.0932  0.2346 -0.1185
19870W        W35679   0.787   6.106   1.445 -0.0418  0.1570  0.2051
19871W        W35680  16.087   8.004  14.151 -0.2063 -0.1416 -0.1699
19872W        W35681   8.042  10.432   1.551 -0.1420  0.3125  0.2192
19873W        W35682  15.129   9.056  13.464 -0.2300  0.2818 -0.0722
19874W        W35683  17.235   7.855  12.439 -0.0171  0.0081  0.0064
19875W        W35684   7.996   6.578  12.443  0.0674 -0.1507 -0.0681
19876W        W35685   8.120   4.464   4.498 -0.0571 -0.1345  0.1147
19877W        W35686   1.924   3.277  12.511 -0.0803 -0.1293  0.0946
19878W        W35687   3.724   2.214  12.652  0.1736 -0.1320 -0.1268
19879W        W35688  13.932   8.520   1.162  0.0625 -0.0447  0.2023
19880W        W35689  17.528  10.054  16.580  0.0763 -0.3287  0.0868
19881W        W35690   0.413  13.140  15.478  0.1248  0.1309  0.0361
19882W        W35691   4.103  15.498   5.543  0.4266  0.2317 -0.1412
19883W        W35692   5.371  10.736   1.617 -0.0197  0.0365  0.3882
19884W        W35693   7.058  16.358  13.225  0.4045  0.1225 -0.0004
19885W        W35694   9.767   3.684  13.488  0.0113  0.2100  0.0428
19886W        W35695   1.849   5.681  16.473  0.0359  0.1411 -0.1494
19887W        W35696   2.828   9.081   5.286  0.2105 -0.1663  0.0722
19888W        W35697   9.102   2.932  14.240  0.1157 -0.0349  0.2224
19889W        W35698  16.190   8.409  12.126 -0.2374 -0.1795  0.0143
19890W        W35699  12.012  12.141   4.313 -0.1132  0.1324 -0.1449
19891W        W35700   5.113   4.689   1.452 -0.3064 -0.1493  0.3155
19892W        W35701  14.167   1.614  11.976  0.0355  0.0591 -0.0505
19893W        W35702   7.321   3.387   0.445  0.0057  0.1733 -0.0063
19894W        W35703   3.288   3.276   3.012 -0.1135  0.0402 -0.2051
19895W        W35704   0.780   7.103  11.867 -0.2112  0.0538 -0.1897
19896W        W35705   6.467  10.709   0.787  0.0827 -0.0521  0.1728
19897W        W35706  13.824   3.119  14.173  0.1476 -0.0537 -0.1124
19898W        W35707   8.286   5.655   1.692 -0.3408  0.1892 -0.1797
19899W        W35708   6.611  13.597  16.946 -0.0618 -0.2523 -0.2167
19900W        W35709   3.907   5.712  14.535  0.0233  0.1643  0.0172
19901W        W35710   6.889   2.545   2.674  0.3645 -0.0130  0.0902
19902W        W35711   2.780   8.503  15.590 -0.1438 -0.2542  0.0258
19903W        W35712   1.358   5.652  16.749 -0.0357  0.3683 -0.0017
19904W        W35713  14.212  10.931  16.651 -0.2097  0.5253 -0.2186
19905W        W35714   4.546  16.740  16.577 -0.0848 -0.1459 -0.1603
19906W        W35715  12.355   3.244  12.818  0.3632 -0.1735  0.0590
19907W        W35716   7.010   5.914  11.895  0.2175  0.0190  0.1764
19908W        W35717   3.946   6.760  13.718 -0.1611  0.0155  0.1783
19909W        W35718   0.285   2.568   0.502 -0.0095 -0.0591 -0.0189
19910W        W35719   5.982   5.398  13.340 -0.0663 -0.0033 -0.1948
19911W        W35720  12.763  10.786  11.847 -0.0394 -0.0683 -0.2065
19912W        W35721   9.140  10.212   2.380 -0.1566  0.0736  0.1730
19913W        W35722   1.066  10.729  15.721  0.0793 -0.0614 -0.0783
19914W        W35723  15.554   3.425  16.361 -0.0068 -0.0449  0.0677
19915W        W35724   2.475   4.953   1.789  0.0064 -0.0318 -0.1683
19916W        W35725   5.187  16.035   3.357  0.2424 -0.0607  0.0708
19917W        W35726  13.221  17.438  16.048  0.2366 -0.1073 -0.2107
19918W        W35727   5.890  10.255   6.263 -0.2309  0.1562 -0.0271
19919W        W35728  12.191   5.013  15.123 -0.0604 -0.0556  0.2071
19920W        W35729   4.940   1.656   1.801  0.1575 -0.0084  0.0930
19921W        W35730  13.162  12.948  15.578 -0.0945 -0.4550 -0.3966
19922W        W35731  11.002   1.525   0.952 -0.2917 -0.0497  0.0668
19923W        W35732  14.833   3.822  12.899 -0.0602 -0.0166  0.1571
19924W        W35733   9.626  13.507  14.328 -0.4020 -0.3307 -0.0137
19925W        W35734   5.770   7.976   0.446 -0.1797  0.1359 -0.1312
19926W        W35735  12.828   5.403   1.312 -0.1960 -0.3237  0.1888
19927W        W35736   9.598  14.329  11.075 -0.0160 -0.0504  0.2520
19928W        W35737   5.804   7.180  13.695  0.0153  0.1682 -0.0408
19929W        W35738  17.312   2.847   2.723 -0.0317  0.1984 -0.0950
19930W        W35739   1.087   9.218  16.667  0.2032 -0.0294  0.3831
19931W        W35740  10.762   9.155   0.690 -0.1802  0.3495 -0.0343
19932W        W35741  13.096   0.746   0.818  0.1677  0.0817 -0.2936
19933W        W35742   4.973   6.252  16.017 -0.4600 -0.0347  0.4507
19934W        W35743   7.562   1.802   2.554  0.3017 -0.1028  0.2541
19935W        W35744   8.745   3.959  12.729  0.0528  0.2097  0.2053
19936W        W35745   9.903  16.418  15.647 -0.1673  0.0385 -0.0186
19937W        W35746   7.234  17.306  13.302 -0.0362  0.2119  0.0264
19938W        W35747   4.768   9.655  13.941 -0.1511  0.0404 -0.0474
19939W        W35748   8.293  16.019  14.238  0.0728  0.2612 -0.0970
19940W        W35749  16.890  16.503  13.345 -0.0201 -0.1453  0.0220
19941W        W35750  16.371   7.415  15.705 -0.0990 -0.1466  0.2433
19942W        W35751   4.360   4.016  13.515 -0.1585 -0.0219 -0.2591
19943W        W35752  10.632  12.232   0.225 -0.4464 -0.2007 -0.1776
19944W        W35753   0.980   6.220   5.585  0.0607 -0.0545  0.0901
19945W        W35754  10.297  16.107   1.322 -0.2015  0.1292 -0.0379
19946W        W35755  12.490   6.524   4.231  0.1777 -0.3130 -0.0510
19947W        W35756   6.507   5.209  15.769  0.1986  0.0408 -0.2154
19948W        W35757  17.361   4.980   0.503  0.2165  0.2443  0.0865
19949W        W35758   9.531   7.842   1.316 -0.0182 -0.0938 -0.1242
19950W        W35759  13.099  15.318  12.189 -0.1312 -0.1209  0.1090
19951W        W35760  12.799   1.818   2.459 -0.3295 -0.2566 -0.3314
19952W        W35761   8.053   9.519  14.282  0.2919  0.1903 -0.0591
19953W        W35762   2.408   8.340  16.799 -0.2388 -0.0278  0.0014
19954W        W35763   0.844  17.053   1.067 -0.2513 -0.0041  0.0721
19955W        W35764  12.794  12.294   2.468 -0.1358 -0.0018 -0.0853
19956W        W35765  17.644   5.057   0.145 -0.1230 -0.0569  0.1016
19957W        W35766  14.805  15.354   3.644  0.0095 -0.2246 -0.1230
19958W        W35767  10.334  12.854   3.013  0.1375  0.0702 -0.0554
19959W        W35768   0.306  17.445   5.654  0.2485 -0.2745 -0.1482
19960W        W35769   4.262   0.601  16.554  0.2715  0.0302  0.0190
19961W        W35770  10.780  12.238  11.805  0.3481 -0.1549 -0.4426
19962W        W35771   3.634   8.670   5.414 -0.2104 -0.0783  0.1581
19963W        W35772   6.676   0.049  16.034 -0.1025 -0.2627  0.0822
19964W        W35773  15.823   1.485   0.051 -0.0073  0.0300 -0.1887
19965W        W35774  17.577   4.388  11.994  0.0695  0.1238 -0.1435
19966W        W35775   1.344  12.791  16.479 -0.0462  0.1335 -0.0413
19967W        W35776  12.657   0.644   1.018 -0.3298  0.3383  0.2010
19968W        W35777  15.219  11.019   5.491  0.1769  0.1063  0.1203
19969W        W35778   2.183   6.086  12.431  0.0875 -0.1584  0.2322
19970W        W35779  12.927   4.226   2.449  0.2747 -0.0931 -0.2325
19971W        W35780   2.144  15.132  14.988 -0.1879  0.1389 -0.0394
19972W        W35781  11.356  12.778  13.815  0.0313  0.0146  0.1806
19973W        W35782   1.999  10.844   0.690 -0.0468 -0.0494 -0.3816
19974W        W35783  11.779   5.788  14.528 -0.0626  0.1437 -0.1707
19975W        W35784   9.458   0.039   4.813 -0.2189 -0.0052 -0.1498
19976W        W35785  11.704   1.005  14.521  0.0411  0.0353  0.1315
19977W        W35786  11.097  14.102  16.664 -0.0138 -0.1281 -0.0923
19978W        W35787  12.133  14.859  11.286 -0.1189 -0.0656  0.0984
19979W        W35788  14.584   0.407  16.325  0.2919 -0.0952 -0.2692
19980W        W35789  14.607  10.644   4.948 -0.0450  0.0203  0.3573
19981W        W35790  17.206   8.745  13.807 -0.0735 -0.0321 -0.1446
19982W        W35791  12.765  10.827   3.247  0.0540 -0.0532  0.0825
19983W        W35792   0.020  10.917   2.158 -0.0066  0.2143 -0.1683
19984W        W35793  17.203   0.770   1.035 -0.2379  0.0422 -0.0493
19985W        W35794  12.160   1.550   0.371 -0.0016 -0.1520 -0.2926
19986W        W35795   2.463  14.043   4.143  0.1018  0.1724  0.2456
19987W        W35796  16.631   7.379   3.057 -0.1501 -0.1120  0.1466
19988W        W35797  12.993  17.018   2.888 -0.2000 -0.1715  0.0542
19989W        W35798   7.783  11.950  12.650  0.1526 -0.0159 -0.0202
19990W        W35799  10.011   0.279  13.978  0.0745 -0.1246 -0.0965
19991W        W35800   9.200   6.684   1.087  0.1198 -0.0430 -0.1543
19992W        W35801  11.867   6.841  12.331 -0.2165  0.3479  0.1495
19993W        W35802  16.494  12.753   4.651  0.1186 -0.1573  0.0030
19994W        W35803   3.341   5.202  11.810  0.0853 -0.1925 -0.1013
19995W        W35804  13.288  12.131   5.292 -0.3602  0.0317 -0.1690
19996W        W35805   3.390  10.372   5.783  0.1605 -0.1802  0.1616
19997W        W35806   9.925  11.032   5.374  0.0193  0.1007  0.1356
19998W        W35807   8.504   9.305  12.673 -0.0898 -0.0594  0.0536
19999W        W35808   5.865   0.718  11.870  0.1106 -0.1873  0.2371
20000W        W35809   9.634  10.596   5.696 -0.0189 -0.1702  0.0328
20001W        W35810  14.269  13.958   0.002 -0.2025 -0.1531 -0.1170
20002W        W35811   1.523   4.065   0.678 -0.3799  0.0629  0.0392
20003W        W35812   7.479  12.933  16.221  0.1088  0.2063  0.1819
20004W        W35813   7.162  11.174   1.979  0.0313 -0.1518  0.1249
20005W        W35814  10.674   5.082   3.892 -0.2302 -0.0443  0.3393
20006W        W35815  16.840  13.844   1.010  0.0045 -0.0338 -0.0932
20007W        W35816   4.453   7.812  11.995  0.2984  0.3601  0.2535
20008W        W35817   2.131   9.175   2.986 -0.2962  0.0392  0.0219
20009W        W35818  13.170   9.208  14.609  0.1279 -0.1610  0.0004
20010W        W35819  15.731  12.108   2.951 -0.1851  0.0398  0.2210
20011W        W35820   3.938   3.180   6.176 -0.2067 -0.1312 -0.3528
20012W        W35821  13.207  11.861   5.828 -0.3283  0.1952 -0.0171
20013W        W35822  12.721   6.023   2.412  0.0076 -0.2130  0.0241
20014W        W35823   8.013  11.670   5.946 -0.0390  0.0122 -0.2093
20015W        W35824  17.714   2.691   4.484  0.3991  0.0110 -0.1740
20016W        W35825   0.368  11.463   5.094  0.0071  0.1218  0.0625
20017W        W35826   2.728  13.092   0.293  0.3377  0.0583 -0.0980
20018W        W35827  11.721   4.113   0.844 -0.0812 -0.1086  0.0767
20019W        W35828   8.664  14.175   0.635  0.0636 -0.2475  0.3243
20020W        W35829   7.543  10.671   6.603 -0.0479 -0.2105  0.0534
20021W        W35830  11.339  10.090   1.346  0.2646 -0.2450 -0.1179
20022W        W35831   8.174   6.665   1.466  0.2016  0.2383 -0.1935
20023W        W35832  15.181  11.518   1.522 -0.0970 -0.2184 -0.2723
20024W        W35833   1.774  10.050  12.636  0.0406  0.0741 -0.0867
20025W        W35834  13.849   4.134  16.615  0.1535 -0.2230 -0.1082
20026W        W35835  14.172  17.367  12.954  0.0823  0.0030 -0.0679
20027W        W35836  13.632   0.657   1.628 -0.0983  0.2364  0.1930
20028W        W35837   5.436   5.860   1.615 -0.0408 -0.0899 -0.2065
20029W        W35838  11.452   0.957   3.019 -0.1594  0.1231  0.0183
20030W        W35839  13.515  17.283   1.141  0.0163 -0.0850  0.1073
20031W        W35840   2.120   0.664  15.896 -0.2173 -0.0850  0.0561
20032W        W35841   2.536   3.433   2.594 -0.0081  0.0494 -0.2083
20033W        W35842   3.255  17.641   0.955 -0.0526  0.0872 -0.0262
20034W        W35843  15.688  16.492   3.812 -0.0881 -0.0043 -0.0755
20035W        W35844   8.621   8.316  11.894 -0.0987 -0.0175  0.0047
20036W        W35845   0.009  11.263  13.810  0.1649  0.1037  0.1372
20037W        W35846  11.467   9.380   5.008  0.2038 -0.1845  0.1092
20038W        W35847  15.401  17.593   4.358 -0.0202  0.2358 -0.0022
20039W        W35848   3.096  10.658  15.766  0.0639 -0.1039  0.0937
20040W        W35849  11.520   6.903   2.878 -0.0307  0.2704 -0.0441
20041W        W35850  16.806  11.546   0.285  0.2889  0.0050  0.1661
20042W        W35851   8.174  12.743  14.401 -0.0567  0.1083 -0.1549
20043W        W35852  11.039   4.910   4.770 -0.1176  0.1045 -0.1540
20044W        W35853   8.538  15.718   5.622 -0.0868 -0.0213  0.0280
20045W        W35854   1.433  16.204  13.194  0.1837 -0.1365  0.0191
20046W        W35855   1.735  14.061  11.395  0.1959 -0.0440 -0.3474
20047W        W35856   4.874   5.010   4.137 -0.1138  0.1059 -0.0463
20048W        W35857  15.367   1.644  14.449 -0.1294  0.0683  0.2856
20049W        W35858   0.598   2.696  13.963 -0.0475 -0.1627 -0.0103
20050W        W35859   3.850   1.185   2.984  0.2162  0.0757  0.0444
20051W        W35860  16.457   3.868  14.898 -0.1461  0.3010 -0.3173
20052W        W35861  16.883   4.483   3.540 -0.2807 -0.2645  0.1934
20053W        W35862   5.334  11.753  12.564  0.0407 -0.4591 -0.0215
20054W        W35863   2.532  13.165   4.610 -0.0625  0.0772  0.1812
20055W        W35864   4.510  13.657   4.404 -0.0972  0.0389  0.0024
20056W        W35865   6.091  14.873  15.519 -0.1541 -0.1935 -0.0391
20057W        W35866   8.666   8.262  14.515  0.0602  0.0982  0.2966
20058W        W35867  12.303   7.242   5.659 -0.0600  0.0363  0.2546
20059W        W35868   6.736   4.346  16.776 -0.1722 -0.2181 -0.3618
20060W        W35869   9.672   4.630   5.496 -0.1210  0.1561 -0.0466
20061W        W35870   5.891   5.396   1.227 -0.0824  0.0304  0.1735
20062W        W35871   8.787   9.177   3.131  0.0241  0.1579 -0.2961
20063W        W35872  14.594   4.555  16.831  0.0963 -0.0338 -0.0429
20064W        W35873   1.085  12.350  12.496  0.1967  0.0930  0.2103
20065W        W35874   1.378   9.659   2.197 -0.2249  0.1121 -0.0178
20066W        W35875   7.752   7.653   2.399  0.1756  0.1577  0.0340
20067W        W35876   7.890   6.492  13.897 -0.1737  0.1484  0.1529
20068W        W35877   5.018   9.372   1.670  0.0183  0.0222  0.2285
20069W        W35878  15.347  11.665   2.944 -0.4250  0.1825 -0.4100
20070W        W35879  17.028  16.975   3.733 -0.1219  0.1831  0.0132
20071W        W35880   0.507   3.846   3.524 -0.1123  0.1169 -0.0322
20072W        W35881  10.591  13.255   0.706 -0.0188  0.2045  0.0426
20073W        W35882  14.053   6.584  14.641 -0.2515  0.1747  0.0969
20074W        W35883  11.056   4.780  16.476  0.0163 -0.1110  0.0728
20075W        W35884   5.115   3.298  14.433  0.0249  0.1541 -0.0472
20076W        W35885  10.171   5.725  12.475 -0.0962 -0.0179  0.1785
20077W        W35886   4.313  14.473  11.948 -0.0532 -0.2412 -0.0409
20078W        W35887  13.307  15.411  16.551  0.2326 -0.1902 -0.1405
20079W        W35888  15.944   5.427  15.394  0.0555 -0.2138  0.0963
20080W        W35889   6.652   8.683  14.193 -0.0839  0.0766 -0.1671
20081W        W35890   8.401   9.677   5.687 -0.0042 -0.3550 -0.4121
20082W        W35891  12.506   0.959   0.103  0.0327  0.3143  0.0528
20083W        W35892  15.155   7.728  14.080 -0.2508  0.2330  0.0147
20084W        W35893   1.195   6.157  16.704 -0.0723 -0.1012  0.1127
20085W        W35894   3.832  12.813  12.863  0.0717  0.0033  0.0910
20086W        W35895   5.903   7.670   2.079  0.3243 -0.1311 -0.3601
20087W        W35896   1.154   3.528   2.977 -0.3298 -0.2680  0.3685
20088W        W35897   1.617   4.699   0.517 -0.0132 -0.2922  0.2257
20089W        W35898  14.692   1.590   0.904 -0.2964  0.0602 -0.0028
20090W        W35899   9.651  14.484  11.622  0.2720  0.2489 -0.1727
20091W        W35900  14.219  11.597  11.577 -0.0513 -0.4134 -0.1439
20092W        W35901   1.950  17.733   1.243  0.3797 -0.3450 -0.1314
20093W        W35902  15.799  16.896   5.842  0.2505 -0.1190  0.1341
20094W        W35903   8.202  11.853  14.509 -0.1409  0.0188  0.0719
20095W        W35904   9.523   1.824   3.722  0.0493 -0.1801 -0.0822
20096W        W35905  10.839  17.117  11.758 -0.2610 -0.0756  0.0504
20097W        W35906  10.157  16.133   0.852  0.3607 -0.3214  0.1048
20098W        W35907  14.133   0.783   1.086  0.2086 -0.1094  0.0292
20099W        W35908   1.326   5.768  13.128  0.0983  0.2169  0.3449
20100W        W35909   5.753   3.114   1.659  0.3327  0.0657  0.1753
20101W        W35910   2.184  13.537   1.657 -0.1361  0.0664  0.1087
20102W        W35911  11.959   6.330   1.746  0.2547 -0.0878 -0.2196
20103W        W35912   3.142   4.382  16.599  0.0615  0.1224  0.0873
20104W        W35913   9.146   0.514   5.698 -0.3176 -0.0003 -0.1035
20105W        W35914   1.065   1.026   1.927 -0.0039  0.2303  0.2296
20106W        W35915   8.114  16.730  11.468  0.0313 -0.3915  0.1535
20107W        W35916  14.641   9.196  14.684 -0.0616  0.2292 -0.0219
20108W        W35917   5.514  14.483   0.576  0.1318  0.1634 -0.2015
20109W        W35918  14.741   1.751   3.456 -0.1683 -0.1479  0.0315
20110W        W35919  15.298   6.001   0.211 -0.0877 -0.0305 -0.3395
20111W        W35920   2.660   1.873  16.054 -0.0295  0.2707  0.3517
20112W        W35921   7.142   8.564  13.058 -0.3064 -0.4067 -0.1235
20113W        W35922   6.124   3.505   2.618 -0.0352  0.0760 -0.0789
20114W        W35923  17.036   5.077   6.546 -0.0584  0.0685 -0.2164
20115W        W35924  12.273  13.400  15.960  0.0257 -0.1474 -0.1152
20116W        W35925  15.862   3.866  12.311  0.1233 -0.0965  0.0948
20117W        W35926   0.109  14.981   0.876 -0.2075  0.0314  0.1691
20118W        W35927   4.684  13.154  13.005  0.1893  0.1955  0.2748
20119W        W35928  16.194   9.770  16.496  0.0496  0.2784  0.0145
20120W        W35929  13.177   3.885  13.343  0.0804 -0.0625  0.1450
20121W        W35930  12.205  16.247   4.834 -0.4129  0.0190  0.1464
20122W        W35931   9.967   3.078   3.863 -0.0992  0.0739 -0.0664
20123W        W35932  14.492  15.740  14.875 -0.3776  0.0928 -0.2297
20124W        W35933   2.921  11.260   4.464  0.1314 -0.1413  0.1356
20125W        W35934  16.890   2.255   1.879  0.0438 -0.0816  0.2880
20126W        W35935  14.099   4.712   2.564 -0.2907  0.1226 -0.2289
20127W        W35936   3.778   1.032   5.032  0.1889 -0.2149 -0.0842
20128W        W35937   9.311   6.523  16.269  0.3907 -0.1822  0.0994
20129W        W35938  10.211  12.567  16.131  0.2111  0.0982 -0.0479
20130W        W35939  10.480   2.891   3.112 -0.1318 -0.0095  0.0202
20131W        W35940   9.967  17.651  13.608 -0.1191 -0.3746  0.2243
20132W        W35941   1.074  14.161  14.399 -0.0453 -0.1203  0.1060
20133W        W35942   3.519  11.993  15.064  0.2424 -0.0705  0.1170
20134W        W35943  17.242   0.693  13.524 -0.0572 -0.1774  0.0465
20135W        W35944  10.847  14.695   3.457  0.0005  0.3964 -0.1020
20136W        W35945   1.946  14.831  14.410  0.1709  0.0954 -0.0757
20137W        W35946  12.458   3.050   2.136 -0.0082  0.2968  0.0045
20138W        W35947  17.346   5.136   5.268  0.1287  0.1287  0.0407
20139W        W35948  16.607  15.379  12.587 -0.1504  0.2173  0.1355
20140W        W35949   9.624  17.352  15.439 -0.0966 -0.0610  0.2104
20141W        W35950  10.203   2.134   2.576 -0.1020 -0.1242  0.1622
20142W        W35951   4.334   3.780  15.831  0.0900 -0.0810 -0.0011
20143W        W35952  11.885  13.832   1.184  0.1718 -0.0648 -0.1884
20144W        W35953   2.585   2.223   3.548 -0.0376  0.0013  0.0278
20145W        W35954   1.408  17.648  16.547 -0.0950  0.1025  0.2403
20146W        W35955  13.849   8.593  12.305  0.0358 -0.0659  0.1346
20147W        W35956  16.539   4.495   2.781 -0.1382  0.1202 -0.0040
20148W        W35957   7.648  14.235   4.055  0.1937  0.1876  0.0070
20149W        W35958  12.555  16.808   3.625 -0.0128  0.0240  0.0471
20150W        W35959  11.832  15.976  11.825  0.2716 -0.1226 -0.1350
20151W        W35960  13.989  16.748  15.042  0.3793  0.2180  0.0177
20152W        W35961   9.297   2.874   5.040 -0.2592 -0.2035 -0.0355
20153W        W35962   6.089  11.258   5.523 -0.4899  0.1277  0.4154
20154W        W35963  16.621  12.802  15.557 -0.2133 -0.0019  0.0061
20155W        W35964   7.633   3.246  14.379 -0.2643 -0.1461 -0.2162
20156W        W35965   5.169   4.835  15.397 -0.1543 -0.2168 -0.2586
20157W        W35966  12.246  14.400   2.526  0.0555 -0.2559  0.0731
20158W        W35967   0.548  14.165   2.355 -0.1560 -0.2090 -0.2232
20159W        W35968   5.428   8.287   1.730 -0.0885 -0.1463  0.2003
20160W        W35969  12.563  16.496  14.354 -0.2789 -0.2762  0.0364
20161W        W35970   0.998   4.259   1.470 -0.2563 -0.3148  0.2261
20162W        W35971   0.633   4.983  11.984  0.0404 -0.0858  0.0068
20163W        W35972   6.426   4.892  15.402 -0.0374 -0.2229 -0.2165
20164W        W35973   0.863   7.145  15.946  0.1596 -0.2153  0.2198
20165W        W35974  15.503   6.025  16.755 -0.1203 -0.0060  0.1139
20166W        W35975  14.491  16.209   4.769 -0.0883 -0.0314 -0.0541
20167W        W35976   4.345   6.782  16.235  0.2014  0.0021  0.0432
20168W        W35977   6.123  12.580  11.994  0.0731 -0.0855  0.0418
20169W        W35978   1.644   6.510  16.876 -0.2398 -0.1262 -0.0245
20170W        W35979  13.346   7.561  12.189  0.1771  0.2616  0.1378
20171W        W35980   4.986  10.050  14.220 -0.1728  0.1147 -0.0098
20172W        W35981   1.347   4.349   4.964  0.1681 -0.1703  0.1533
20173W        W35982   5.299   8.040   5.409  0.1601  0.1767 -0.1764
20174W        W35983  10.033  14.112  10.687  0.0108 -0.0178  0.2712
20175W        W35984   3.357   9.164  13.480 -0.0448  0.0582 -0.4104
20176W        W35985   3.415   5.018   5.010 -0.1073 -0.0819  0.1438
20177W        W35986   9.593   7.785   6.160 -0.0576  0.0492  0.0804
20178W        W35987  15.840   5.518   4.436  0.0788 -0.0083 -0.2056
20179W        W35988  13.793   9.629   3.194 -0.2141  0.0762 -0.0169
20180W        W35989   2.178   8.131  16.082 -0.0175 -0.0269  0.0440
20181W        W35990  10.806   0.058   0.879 -0.0603 -0.0008 -0.1794
20182W        W35991  10.877   5.394  15.744 -0.1773 -0.0330  0.0936
20183W        W35992  12.335   1.104  14.000  0.1147 -0.1566  0.0742
20184W        W35993   7.500   2.309   4.339  0.1867 -0.0189  0.0777
20185W        W35994  17.510  16.961  12.306  0.1757  0.1570  0.2901
20186W        W35995   9.327  17.280   4.816 -0.0450  0.4392  0.1890
20187W        W35996   3.961  11.025  13.667  0.0944 -0.1020  0.0033
20188W        W35997   9.838   4.992   0.670  0.0584 -0.3074 -0.0239
20189W        W35998  15.986   7.040   4.756 -0.1584  0.1301  0.1115
20190W        W35999  14.487   0.793   5.246  0.0494 -0.4210  0.0657
20191W        W36000  12.730   9.258  11.894 -0.0613  0.1675 -0.2305
20192W        W36001   5.650   2.124   5.868 -0.2020 -0.1780  0.1083
20193W        W36002  13.206  15.778  12.083 -0.0299 -0.1921 -0.0999
20194W        W36003  17.670  13.887   5.235  0.0307 -0.1328  0.1493
20195W        W36004   1.190   5.821   5.796  0.1058 -0.1911  0.0223
20196W        W36005   1.585   3.464  13.116  0.3549  0.0420 -0.2218
20197W        W36006   3.716  15.408  12.919  0.0643  0.1463 -0.2540
20198W        W36007   6.754   4.397   4.344  0.1573 -0.2091  0.0562
20199W        W36008  11.938   8.345  12.386  0.1741 -0.1082 -0.0539
20200W        W36009   3.813  10.177   3.506 -0.1379  0.1203 -0.1515
20201W        W36010  13.788   2.317   3.849  0.2040 -0.0961 -0.0084
20202W        W36011   2.140  11.897   5.417  0.0587  0.0256  0.1406
20203W        W36012   1.173  11.383  12.830 -0.1051  0.1494  0.0558
20204W        W36013  16.556  12.530   4.123  0.2344 -0.0234 -0.0924
20205W        W36014  14.533   1.859  15.364  0.0209 -0.0006  0.1001
20206W        W36015  10.891  11.274   4.677 -0.3429 -0.0368  0.1731
20207W        W36016  14.366   9.966  13.797 -0.1577 -0.0348  0.0062
20208W        W36017  12.589   9.269  14.494  0.0353  0.1995 -0.0815
20209W        W36018   9.374  14.391  13.243  0.1998 -0.0757  0.1848
20210W        W36019   8.943   2.265   3.066 -0.0261  0.3053 -0.0773
20211W        W36020  17.246  14.428   4.693  0.2533  0.1579  0.0391
20212W        W36021  13.411  15.724  14.108 -0.1273 -0.1134  0.0797
20213W        W36022  16.969   6.530   3.410  0.0569 -0.1159  0.1588
20214W        W36023  16.315  17.714   5.540  0.0471 -0.0641  0.4542
20215W        W36024   1.405  14.368  14.005 -0.0398  0.4311  0.0507
20216W        W36025   4.144  10.915  15.836  0.2775 -0.0754  0.0493
20217W        W36026   3.148  17.331   3.230 -0.1237  0.1587 -0.2919
20218W        W36027  17.352  16.124   3.429  0.1131  0.2520  0.0618
20219W        W36028   0.305   9.316   2.300 -0.0864 -0.1358  0.1308
20220W        W36029   8.309   1.579  11.392 -0.0913 -0.2201  0.1678
20221W        W36030  13.866   9.022  15.920  0.0835 -0.2461  0.2176
20222W        W36031   1.824   1.421  12.952  0.0042  0.0594  0.1062
20223W        W36032   4.497   8.902  14.472 -0.2586  0.0444  0.1105
20224W        W36033   2.412  11.066  11.197 -0.0165 -0.2901 -0.3174
20225W        W36034   7.828   0.913   4.911 -0.1293  0.0781 -0.1393
20226W        W36035  12.317   3.399  14.235 -0.1248 -0.5655 -0.0451
20227W        W36036  13.427  14.925  16.703 -0.1440  0.0289 -0.0571
20228W        W36037  11.004   1.024   4.297 -0.1518 -0.2177  0.1375
20229W        W36038   3.495  16.246   2.974 -0.0535  0.1667 -0.1328
20230W        W36039   9.921  11.360   4.175 -0.0136 -0.0283 -0.1275
20231W        W36040   1.002   9.308   2.108  0.1003 -0.0179  0.0358
20232W        W36041   1.762   1.976   0.907 -0.0891 -0.1313  0.2085
20233W        W36042  15.035   9.258  16.363 -0.1051 -0.0754  0.0173
20234W        W36043  11.512  17.687  16.204  0.2823  0.1005 -0.0933
20235W        W36044  14.121   5.854  11.639  0.0435  0.1540 -0.1559
20236W        W36045  11.270   0.035  12.552 -0.0867 -0.0725  0.1194
20237W        W36046   4.859   6.614   1.651  0.1675 -0.0750 -0.1729
20238W        W36047   3.859   7.062  16.220 -0.0241 -0.4096  0.0004
20239W        W36048   7.198  17.504   5.211 -0.0435 -0.0630  0.0117
20240W        W36049   8.264  16.843  16.902 -0.1412 -0.3235 -0.1190
20241W        W36050  15.427  15.598  15.563 -0.0959  0.0167 -0.0062
20242W        W36051  14.826   2.942   1.457 -0.1496 -0.1393 -0.0228
20243W        W36052  14.759   2.261  15.547 -0.0143 -0.0784  0.0295
20244W        W36053  15.144  12.706  11.270 -0.2152  0.1429 -0.0791
20245W        W36054   4.497  11.806   3.153  0.1611  0.2112  0.3138
20246W        W36055   8.183   4.259   5.158 -0.0880 -0.2889 -0.0891
20247W        W36056  16.000  14.429  15.452  0.2123 -0.1791 -0.1227
20248W        W36057  14.616   0.712   1.680  0.3050  0.1780  0.2658
20249W        W36058  14.313   4.289  13.985  0.2381 -0.1174  0.1166
20250W        W36059   9.907   3.912   1.508 -0.0004  0.0729 -0.1282
20251W        W36060   0.529  17.534  13.793  0.0841 -0.0629 -0.2747
20252W        W36061  12.095   7.365   4.534  0.1962 -0.0614  0.0951
20253W        W36062   7.239   8.675   5.220  0.1851  0.0512  0.0974
20254W        W36063   9.657   0.594  16.121  0.2026 -0.0171  0.2008
20255W        W36064  15.242  16.284  15.970  0.1132 -0.0305  0.1428
20256W        W36065   6.845   3.204  13.862 -0.0057 -0.0158  0.1557
20257W        W36066  13.148  15.313   2.849  0.2542  0.2446  0.5070
20258W        W36067  11.504   0.893   4.053  0.0345 -0.0180  0.0576
20259W        W36068  10.734  14.653   0.223  0.0524  0.1538  0.0819
20260W        W36069   3.146  11.074   5.263  0.0142 -0.1989  0.1039
20261W        W36070  14.085   7.379  16.704 -0.2786 -0.2879 -0.0609
20262W        W36071  12.787   9.972   3.753  0.2533 -0.1687 -0.3655
20263W        W36072  13.604  15.286  14.335  0.0237  0.0031  0.0942
20264W        W36073   3.259   4.864   1.726 -0.2795 -0.1018  0.3589
20265W        W36074   9.204   3.341  13.790  0.2041 -0.1479 -0.0841
20266W        W36075  17.649   3.750   1.211 -0.0170 -0.0403  0.1861
20267W        W36076   1.804   7.819   3.385 -0.0547  0.1979 -0.0208
20268W        W36077   1.295   8.440   2.571 -0.3366 -0.4445  0.0415
20269W        W36078  12.809   2.239  12.924 -0.1283  0.0207 -0.3253
20270W        W36079  11.231   0.506   5.095  0.0670 -0.0579  0.0020
20271W        W36080  14.550   1.421  13.496 -0.1951  0.0409 -0.0213
20272W        W36081   2.206  16.105  13.006 -0.2362  0.0819 -0.3235
20273W        W36082   5.610   2.813   4.452 -0.1516  0.1784 -0.1341
20274W        W36083   5.633   3.713   0.244  0.1296 -0.1736  0.2053
20275W        W36084  11.176  13.215   2.864 -0.0729  0.1724 -0.1175
20276W        W36085  14.689   9.232   5.589 -0.2340  0.2385  0.1901
20277W        W36086  16.866   3.940   6.053  0.0336 -0.2874 -0.0259
20278W        W36087   9.684   0.918  15.201  0.2544 -0.0919 -0.1582
20279W        W36088  14.441  11.729   3.042 -0.1698 -0.1371 -0.0042
20280W        W36089   1.876  16.293   2.112 -0.0643  0.1641  0.2417
20281W        W36090   4.550   3.989  13.999 -0.0869  0.0174 -0.0637
20282W        W36091   4.341  11.534  10.622 -0.0489  0.1766 -0.1703
20283W        W36092  14.593  16.701  16.495  0.1600 -0.0039  0.1754
20284W        W36093  16.239  13.434   2.981  0.0185 -0.0469 -0.1537
20285W        W36094   4.010  11.606  12.311  0.3622 -0.0266  0.1284
20286W        W36095  11.144  15.311   2.101 -0.0064 -0.1738  0.1360
20287W        W36096  15.025  16.069   3.588 -0.2663  0.0895 -0.2455
20288W        W36097  12.173  17.712   2.166  0.0011  0.0280  0.1605
20289W        W36098   3.807  11.417   1.267 -0.1211 -0.3477 -0.0540
20290W        W36099  14.593  11.874   5.568  0.0654  0.2001  0.0156
20291W        W36100   9.055   0.576   4.928  0.0954  0.3207 -0.2841
20292W        W36101  11.693   2.467   1.228 -0.0209  0.3906  0.2133
20293W        W36102  17.311  12.606   3.935 -0.4111  0.0295 -0.1381
20294W        W36103   1.208  16.501   5.310  0.0113  0.0039  0.0260
20295W        W36104  12.926  12.824   0.429 -0.0027  0.2216  0.1843
20296W        W36105   3.805   3.347   4.330  0.0307  0.2127 -0.1314
20297W        W36106   5.198   6.600  12.210  0.1834  0.1733 -0.0829
20298W        W36107   1.871  17.587  16.339  0.4504 -0.1235  0.2119
20299W        W36108  17.569  14.439   1.638 -0.1294 -0.3423  0.2122
20300W        W36109   7.312  16.622  16.674 -0.0952 -0.0965  0.1232
20301W        W36110  11.495   6.494  13.075 -0.0363 -0.1304 -0.1562
20302W        W36111   3.354   7.838   1.099 -0.2124  0.3886  0.2636
20303W        W36112   4.193   9.090   6.418  0.0933 -0.1417  0.0390
20304W        W36113   4.237   8.995   5.496 -0.1235 -0.0008 -0.0954
20305W        W36114  12.362  16.175  12.165 -0.2104  0.3824 -0.0582
20306W        W36115   2.980  13.099   1.225 -0.0009 -0.3285  0.0069
20307W        W36116   5.492  10.839  13.717 -0.3293 -0.1942  0.0924
20308W        W36117   4.297   4.179   4.502  0.0647 -0.0176 -0.0461
20309W        W36118   9.416   3.495   5.597 -0.1263  0.0662  0.0514
20310W        W36119  14.651   8.139   0.501  0.0471  0.1698  0.0140
20311W        W36120   5.635   6.292  14.335 -0.1178 -0.1222  0.1509
20312W        W36121  16.339   1.694  12.832  0.0980  0.0446 -0.2107
20313W        W36122   1.215   2.647  11.653  0.1375  0.2581  0.2296
20314W        W36123   2.159   6.895  12.945 -0.1861 -0.1656 -0.2192
20315W        W36124   3.354  13.267   0.170 -0.0072 -0.2435 -0.2474
20316W        W36125  13.287   1.419   5.609  0.5163 -0.2885  0.2579
20317W        W36126  17.289  10.875   1.688 -0.4154  0.2907 -0.0405
20318W        W36127   0.708  12.209   4.103  0.0467 -0.1266 -0.0249
20319W        W36128  16.704   7.466   0.493  0.1074 -0.0524  0.0167
20320W        W36129  12.420  12.274   2.842 -0.2257  0.3010 -0.0453
20321W        W36130  11.578   2.235  16.347 -0.1441  0.1030 -0.0355
20322W        W36131  13.345   0.812   2.059 -0.3918  0.0959  0.2965
20323W        W36132   9.218  10.832   2.591  0.1753  0.2196 -0.1214
20324W        W36133   5.973  15.687  10.764  0.0214  0.1055  0.1332
20325W        W36134  15.542   1.033  15.704  0.0364 -0.0306  0.2949
20326W        W36135   9.139  11.281  11.204 -0.0053  0.0079  0.3132
20327W        W36136  17.264   6.471   5.079 -0.4497 -0.2481  0.0359
20328W        W36137   1.926   0.622  14.478  0.0457  0.4017 -0.0093
20329W        W36138  17.424   0.944  14.894 -0.3011  0.3241  0.1632
20330W        W36139   0.635  14.539  14.373 -0.1538  0.1735 -0.1070
20331W        W36140   3.598  11.238  14.539  0.3012  0.0346 -0.0346
20332W        W36141   1.712   8.597  13.933  0.2053  0.1422 -0.2316
20333W        W36142   7.984  14.647  13.517 -0.1211  0.1103  0.2187
20334W        W36143   1.176   5.856   1.941 -0.1007 -0.1276  0.1523
20335W        W36144  16.691   5.717   2.065 -0.1529  0.0084 -0.1132
20336W        W36145   4.672   7.904  14.789  0.3000 -0.0527  0.0539
20337W        W36146   0.577  15.196  15.890 -0.0657  0.0389 -0.0392
20338W        W36147  17.148   6.997  14.074 -0.0665 -0.0980 -0.0833
20339W        W36148   5.383   1.207   4.812  0.2312  0.1611  0.0068
20340W        W36149  12.593   9.409  15.070 -0.1301 -0.0293 -0.0994
20341W        W36150  11.376   7.801   3.941  0.2609 -0.2762  0.0678
20342W        W36151  12.973  10.523   0.274 -0.3161  0.0480  0.2135
20343W        W36152  14.726  11.243  13.993  0.0139  0.1307 -0.3668
20344W        W36153   2.291   3.893   6.204  0.0738 -0.2915 -0.0846
20345W        W36154  12.190   9.920  15.486  0.1959 -0.1859 -0.0320
20346W        W36155  10.588  10.560  16.481  0.0070 -0.0701 -0.1445
20347W        W36156  12.778  17.464  16.644 -0.0250 -0.2479  0.1395
20348W        W36157  16.316   0.859   3.979  0.0220  0.0274  0.0433
20349W        W36158   3.111   8.497  12.241  0.0907  0.0426  0.0179
20350W        W36159  16.442  12.641   0.267  0.0608  0.1089  0.2419
20351W        W36160   9.172  12.038   3.722  0.0689  0.0636  0.0150
20352W        W36161  10.678   4.072  11.915 -0.1131  0.0185  0.0900
20353W        W36162  12.475   1.723   5.316 -0.0780 -0.1208 -0.1608
20354W        W36163  15.421   2.165  13.276 -0.1285  0.0930 -0.1635
20355W        W36164   4.987   0.147   1.061 -0.2728 -0.3183 -0.1505
20356W        W36165  14.736   3.122  14.670  0.1560  0.0054  0.1046
20357W        W36166  10.361   4.667  14.504 -0.1531 -0.3069  0.2626
20358W        W36167  17.607   1.138   4.046 -0.2160 -0.2630 -0.2137
20359W        W36168   1.498  13.887  13.700  0.1520 -0.0491 -0.1279
20360W        W36169   5.402   9.457   3.788  0.1109  0.1125 -0.2224
20361W        W36170   9.851   3.651  15.771  0.0521  0.2504 -0.0707
20362W        W36171   2.893  11.899   2.680  0.0646  0.2880  0.1760
20363W        W36172   0.071  14.072  12.866 -0.1022 -0.0960  0.2165
20364W        W36173  13.911  12.712  14.860  0.0082 -0.2904 -0.0312
20365W        W36174   3.343  12.510  10.774 -0.1255  0.1172 -0.1487
20366W        W36175   5.125   9.160   3.344 -0.0843 -0.1399 -0.3000
20367W        W36176   8.877  10.127  15.518  0.0544 -0.2240  0.0966
20368W        W36177   7.263   7.106  16.123  0.2655 -0.1019  0.1044
20369W        W36178   1.690  16.017  14.152  0.1031 -0.4168 -0.0317
20370W        W36179  16.987   4.707   3.029 -0.1463  0.3003  0.1818
20371W        W36180  14.836  11.154  11.405  0.1502  0.1151 -0.0993
20372W        W36181   8.384  17.059   5.192 -0.0667  0.0508  0.2590
20373W        W36182   4.122  16.780  13.195  0.3457  0.1406 -0.1325
20374W        W36183   8.642   7.051   1.238  0.0350  0.2578 -0.0996
20375W        W36184  13.302   8.372   0.462  0.0286  0.0988 -0.2935
20376W        W36185  14.032   5.401   4.619  0.0211 -0.1317  0.1554
20377W        W36186   9.975  15.784   1.981  0.0337 -0.1375 -0.0782
20378W        W36187   6.231  11.853  13.515  0.1434  0.1435  0.0685
20379W        W36188   5.042   2.470  12.918  0.0317  0.0493  0.0908
20380W        W36189   9.030  15.888   1.828  0.4582 -0.0694 -0.0172
20381W        W36190  16.502   8.725   4.826  0.0525 -0.0690 -0.3385
20382W        W36191  17.725   9.196   2.689  0.0244  0.0596 -0.2330
20383W        W36192  14.139   1.028  15.519  0.0981 -0.1639  0.0441
20384W        W36193   3.387   0.048  11.859  0.0380  0.2767  0.0234
20385W        W36194  13.168   8.049   0.950 -0.1583 -0.2948 -0.3190
20386W        W36195  12.084   3.216   3.134  0.3599  0.2272  0.0140
20387W        W36196   5.218   6.133   4.910 -0.0173  0.2664 -0.0227
20388W        W36197  14.050  13.205   3.803  0.0960 -0.0411 -0.1516
20389W        W36198   2.140   0.679   2.021  0.0054 -0.0425 -0.1860
20390W        W36199  13.534  10.934   2.760  0.0747  0.1585  0.3829
20391W        W36200   4.918   4.830   5.104  0.1876 -0.0130 -0.1022
20392W        W36201   4.058  16.424  16.943  0.0242  0.3275  0.0152
20393W        W36202  17.319   6.666   1.172  0.0197  0.1098 -0.1047
20394W        W36203   6.042   5.120   2.197  0.0079  0.0516  0.0768
20395W        W36204   3.131   9.987  13.079  0.2867  0.0837  0.1919
20396W        W36205  11.736   5.973   4.256  0.1280 -0.0003  0.0474
20397W        W36206   0.701   9.680  12.275 -0.0322  0.1483 -0.0541
20398W        W36207   3.264   8.180   2.870  0.1457  0.0747 -0.0171
20399W        W36208   4.417  11.678   5.387 -0.0528 -0.2730  0.0861
20400W        W36209   8.102  10.083  12.962  0.1065  0.1138  0.1994
20401W        W36210   1.490  13.456  13.359  0.1905  0.2738 -0.0042
20402W        W36211  15.468  10.437   1.078  0.4944  0.1302  0.0184
20403W        W36212   5.976   1.586  11.188 -0.0294 -0.0540 -0.2546
20404W        W36213   9.524  13.559  12.617 -0.0954 -0.2261 -0.2994
20405W        W36214   2.995   8.067  16.761 -0.0814 -0.1404 -0.0516
20406W        W36215   7.588   0.509  14.918  0.0065 -0.2342 -0.1483
20407W        W36216   9.073   1.786  15.129 -0.0199 -0.1128  0.2008
20408W        W36217  17.250  15.837   2.525  0.2116 -0.0679  0.1213
20409W        W36218   2.993  14.948  12.901  0.1932  0.0688  0.2895
20410W        W36219  15.798  12.503  13.223  0.0773 -0.0236 -0.1385
20411W        W36220  13.896  15.718  14.066 -0.0189 -0.1689  0.1358
20412W        W36221  10.914  14.667  16.771 -0.3725  0.2927  0.1355
20413W        W36222   9.600  12.955  12.490  0.0745 -0.2315 -0.1195
20414W        W36223   0.580  11.664   2.075  0.3003  0.2028 -0.2330
20415W        W36224   7.421   0.396   4.258 -0.0245 -0.0258  0.2777
20416W        W36225   5.310  16.792  12.472 -0.0070  0.1841  0.0463
20417W        W36226   5.748   6.664  13.066  0.0135 -0.2144  0.1753
20418W        W36227   2.971   9.620  12.754  0.1838  0.1007 -0.1686
20419W        W36228   8.616   3.587   4.867  0.0197 -0.0390 -0.0506
20420W        W36229  10.651   8.296   2.495  0.2433  0.0341  0.0788
20421W        W36230   4.880   8.792   4.135  0.3831 -0.5107 -0.2990
20422W        W36231  12.842  10.680  13.185  0.1780 -0.0653  0.0552
20423W        W36232  15.245   5.903  15.209  0.2801  0.2173  0.0118
20424W        W36233   3.885   8.842   1.239 -0.0010 -0.0169  0.1327
20425W        W36234  10.147   6.704  14.853  0.3992 -0.1880 -0.0783
20426W        W36235   7.859   8.699   2.305  0.3761 -0.0407 -0.1141
20427W        W36236  17.064  12.451   1.859  0.0822 -0.1894 -0.1046
20428W        W36237   9.891  13.840   2.960 -0.0258 -0.0856  0.1941
20429W        W36238   8.160   7.206   5.642 -0.0746  0.0018 -0.0792
20430W        W36239  12.490  11.791   1.955  0.0476  0.2020 -0.3710
20431W        W36240   3.689   0.536   1.210 -0.1738  0.2149  0.1092
20432W        W36241   9.084   3.603  14.923 -0.4211 -0.0542  0.0049
20433W        W36242   6.089   4.175  11.602 -0.1422 -0.0662 -0.0963
20434W        W36243   0.200   4.151  16.223  0.0935 -0.0773  0.1672
20435W        W36244   5.705  12.154   0.103 -0.0234  0.1150 -0.0082
20436W        W36245   0.198  12.208   5.710  0.2682  0.0535  0.1549
20437W        W36246  13.536   7.833   3.187  0.0393 -0.0384 -0.1309
20438W        W36247   0.617  11.942  15.766  0.0548 -0.3184  0.1625
20439W        W36248   6.428  17.086   4.445  0.2381  0.0068  0.0742
20440W        W36249   5.538   8.784  13.055  0.0737  0.0689 -0.2185
20441W        W36250   7.743  14.876  11.865 -0.0776 -0.1577 -0.2044
20442W        W36251   5.403   9.739  14.918 -0.1824 -0.0409  0.0814
20443W        W36252  12.922  14.986   3.999  0.2737 -0.2055  0.0271
20444W        W36253   0.593   4.951   1.312 -0.3227 -0.0604 -0.0301
20445W        W36254  15.751   9.700  13.173 -0.1937  0.0436  0.2997
20446W        W36255   3.366  16.780   2.991 -0.0838  0.1069 -0.1925
20447W        W36256   1.607  10.046   3.711  0.1969 -0.1417 -0.1688
20448W        W36257   4.836   1.086   4.850  0.0799 -0.0657  0.1402
20449W        W36258   1.453  12.477   5.246 -0.0791  0.3090  0.2700
20450W        W36259   4.156  13.294  13.709 -0.3690  0.1838 -0.1404
20451W        W36260  16.355  15.301  15.681 -0.2231  0.0644 -0.1974
20452W        W36261   6.032   6.204  15.492  0.1682 -0.0743 -0.2755
20453W        W36262  16.621   6.720  12.962  0.1347  0.1352  0.1651
20454W        W36263  14.131   3.477  15.888  0.0663 -0.1159 -0.0895
20455W        W36264  11.365  13.924   4.434 -0.1661 -0.0256 -0.1578
20456W        W36265   4.910  12.207   6.011  0.0239  0.0069 -0.0522
20457W        W36266   9.577  10.751  12.082 -0.3042 -0.2165 -0.0554
20458W        W36267   3.072   1.489   3.317  0.3175  0.3214 -0.6045
20459W        W36268   2.624  15.118   1.175  0.0281 -0.1180 -0.0866
20460W        W36269   9.937   6.946  16.738 -0.3624 -0.0811  0.0345
20461W        W36270  10.897   4.083  12.774  0.0591  0.1040  0.0624
20462W        W36271   5.524   7.302   2.012 -0.4461 -0.0030 -0.2283
20463W        W36272   0.639  10.046   2.714  0.0050  0.0045 -0.2112
20464W        W36273   9.274   6.184   1.156 -0.2323  0.1451  0.1060
20465W        W36274  10.624   6.562   5.328  0.1532 -0.0711 -0.1371
20466W        W36275   3.712  10.699   0.382  0.0606 -0.1189  0.0135
20467W        W36276  16.020   2.079  16.957  0.1203  0.0309  0.0469
20468W        W36277   1.986  16.936  16.237 -0.0195  0.1091 -0.2113
20469W        W36278   2.066   5.112  12.126 -0.1840  0.1720 -0.0287
20470W        W36279  16.578   0.570   3.360  0.1746  0.1178 -0.2029
20471W        W36280   8.568   9.891  14.037 -0.2224  0.2641  0.0893
20472W        W36281   7.955   4.744   2.606 -0.4432 -0.0212 -0.2773
20473W        W36282  16.839   4.071   5.047  0.1195  0.4864 -0.1335
20474W        W36283   8.615  12.740   3.202 -0.0072  0.1039 -0.0381
20475W        W36284   1.563   5.675  12.534 -0.0436 -0.0229 -0.1054
20476W        W36285   0.712  17.528  11.100  0.0830  0.0790 -0.0689
20477W        W36286  16.304   5.834  13.017  0.1479 -0.1840  0.2223
20478W        W36287  15.500   5.739  13.857  0.0177  0.0137 -0.1014
20479W        W36288  13.340  16.570  14.116 -0.0486  0.0281 -0.0285
20480W        W36289  14.094   4.455  15.694 -0.1223  0.2131  0.1052
20481W        W36290   5.375   5.917  16.256 -0.2389 -0.0788  0.0451
20482W        W36291  12.808  10.076   4.643 -0.0069  0.0384  0.1234
20483W        W36292  16.867   6.222  12.458  0.1531  0.2942  0.2776
20484W        W36293   3.845  16.011   1.644 -0.0333  0.1123 -0.0896
20485W        W36294  17.236   2.617  12.471 -0.1332  0.2951 -0.0614
20486W        W36295  11.514   0.207   2.493  0.1729  0.0374  0.1715
20487W        W36296   5.196  11.667  13.233  0.0833 -0.1381  0.0022
20488W        W36297  17.292  10.254  12.057 -0.0992 -0.1460  0.0184
20489W        W36298   9.440  17.110   0.453 -0.1039 -0.0606 -0.0676
20490W        W36299   3.296   8.652   2.611 -0.0289 -0.2638 -0.0895
20491W        W36300   4.977   8.870   2.504 -0.1244 -0.1167 -0.0201
20492W        W36301  10.076  14.686  10.929 -0.4217 -0.0849  0.1571
20493W        W36302  16.861  15.200   2.095 -0.1138 -0.0594 -0.1627
20494W        W36303  13.610  10.689   1.417 -0.1682 -0.1420  0.0111
20495W        W36304   6.294  14.351   5.303 -0.0816  0.2603 -0.0010
20496W        W36305   0.294   8.625  14.925  0.0000  0.0509  0.0794
20497W        W36306   3.812  13.152   4.749  0.2590  0.0824 -0.1171
20498W        W36307  12.181   8.479  15.301 -0.1896 -0.0039 -0.0919
20499W        W36308   4.197  13.677   6.127 -0.0060 -0.0137 -0.1293
20500W        W36309  14.925   5.592   4.881 -0.2101 -0.3332 -0.0897
20501W        W36310   4.104   8.518   5.264 -0.0657  0.1397 -0.0445
20502W        W36311   3.419   7.404  15.091  0.0973 -0.1302 -0.2050
20503W        W36312   9.180   9.045   1.207  0.1418 -0.1209 -0.2471
20504W        W36313   5.901   2.136   1.029  0.0830 -0.0605  0.1486
20505W        W36314  11.020  15.011   2.610 -0.2625  0.0692  0.3718
20506W        W36315   7.056   1.568   4.459 -0.0328 -0.1313  0.2541
20507W        W36316  10.624  10.096  16.269 -0.0856  0.0628  0.0479
20508W        W36317   8.654  11.943  16.178  0.2665 -0.1302  0.1317
20509W        W36318  17.243  17.633   4.272  0.0610  0.2276  0.0881
20510W        W36319   9.958  13.047   1.663 -0.0180  0.0929  0.0018
20511W        W36320  15.807   2.426  16.674  0.1896 -0.1644 -0.2190
20512W        W36321   1.362   7.543  11.928 -0.1257  0.3385 -0.1999
20513W        W36322   1.646   8.718  12.657  0.2699  0.1944 -0.2115
20514W        W36323  11.846  12.206  14.633 -0.0296  0.0326  0.1918
20515W        W36324   8.710   8.428   1.720  0.3168 -0.2704  0.0620
20516W        W36325  16.255   8.212   5.111  0.2664  0.0384  0.1111
20517W        W36326   7.805   0.080   2.329  0.1854  0.1870 -0.1372
20518W        W36327   8.812  10.124  16.018 -0.3231  0.1575  0.3453
20519W        W36328   0.848   1.373  15.715  0.2163  0.2443  0.1274
20520W        W36329   9.986   6.063  14.272  0.1045  0.0534 -0.0183
20521W        W36330   2.445   2.280   1.649 -0.0525  0.1249 -0.3272
20522W        W36331   8.223  16.839   3.659  0.0023  0.0539 -0.3918
20523W        W36332  17.389   7.878  10.897  0.1888  0.0985 -0.0841
20524W        W36333   4.431  12.550   5.420  0.1102  0.1364 -0.1783
20525W        W36334   2.318  12.002  15.962  0.0694 -0.0789  0.1628
20526W        W36335   3.322  15.698   0.817  0.3603  0.0855 -0.0348
20527W        W36336   4.082  11.455   3.957 -0.0904 -0.1595 -0.2002
20528W        W36337   5.550  17.227  12.334 -0.1648  0.2556 -0.2167
20529W        W36338   3.054   9.972  16.978  0.2097 -0.0031  0.0727
20530W        W36339   0.510   7.957   3.941  0.2038 -0.0707  0.2907
20531W        W36340   7.735   1.425   2.265 -0.1299  0.1320 -0.1765
20532W        W36341   9.881  15.646   5.178  0.1625 -0.0319  0.1461
20533W        W36342  14.091  15.221   0.265  0.2309  0.1450 -0.3677
20534W        W36343   9.334   2.770   0.255 -0.0895 -0.0003 -0.2906
20535W        W36344   7.792   9.597   4.952 -0.0150 -0.0614  0.1709
20536W        W36345  15.378   8.490  14.558  0.0384 -0.2542 -0.0745
20537W        W36346  11.914   7.196   5.985  0.0023 -0.2007 -0.1886
20538W        W36347   5.921   9.114  11.651 -0.2096 -0.0462 -0.1188
20539W        W36348  13.683   0.033  16.629  0.0456 -0.2437 -0.0544
20540W        W36349   8.943   4.737  14.701  0.1288  0.4498 -0.1055
20541W        W36350  16.864  10.926   5.587 -0.0664 -0.0470 -0.2735
20542W        W36351  14.554   1.786  12.177  0.1114  0.1029 -0.2010
20543W        W36352  10.998   6.181   5.251  0.1210  0.1736  0.1495
20544W        W36353  15.853   6.252   4.608  0.2168 -0.0269  0.1346
20545W        W36354   8.447  11.039   2.036 -0.0497  0.3181 -0.2176
20546W        W36355   3.296   1.095  16.388 -0.0737 -0.0959  0.2130
20547W        W36356  17.693  15.909   2.187 -0.3729 -0.2852  0.0845
20548W        W36357   9.904  15.930   3.550 -0.1638  0.0473  0.2459
20549W        W36358  13.223   2.315  14.429 -0.3545  0.1187  0.2437
20550W        W36359  14.074  12.943   1.887 -0.3909 -0.1470 -0.2090
20551W        W36360   1.279   1.714  15.795  0.0152 -0.2358  0.0666
20552W        W36361   0.355  11.945  11.864 -0.0382  0.0080  0.2579
20553W        W36362   2.224   5.288  12.611  0.3534  0.1994  0.1835
20554W        W36363   7.090   8.903  16.258  0.2715 -0.3422 -0.0757
20555W        W36364  14.393  10.754   3.234  0.1077  0.0121 -0.2354
20556W        W36365   2.333  17.676   2.848  0.0663 -0.0943  0.4003
20557W        W36366  11.034  16.539   3.630 -0.3551  0.0809 -0.0058
20558W        W36367  15.485  14.895   0.942 -0.0738 -0.0086  0.2900
20559W        W36368  13.632   6.923   3.830  0.0920  0.0977 -0.0645
20560W        W36369   5.830  11.492   1.213  0.0299 -0.1252 -0.1790
20561W        W36370  11.035   6.032   1.947 -0.1353 -0.0726 -0.1132
20562W        W36371   3.611   8.565  15.077  0.1732 -0.1601  0.3039
20563W        W36372   1.982  10.094   0.094 -0.1843  0.1123 -0.1815
20564W        W36373  12.325  15.465  16.601  0.0965 -0.2989  0.1863
20565W        W36374  14.212   3.508   4.934 -0.0451 -0.1513  0.0772
20566W        W36375  10.279   8.100   5.440  0.1714  0.0644  0.0335
20567W        W36376  16.984   9.810   5.748 -0.0130  0.1434 -0.0726
20568W        W36377  14.557   3.504  13.675  0.0675 -0.1523  0.0352
20569W        W36378   2.058   4.836   0.357  0.2763 -0.1054  0.0529
20570W        W36379  15.433  10.244   3.277  0.0318  0.2537 -0.1207
20571W        W36380  13.679  13.444   4.013 -0.0916  0.0534  0.0496
20572W        W36381  12.180   9.777  14.974 -0.0734  0.0024 -0.1432
20573W        W36382   9.322   5.052  12.018 -0.2628  0.1693 -0.3020
20574W        W36383   8.493  15.110   5.167  0.0442 -0.1674 -0.3075
20575W        W36384  10.690   7.397   4.996 -0.1813  0.0693 -0.3494
20576W        W36385   5.430   0.224   2.842 -0.1077 -0.2032 -0.2607
20577W        W36386   8.481   7.119  11.661 -0.0745 -0.0778 -0.0780
20578W        W36387  12.801  11.532   2.993  0.1940 -0.0580 -0.0436
20579W        W36388  10.990   8.187  16.170 -0.2326  0.2536 -0.0164
20580W        W36389  12.726  15.160   1.495  0.3834 -0.1021  0.2813
20581W        W36390  16.196  11.620   4.034  0.1170 -0.2762  0.0469
20582W        W36391   6.534   2.404   3.066  0.0427 -0.0302  0.4303
20583W        W36392  14.807  10.385  15.776  0.0064 -0.0440  0.1356
20584W        W36393  16.219   4.643  13.301 -0.0981  0.0830  0.2192
20585W        W36394  13.717   8.485  16.339 -0.0427 -0.1159 -0.0432
20586W        W36395  14.431  15.059  12.504 -0.0880 -0.0817  0.4230
20587W        W36396   6.075  11.476   2.914  0.0081  0.0887 -0.2291
20588W        W36397  13.092  16.546  10.858  0.2161  0.0108 -0.0265
20589W        W36398  11.460  11.373   1.074 -0.0998 -0.2769  0.2093
20590W        W36399  15.043  17.275   1.525  0.0474 -0.0628 -0.2470
20591W        W36400  14.589  13.362  13.716 -0.0211 -0.1104  0.0536
20592W        W36401  16.424  12.118  14.572 -0.1617  0.1484  0.2029
20593W        W36402  16.638  12.276   2.788  0.1441  0.1631 -0.2523
20594W        W36403  16.781  11.068   4.283 -0.1029  0.0213 -0.0018
20595W        W36404   0.646   8.167   0.224  0.0775 -0.1112 -0.0879
20596W        W36405  16.409  16.194  14.703 -0.1447 -0.1359 -0.0089
20597W        W36406  16.630  11.799  11.855  0.2073  0.0395  0.4511
20598W        W36407  11.707   1.001   1.961  0.0399  0.0778 -0.0463
20599W        W36408   5.433  15.098  16.767 -0.4671  0.0937  0.0087
20600W        W36409   3.809  13.693   2.830  0.2847 -0.0654  0.0602
20601W        W36410   1.983   7.860  15.229  0.1798 -0.1844  0.1524
20602W        W36411   5.233   7.352   4.585  0.0890  0.0157 -0.2171
20603W        W36412   8.818  10.445   4.173  0.2173 -0.1598 -0.0843
20604W        W36413  12.371   0.455   0.109 -0.1282 -0.0551 -0.2395
20605W        W36414  11.861   7.974  10.892  0.0711 -0.0597 -0.0740
20606W        W36415  11.679   4.300   0.266 -0.1569  0.3405 -0.0385
20607W        W36416   0.283   9.933  16.597 -0.3899  0.1965  0.0647
20608W        W36417   4.253   7.587   0.353  0.0077 -0.4479  0.0547
20609W        W36418   5.714   6.541   2.241  0.1701 -0.1190 -0.0731
20610W        W36419   3.312   0.447   3.878 -0.0779  0.0481  0.0998
20611W        W36420  10.553  14.367   1.550 -0.1914  0.0640 -0.1513
20612W        W36421   5.995   9.421   5.911 -0.0265 -0.2660  0.0782
20613W        W36422   1.226   4.577  14.001  0.3035  0.2217  0.3108
20614W        W36423  17.044  14.871  14.792 -0.0146  0.0667  0.1097
20615W        W36424   6.989   0.702  11.705 -0.1311  0.4018 -0.0837
20616W        W36425  15.235  16.014  12.393 -0.0346 -0.0776 -0.3753
20617W        W36426   0.959   6.565  14.243 -0.0529  0.0486 -0.0028
20618W        W36427  11.924  13.584   2.628 -0.1140  0.0417  0.0573
20619W        W36428  15.689  16.972   1.151  0.1775 -0.3728 -0.0769
20620W        W36429  16.987   3.229  14.513  0.0641  0.4496 -0.2399
20621W        W36430  17.098  12.133   2.486  0.0324  0.0966  0.0178
20622W        W36431   2.568  16.626   3.038  0.3347  0.0114 -0.1016
20623W        W36432  14.118  14.112  12.838  0.1757  0.1727 -0.1042
20624W        W36433   0.296   2.983   4.148 -0.0615  0.1909  0.0382
20625W        W36434  15.744   1.259   2.686 -0.1132  0.2712  0.1960
20626W        W36435   0.109   1.997   3.851  0.0773 -0.1284  0.0730
20627W        W36436   3.784   4.016  11.650 -0.0521 -0.0812  0.1249
20628W        W36437   0.485   2.588   4.435 -0.1429  0.0237 -0.4011
20629W        W36438   2.508  15.346   4.123  0.0748 -0.0116  0.1008
20630W        W36439   2.605   3.968   0.684  0.1944  0.0496 -0.0167
20631W        W36440   2.253   1.672   3.186 -0.0975 -0.0251  0.4476
20632W        W36441  17.169   1.115  11.774  0.0874  0.0527  0.0233
20633W        W36442   2.512  15.458   2.218 -0.1204 -0.2259 -0.3851
20634W        W36443  13.397  13.490  16.698 -0.3822 -0.2537 -0.2447
20635W        W36444   8.890  10.249  14.137  0.0920 -0.3696  0.1125
20636W        W36445  13.864  14.005  11.220 -0.1477  0.1057 -0.0637
20637W        W36446   7.803  13.837  16.977  0.1909 -0.2549  0.0189
20638W        W36447  10.253  11.809  16.683 -0.2587 -0.0195  0.1335
20639W        W36448  15.375   1.840   0.609  0.0748  0.0116  0.0262
20640W        W36449   1.889  12.198  12.591 -0.0480 -0.2673  0.1578
20641W        W36450   6.434   7.816   4.549  0.0969  0.1898  0.3931
20642W        W36451  17.413   7.522  12.010  0.0888  0.0599 -0.0768
20643W        W36452  16.431   2.270   6.469 -0.3063  0.1557 -0.2402
20644W        W36453   1.675  15.783   0.515  0.1396 -0.1359 -0.1871
20645W        W36454  12.595   1.452   1.427  0.2709 -0.0621  0.1036
20646W        W36455  16.947  17.114   4.871 -0.0174  0.0171 -0.0092
20647W        W36456   1.446   0.786  10.974  0.0546  0.0310 -0.3337
20648W        W36457   3.442  15.720   3.093  0.1632  0.0453 -0.1366
20649W        W36458  15.544  16.017   3.452  0.2436  0.2592  0.0079
20650W        W36459   0.497   7.264   5.458  0.0327 -0.3628  0.1438
20651W        W36460  14.768   2.878  14.228  0.0956 -0.4052  0.0272
20652W        W36461  16.654  10.914  14.356 -0.0268 -0.0011  0.0411
20653W        W36462   0.661   2.550  12.330  0.1045  0.0345  0.0193
20654W        W36463  11.143   3.378  13.021  0.1090  0.0293  0.3510
20655W        W36464  16.770  16.241  13.829 -0.2233  0.1443 -0.2270
20656W        W36465   0.126   3.324   6.634  0.0791  0.1077 -0.0455
20657W        W36466   2.257   6.299   1.098  0.3481  0.4468  0.0900
20658W        W36467  10.309   0.072  13.287 -0.1260 -0.0778  0.1300
20659W        W36468  11.261   1.025  14.263 -0.3208 -0.1381  0.2409
20660W        W36469  14.752   3.650  16.580 -0.1112  0.0399  0.2400
20661W        W36470  10.694  10.074   4.081  0.0380  0.0865  0.1434
20662W        W36471   6.495  12.654  13.895  0.0340 -0.0074  0.1886
20663W        W36472   2.875   9.548  13.260 -0.2395 -0.0570 -0.1298
20664W        W36473   1.089  14.453   5.330  0.2021  0.0846  0.0843
20665W        W36474  11.265  14.157  14.502 -0.1207  0.0897 -0.0307
20666W        W36475   5.045  14.123  15.927 -0.2430  0.2089 -0.4785
20667W        W36476   0.670   2.452  13.479 -0.0448 -0.2435 -0.0321
20668W        W36477   4.023  13.413   4.420  0.0659  0.1308 -0.0033
20669W        W36478  11.833  10.220   4.067 -0.2637  0.1173 -0.0703
20670W        W36479  10.597   4.263   5.159  0.0865  0.0784  0.1053
20671W        W36480   0.578  16.562   1.904 -0.0463 -0.0278  0.0959
20672W        W36481   8.727  13.074  13.820 -0.1488 -0.0201 -0.0468
20673W        W36482   7.650   2.558   5.864 -0.0798  0.0247  0.0771
20674W        W36483   2.237   7.449   1.427  0.4333  0.0316 -0.2697
20675W        W36484   6.435  16.964  13.306  0.0088 -0.0495  0.0020
20676W        W36485   0.330  13.035   5.622  0.1782 -0.0265  0.3253
20677W        W36486  12.815   4.202   5.788 -0.2337  0.0835 -0.1207
20678W        W36487  16.246  13.584  16.098  0.0145  0.0629  0.3470
20679W        W36488  14.776   4.533  16.392 -0.3697 -0.0342  0.3675
20680W        W36489   0.778   6.355   0.976 -0.2084 -0.0941  0.1379
20681W        W36490   6.933   2.401  11.639 -0.3083  0.1605  0.0799
20682W        W36491  16.201   6.620   3.970  0.1437  0.2262 -0.2514
20683W        W36492   9.043   1.321  14.787  0.0630  0.2172 -0.1969
20684W        W36493   4.435   9.407  15.801  0.0426  0.3671 -0.0600
20685W        W36494   5.261   5.764  16.771 -0.1339  0.0968  0.0004
20686W        W36495   3.352   6.085  12.092 -0.0930  0.1689 -0.0976
20687W        W36496   7.753   4.970   4.753 -0.2614 -0.0688 -0.1568
20688W        W36497  11.322  11.752  16.241 -0.0286  0.0777 -0.1355
20689W        W36498   9.338   5.304   3.680  0.1130 -0.0866  0.0188
20690W        W36499   5.046   0.399   3.807 -0.0980  0.1030  0.0921
20691W        W36500  13.602  11.363   0.780  0.0103 -0.0898 -0.0058
20692W        W36501   2.624   1.843  14.723  0.0917 -0.1098  0.0027
20693W        W36502  12.876   9.963   5.164 -0.0104 -0.0109  0.1064
20694W        W36503  15.092   9.462  13.796 -0.0255  0.2115  0.4507
20695W        W36504  10.179   2.145   3.262  0.1504 -0.1187  0.1777
20696W        W36505   1.688   2.893  12.155  0.0332  0.0748  0.1635
20697W        W36506   8.577   1.295   1.991 -0.1542  0.1413 -0.1569
20698W        W36507   7.390   1.745   0.916 -0.0483  0.1154  0.0788
20699W        W36508   5.142  11.601   1.590 -0.3957 -0.0121 -0.1118
20700W        W36509  10.772  16.876  14.902 -0.2368  0.2174 -0.0611
20701W        W36510   7.258   5.324   4.572  0.0010 -0.0091  0.0284
20702W        W36511   2.091   7.407  13.148 -0.0462  0.1791 -0.1248
20703W        W36512  15.232   7.371   3.142 -0.0071 -0.2766  0.0172
20704W        W36513   1.068  13.241   5.056  0.1217 -0.0218  0.0633
20705W        W36514   5.604  14.141   2.724  0.2458 -0.1196 -0.0788
20706W        W36515  12.337  13.367  12.450 -0.0809 -0.1146  0.2314
20707W        W36516  17.464  14.716  15.009 -0.0898  0.0287 -0.0958
20708W        W36517   9.821   1.090  14.497 -0.2008  0.3071  0.1280
20709W        W36518  17.131   9.294   2.848 -0.1261  0.4929  0.0788
20710W        W36519  14.576   2.537  11.245 -0.1729 -0.0437  0.0596
20711W        W36520   0.131   3.241  14.923 -0.2005 -0.1307  0.1715
20712W        W36521   7.318  14.324   2.491  0.0826 -0.3070  0.0719
20713W        W36522   6.541   8.608   2.260 -0.3933 -0.2417  0.0697
20714W        W36523  13.847   0.977   1.995 -0.0289  0.0717 -0.0971
20715W        W36524   9.880  11.482   2.415  0.0953 -0.3093  0.0462
20716W        W36525   4.574  14.822   4.930  0.1016  0.0746  0.1630
20717W        W36526  12.787   7.058  15.211 -0.3322  0.1158 -0.0717
20718W        W36527   4.877   5.250   3.692  0.2177 -0.0576  0.0181
20719W        W36528   2.298   0.940  14.253  0.0085 -0.0192  0.1601
20720W        W36529   2.671  10.756  16.043 -0.2914 -0.1164 -0.3009
20721W        W36530   7.727  16.025  12.630  0.2515  0.1518  0.0371
20722W        W36531  17.201   8.204   3.844 -0.1302  0.0015  0.1624
20723W        W36532  16.888  12.450   0.819  0.1899  0.0852 -0.1369
20724W        W36533  12.230   5.938  13.626  0.0306 -0.4468 -0.3806
20725W        W36534   2.247   8.293   2.664 -0.1263 -0.1749 -0.1329
20726W        W36535   6.855   5.601   0.460  0.1845 -0.0356  0.0142
20727W        W36536   6.730   5.728   6.201  0.0507 -0.1437 -0.2033
20728W        W36537   7.047  17.069  11.519 -0.1217 -0.4397  0.0462
20729W        W36538   7.817   5.585   3.601  0.0690 -0.1110  0.2286
20730W        W36539  17.177  13.817  14.839 -0.1289 -0.0277 -0.1725
20731W        W36540   5.919  13.710  11.366 -0.1961  0.0523  0.2685
20732W        W36541  16.932   6.325   2.889  0.1172  0.2272  0.2863
20733W        W36542  16.778   1.089   5.487  0.1601 -0.1020  0.0665
20734W        W36543  10.223  12.756  11.844 -0.0324  0.3085  0.1420
20735W        W36544  13.268   2.816   1.642 -0.1613  0.0533 -0.0372
20736W        W36545   2.034   1.292   4.338  0.2085 -0.1129  0.0102
20737W        W36546   5.370  16.376   3.689 -0.0568 -0.1393  0.3551
20738W        W36547  13.469  12.449   4.427 -0.0553  0.1564  0.2983
20739W        W36548   4.862  12.145   3.398 -0.0185 -0.1382 -0.2163
20740W        W36549   6.851   4.794  14.410  0.0465  0.0265 -0.1024
20741W        W36550   3.048  13.062  11.393  0.3731 -0.2215 -0.0572
20742W        W36551   3.941   0.938   1.404  0.1185 -0.0044 -0.2752
20743W        W36552  11.034   3.689  12.013 -0.1975 -0.0693 -0.1916
20744W        W36553   1.698  15.670  12.373  0.0661 -0.0753  0.0203
20745W        W36554  11.145  11.774   2.066  0.1358  0.1425  0.1026
20746W        W36555  11.397   8.680  11.854 -0.2574 -0.1274  0.1709
20747W        W36556   9.071  15.861   3.161  0.1541 -0.0735 -0.0611
20748W        W36557  14.984  16.365   0.890 -0.3145 -0.0068 -0.0324
20749W        W36558   2.365  16.960  11.949  0.0592 -0.2457  0.2185
20750W        W36559  16.150   0.932  13.481 -0.0535  0.0810 -0.0604
20751W        W36560   2.030  14.657   0.071 -0.0619 -0.0258 -0.1956
20752W        W36561  16.420   8.545   0.988 -0.3058 -0.0275  0.0694
20753W        W36562  10.622  14.597   2.561 -0.2051  0.0261 -0.0339
20754W        W36563  14.281   8.575  15.809 -0.0470 -0.0189  0.1543
20755W        W36564  17.554   7.690   3.048 -0.0422  0.2268 -0.0173
20756W        W36565  12.659  15.059  15.940  0.0813 -0.2156 -0.0057
20757W        W36566  11.084  15.916   4.539  0.0575 -0.0977  0.2559
20758W        W36567  14.928   6.273   3.647  0.1818 -0.1594 -0.0367
20759W        W36568  12.352   0.263   0.857  0.1316  0.3554  0.1702
20760W        W36569  10.522   8.623   4.345 -0.0170 -0.6374  0.5198
20761W        W36570  10.166  13.479   3.127 -0.2619 -0.1068  0.1387
20762W        W36571   2.317  12.233  14.469  0.0875  0.0672  0.0633
20763W        W36572   3.092   0.940  14.720  0.0902 -0.2739  0.2155
20764W        W36573   0.162   3.082   5.831  0.0349 -0.1971 -0.2016
20765W        W36574  10.374  17.092  16.832 -0.0937  0.1241 -0.0772
20766W        W36575   7.939  16.647   5.369  0.0296 -0.0040  0.0525
20767W        W36576   2.233   6.958   2.944 -0.1777 -0.0380 -0.0399
20768W        W36577   3.747   5.473  15.055 -0.0418  0.1865 -0.0425
20769W        W36578   6.842  10.556   3.271  0.0201  0.1329 -0.1927
20770W        W36579  14.641   2.526  12.599  0.1963 -0.0488  0.1423
20771W        W36580   6.091  13.625   1.743 -0.3006  0.0621 -0.0521
20772W        W36581   5.763  13.979  15.562 -0.0858  0.0581  0.1129
20773W        W36582   9.397  11.370  14.896  0.3001 -0.1820  0.2300
20774W        W36583  10.540  10.910   3.484 -0.1283 -0.1282  0.1239
20775W        W36584  16.637  14.709  13.893 -0.1792 -0.0051  0.1480
20776W        W36585  12.862   0.145   5.545 -0.2033  0.3442 -0.1852
20777W        W36586  10.078  10.763  12.071 -0.1376 -0.1756  0.1465
20778W        W36587  17.272   1.589  13.496  0.2186 -0.5898 -0.2207
20779W        W36588   4.897   8.163  14.371 -0.0319 -0.2851 -0.1489
20780W        W36589  14.388   7.046   1.439  0.0187  0.1263 -0.1228
20781W        W36590   5.642  10.483  12.624  0.1959  0.0211 -0.1827
20782W        W36591   5.643  15.836  14.081  0.2227 -0.1545 -0.1300
20783W        W36592   4.957   4.390  13.991 -0.1157  0.0152  0.1389
20784W        W36593   3.512   8.161   1.558  0.0228  0.0803 -0.4643
20785W        W36594  14.143   5.082   1.682  0.0276 -0.1944 -0.2941
20786W        W36595  10.386   3.628   3.852  0.1737  0.2254 -0.1256
20787W        W36596   5.987   0.686   0.876  0.4881  0.2806 -0.1982
20788W        W36597  14.957  13.208   1.521 -0.3676 -0.1231 -0.1824
20789W        W36598  16.661  17.666  16.207 -0.1002  0.2316  0.0191
20790W        W36599  10.820  14.154  14.203  0.0325  0.0945  0.3414
20791W        W36600  13.042  17.070  11.108  0.0322 -0.0786 -0.1129
20792W        W36601   2.573   0.187   4.586 -0.0705  0.2760 -0.0146
20793W        W36602   1.564   1.261   1.718 -0.1902 -0.2720 -0.2505
20794W        W36603   9.220  17.635  12.564 -0.1495  0.1395  0.2595
20795W        W36604  15.534  12.569   2.874  0.0255 -0.1844  0.1749
20796W        W36605   6.602   7.314  11.484 -0.3025 -0.1633  0.1919
20797W        W36606   3.901  10.888   1.411  0.0462 -0.0871 -0.0144
20798W        W36607   8.082  14.350   5.316  0.2189 -0.3103 -0.0540
20799W        W36608   7.034  16.595   3.544  0.1282 -0.0899 -0.0355
20800W        W36609  15.078   1.618   5.292 -0.2145 -0.0383  0.0738
20801W        W36610  16.663  16.564   5.611  0.1331  0.1339  0.0867
20802W        W36611   8.547  11.576  13.237  0.1184  0.0871  0.0050
20803W        W36612   2.518  16.626  12.369  0.3331  0.0282 -0.2426
20804W        W36613   5.861  11.891  11.627 -0.0981  0.0896 -0.0070
20805W        W36614   4.746  15.121  15.263  0.1174 -0.1883  0.0629
20806W        W36615   6.461  13.758  11.294  0.0410  0.1557  0.2208
20807W        W36616   1.253  16.950   0.033 -0.1991  0.0001  0.0742
20808W        W36617  10.037  17.401   3.513  0.0991 -0.2207  0.0432
20809W        W36618   4.109   6.942   1.768 -0.0163  0.0506 -0.2619
20810W        W36619  10.246   0.716  13.064 -0.6591  0.1347  0.0307
20811W        W36620  15.734  10.167  13.279  0.0419  0.2011 -0.0870
20812W        W36621   9.281   0.739  12.046  0.1731  0.1634  0.1837
20813W        W36622   1.164  13.768   1.227 -0.2858 -0.0129 -0.2116
20814W        W36623   4.952   0.157   1.592 -0.1655  0.0431  0.0767
20815W        W36624  14.976  12.943   5.787 -0.0770  0.0834  0.3453
20816W        W36625  13.316   8.977   1.613  0.1143 -0.1055  0.0125
20817W        W36626   5.469   9.256  11.791 -0.1267 -0.1304 -0.0389
20818W        W36627  14.034   6.288   3.732  0.0179 -0.2021 -0.0530
20819W        W36628  13.789   9.902   0.759 -0.0703  0.0544 -0.2315
20820W        W36629  12.895  14.726  16.376  0.0745  0.2308  0.0955
20821W        W36630   1.858   7.574  11.895 -0.0255  0.1939 -0.0666
20822W        W36631   5.271   5.013   6.028 -0.1465 -0.2617 -0.5717
20823W        W36632   0.723  14.200   3.672  0.0841  0.1283  0.1207
20824W        W36633  16.421   3.511   0.335 -0.0607  0.1611 -0.3538
20825W        W36634   5.364   5.976  15.764 -0.0077  0.2029  0.1012
20826W        W36635   3.719  15.901   5.694 -0.2014 -0.1419 -0.0861
20827W        W36636   9.121  15.231   2.420 -0.2436 -0.0331  0.0119
20828W        W36637   2.171  13.416  12.500  0.1962 -0.0417  0.1048
20829W        W36638  15.249  17.241  14.954 -0.0101  0.2468  0.1493
20830W        W36639  17.255   1.563  14.405 -0.2721  0.0489 -0.0782
20831W        W36640   6.335  11.686   4.638  0.0726  0.0491 -0.0166
20832W        W36641   6.322  15.212   2.812  0.1314  0.0154  0.1713
20833W        W36642   2.111   9.132   5.709  0.1886 -0.6054 -0.3558
20834W        W36643   2.362  16.513   0.395  0.0378 -0.0449 -0.1473
20835W        W36644   3.198   9.036   1.708  0.0079  0.5550 -0.1158
20836W        W36645   1.393  14.381   5.704  0.1266  0.3283  0.0974
20837W        W36646  12.365  16.300   3.402  0.1114 -0.2084  0.0362
20838W        W36647  17.368  11.343  12.317  0.0894  0.1837  0.0355
20839W        W36648  12.092  15.218   2.980  0.2127 -0.0008  0.1935
20840W        W36649   0.818  10.022   5.703 -0.2347  0.0488 -0.2226
20841W        W36650  16.503   0.142   2.157  0.0648 -0.1513  0.0392
20842W        W36651  14.739   0.824  12.112 -0.2878 -0.0805  0.0572
20843W        W36652  11.974   1.399  16.638 -0.0752 -0.0689  0.2154
20844W        W36653  16.147   9.431  12.086 -0.0566 -0.0322  0.1953
20845W        W36654  13.613   7.396  12.891 -0.0233 -0.1952  0.1330
20846W        W36655   8.993   1.408  12.402  0.3954  0.3281 -0.0999
20847W        W36656  12.060   5.365   1.574  0.0823  0.1648 -0.1008
20848W        W36657   2.894  16.969   2.909 -0.0429  0.0403 -0.0003
20849W        W36658   6.808  15.792   2.354 -0.0508 -0.0354 -0.1030
20850W        W36659  10.496   2.215   3.771 -0.0773  0.1927 -0.0363
20851W        W36660   1.453   7.376   4.189 -0.1186 -0.0201  0.2701
20852W        W36661   9.040   2.750   4.369 -0.0158  0.0855 -0.3247
20853W        W36662  14.659   5.321   2.787  0.0973  0.0325 -0.1136
20854W        W36663  15.248  11.029  15.806 -0.2106  0.0762 -0.1315
20855W        W36664   1.540  17.048  14.833  0.1141  0.2053 -0.1825
20856W        W36665   0.924   5.757   0.434 -0.3251 -0.2366 -0.0480
20857W        W36666   9.351   6.731   5.114 -0.0113 -0.2040  0.0107
20858W        W36667  12.452  17.658   5.985  0.0500 -0.1522 -0.0724
20859W        W36668   8.951  13.276  16.100  0.0379  0.0831 -0.0868
20860W        W36669   6.995  12.151  15.221  0.4319  0.0254 -0.2851
20861W        W36670  13.779  10.934  12.916 -0.1591 -0.2756  0.0682
20862W        W36671  15.577   1.881   3.395 -0.0339  0.1744  0.1525
20863W        W36672  12.999  10.554   6.304 -0.2154  0.3806 -0.1170
20864W        W36673   0.853  11.801  16.195 -0.0453 -0.0978 -0.0501
20865W        W36674   1.100   2.986   3.647 -0.1393  0.0124 -0.1893
20866W        W36675   3.795  15.542  16.284 -0.0700 -0.0924  0.0696
20867W        W36676  16.434   3.973  15.465 -0.3106  0.2130  0.1492
20868W        W36677  13.323  10.525  16.795  0.1488  0.2098  0.0351
20869W        W36678  15.128  14.558  14.631 -0.0755  0.2073  0.2323
20870W        W36679   6.252  12.435   1.030  0.0894 -0.0087  0.1068
20871W        W36680   9.647  14.968   0.340  0.1209  0.0360 -0.0714
20872W        W36681  10.850  14.664   4.818  0.0471 -0.2404 -0.1066
20873W        W36682   2.557  15.955  16.077 -0.4789 -0.1975 -0.0183
20874W        W36683   0.702   8.106   5.208 -0.2940 -0.2441  0.1523
20875W        W36684   1.558   4.167   5.549 -0.1708  0.0293 -0.2205
20876W        W36685   5.729   8.512   3.698  0.3741 -0.1273 -0.0232
20877W        W36686   1.207   0.434   1.829  0.3724 -0.0358  0.1279
20878W        W36687  12.931  17.509   5.946 -0.0896 -0.2463  0.0229
20879W        W36688   6.742  16.153  14.599 -0.0850  0.0179 -0.0595
20880W        W36689   1.831   2.377   6.049 -0.0816  0.4239  0.1180
20881W        W36690  13.806  15.859   3.028  0.1524 -0.0878 -0.2019
20882W        W36691  12.387  14.007  14.157 -0.2169 -0.0451 -0.4348
20883W        W36692  14.229   0.946   4.859 -0.1262  0.2436  0.1092
20884W        W36693  15.001  11.117   0.287 -0.0308  0.0864  0.2815
20885W        W36694  16.154   4.044  12.714  0.0580  0.0512  0.3426
20886W        W36695  11.692   5.773   0.162  0.3601  0.1245  0.2246
20887W        W36696  10.462   3.805   1.088 -0.0268  0.0243  0.1001
20888W        W36697   4.276   5.963   5.999 -0.1492  0.2086  0.1647
20889W        W36698   3.905   2.816   4.612 -0.2952  0.2974  0.0235
20890W        W36699   6.354  14.686  11.467 -0.3563  0.0477 -0.2187
20891W        W36700   5.430  16.339  12.042  0.1055  0.0832  0.3053
20892W        W36701   0.977   3.369   5.313  0.1989 -0.2699  0.1974
20893W        W36702   2.183  13.471  13.164  0.0591  0.0607  0.4160
20894W        W36703  10.372   4.570  13.534 -0.0425  0.0352 -0.1359
20895W        W36704   3.036   6.355   0.107  0.2731  0.1328 -0.2096
20896W        W36705   5.323  10.657   4.518 -0.0998 -0.2045  0.0094
20897W        W36706  17.580   4.368   3.997  0.0084  0.1209  0.0796
20898W        W36707  10.558   8.312  12.106 -0.3082  0.0487  0.0551
20899W        W36708  11.674  15.492  14.117 -0.0230  0.1970 -0.1007
20900W        W36709   8.943   5.400   4.749 -0.0752  0.1124 -0.0711
20901W        W36710   5.573   9.642  13.412 -0.0565 -0.1608  0.1135
20902W        W36711   2.158   4.027   3.897 -0.1395 -0.1360 -0.4082
20903W        W36712   2.028   3.868  14.181 -0.1599  0.2548 -0.0133
20904W        W36713   6.399  11.958   0.735  0.0941  0.0685 -0.0343
20905W        W36714  11.029   6.169  13.626  0.0890  0.1544  0.3798
20906W        W36715  14.979  13.973   3.626 -0.2810 -0.0192 -0.1354
20907W        W36716  11.379   6.451   5.967  0.1754  0.0821 -0.3882
20908W        W36717  15.609   5.930   0.863 -0.0494  0.1200 -0.0126
20909W        W36718  13.321   7.764   2.275 -0.1314 -0.0871 -0.2090
20910W        W36719   4.765  13.877  15.536  0.1884 -0.0331  0.2729
20911W        W36720   1.292   1.869   3.513 -0.1679  0.1082 -0.1701
20912W        W36721   8.761   8.229  12.425 -0.0704  0.0932  0.0664
20913W        W36722  16.863  16.841  14.108 -0.1848  0.1745 -0.1287
20914W        W36723   9.271   6.992   2.358  0.1854 -0.3403  0.0282
20915W        W36724   5.369   1.335   5.663  0.2645  0.1085  0.0379
20916W        W36725  13.077  10.678   2.144  0.1137  0.4413 -0.0580
20917W        W36726  15.112  10.896  14.917  0.0216  0.0857 -0.0292
20918W        W36727   3.125   9.731  15.335 -0.1184 -0.2414 -0.1138
20919W        W36728   7.271   8.309  16.662  0.1171 -0.4282 -0.0051
20920W        W36729   5.122  15.129   1.274  0.0680  0.1601 -0.1175
20921W        W36730  11.292   3.150   1.115  0.1401 -0.2446  0.0557
20922W        W36731   3.971   9.794  12.520 -0.0196 -0.0883 -0.2958
20923W        W36732  16.291   1.828   0.860  0.2245 -0.1187  0.2467
20924W        W36733   2.527   7.362   3.814  0.2052 -0.0630  0.1939
20925W        W36734   7.633  12.806  14.996 -0.0206 -0.0413  0.0409
20926W        W36735   8.962   8.766  14.729 -0.3151  0.2276  0.2194
20927W        W36736  13.635   7.216  12.403 -0.0388  0.0664 -0.0132
20928W        W36737  15.149   3.889  12.474  0.1594 -0.0220 -0.0681
20929W        W36738  16.238  17.370  13.244  0.4476  0.3523 -0.2440
20930W        W36739   2.952   5.157  13.630  0.3941  0.1296  0.1665
20931W        W36740   9.462  10.374  14.936 -0.0993  0.0162  0.0483
20932W        W36741   7.447   4.185  11.735 -0.1216  0.1769  0.0470
20933W        W36742   0.556   0.301  15.506 -0.2699 -0.3621 -0.0366
20934W        W36743   4.279   1.245   1.094  0.1247 -0.0079  0.0727
20935W        W36744   2.833  13.483  12.436  0.1665  0.0753  0.0773
20936W        W36745  11.836   2.278  14.318 -0.1238 -0.1325  0.1521
20937W        W36746   7.280   4.263  16.618 -0.1155 -0.0741  0.0995
20938W        W36747   2.952   8.711   3.729  0.2141  0.1626  0.0852
20939W        W36748  17.195   0.574  16.128  0.1591  0.1656 -0.1708
20940W        W36749   4.138  14.976  12.082 -0.1176  0.2056  0.1607
20941W        W36750  10.135  16.500  16.496  0.2177 -0.0301 -0.2653
20942W        W36751   1.563  12.735   4.404 -0.1666  0.1582  0.3159
20943W        W36752  17.327   3.357   1.162  0.3052  0.0222 -0.0039
20944W        W36753   2.953  10.668   0.505  0.0281 -0.1480 -0.1141
20945W        W36754   1.271  11.777   1.505  0.1193  0.0949 -0.3727
20946W        W36755   1.883  10.343  16.663  0.0356 -0.3048 -0.0664
20947W        W36756   6.318   7.042   1.702  0.0408  0.0348 -0.1514
20948W        W36757  11.621   6.735  15.523  0.1982  0.0749 -0.1171
20949W        W36758   2.269   9.970  15.419  0.0853 -0.1959 -0.0444
20950W        W36759  14.882   7.990   5.080  0.1691 -0.0886  0.0184
20951W        W36760   8.082  14.304   3.232 -0.1732 -0.0535  0.2162
20952W        W36761   7.261   8.093   4.436 -0.0611  0.0488 -0.1293
20953W        W36762   5.587  10.821  14.747 -0.0080  0.1191  0.3769
20954W        W36763   6.937   8.907  13.495  0.2524  0.1486 -0.0324
20955W        W36764  11.929  12.463   0.835  0.1202 -0.1504 -0.5543
20956W        W36765  11.773  10.040  15.175 -0.4991  0.0929 -0.0398
20957W        W36766   6.110   5.118   5.463  0.2429  0.0146  0.0766
20958W        W36767  11.072   6.583  14.927 -0.2522  0.0491  0.2404
20959W        W36768   0.788   1.467   2.047  0.3183 -0.1428 -0.0207
20960W        W36769  13.031   7.537  14.574 -0.0176 -0.0454  0.3377
20961W        W36770   1.481  10.844  12.775  0.1785 -0.1243 -0.1109
20962W        W36771  11.662   7.487   3.651 -0.0590 -0.0917 -0.0482
20963W        W36772  12.328   4.338  13.651  0.1025  0.0616 -0.1089
20964W        W36773   7.044   3.588   4.811 -0.3363 -0.1558  0.1621
20965W        W36774   1.542  10.516   4.002 -0.1304  0.0060 -0.1447
20966W        W36775  12.855   7.353  14.096  0.0251  0.1582 -0.1183
20967W        W36776  10.923  11.606   2.936 -0.2330  0.2188  0.0362
20968W        W36777   7.827   6.682  15.113  0.3348  0.1944 -0.0196
20969W        W36778   3.705  15.059  14.803  0.0553 -0.1494 -0.2036
20970W        W36779  17.622   6.727   1.665  0.1489  0.0761  0.1753
20971W        W36780  17.157  14.538   0.191 -0.0759 -0.1015  0.0356
20972W        W36781  11.857  16.487   3.053  0.3535  0.1136 -0.1610
20973W        W36782   6.335   3.001   0.852  0.0346 -0.1678  0.0819
20974W        W36783   4.704   5.381   0.244  0.2760  0.2639 -0.2447
20975W        W36784   6.804   3.600   2.152 -0.0841 -0.3694  0.0317
20976W        W36785  13.409   0.243  14.231 -0.0741 -0.1798 -0.3544
20977W        W36786   7.492  12.277   3.680 -0.1605  0.1037 -0.0265
20978W        W36787  13.920   1.041   1.445 -0.0726 -0.0980  0.1890
20979W        W36788   9.196  12.607   4.307 -0.0431  0.0381 -0.0756
20980W        W36789  10.604   0.613   1.106 -0.0238  0.0935 -0.0642
20981W        W36790  16.678  11.619   1.350  0.3056 -0.0714  0.2661
20982W        W36791  11.566  13.686  10.941 -0.0000  0.0533  0.2918
20983W        W36792   8.159   7.266   1.191  0.1014  0.2184 -0.0032
20984W        W36793   1.860  10.021  14.182  0.1802 -0.0757 -0.1064
20985W        W36794  15.929  15.810   1.361 -0.0104  0.1134  0.3481
20986W        W36795  16.006  12.565   4.224  0.1480 -0.2095 -0.2243
20987W        W36796   1.484   0.734  14.182 -0.0220 -0.1731  0.0366
20988W        W36797   6.729   1.701   2.122 -0.3072 -0.0102 -0.2602
20989W        W36798  17.262  15.862  14.341  0.2453 -0.0190  0.2746
20990W        W36799   0.754  14.636  13.484 -0.1642  0.1651 -0.0847
20991W        W36800   9.189   8.749  12.866  0.1074  0.0356 -0.3848
20992W        W36801   3.874   9.126   3.724 -0.0927 -0.3733  0.0701
20993W        W36802   9.546   1.236  14.837 -0.0164 -0.1477 -0.2562
20994W        W36803   1.542   2.463  11.972 -0.1847  0.1850  0.2641
20995W        W36804  14.687   1.536  16.978  0.0169 -0.1140  0.0253
20996W        W36805  13.789   0.592  15.910  0.0763 -0.2562 -0.0381
20997W        W36806   1.939  15.260  12.211  0.0778  0.1107 -0.1640
20998W        W36807   5.284  11.027   3.354 -0.0147  0.1317 -0.2995
20999W        W36808  15.781  11.647   1.156  0.1492 -0.2019 -0.1091
21000W        W36809  16.777   8.657   1.947 -0.0593  0.0432 -0.0810
21001W        W36810   6.606  13.019   4.549 -0.0249 -0.0523 -0.0081
21002W        W36811   7.494  11.755  13.581 -0.0332  0.2040  0.0922
21003W        W36812   9.756   5.347   2.367  0.0061 -0.1458  0.1725
21004W        W36813   1.303   7.193  14.771  0.0555  0.0459  0.1184
21005W        W36814   3.703   3.646   1.491  0.1235 -0.0459 -0.0669
21006W        W36815   6.090   6.379   4.991 -0.3073  0.2987 -0.1665
21007W        W36816  13.137   0.842  14.422 -0.1521  0.0525  0.2684
21008W        W36817   8.542   1.016   5.480  0.1597 -0.0634 -0.3640
21009W        W36818   5.712  11.651   0.174 -0.0939 -0.0973  0.1199
21010W        W36819   3.663  16.746  14.114 -0.1427  0.0386 -0.1084
21011W        W36820   7.877  17.201  14.879  0.1081 -0.1113  0.2672
21012W        W36821   6.527  16.196   3.816  0.0800 -0.2977 -0.0446
21013W        W36822   8.270  13.733  11.299 -0.2544  0.2355 -0.0548
21014W        W36823  12.416   3.846  14.489 -0.2225  0.1414 -0.0431
21015W        W36824  13.594   5.838  12.586 -0.2085  0.3465  0.0993
21016W        W36825  15.920  13.800   3.739 -0.1664 -0.1698  0.0065
21017W        W36826   0.987  17.405   4.806 -0.0358  0.0627  0.0442
21018W        W36827  13.938  16.530   3.789  0.0424 -0.1148 -0.4286
21019W        W36828   0.176  10.186   1.789 -0.1859 -0.0309 -0.0002
21020W        W36829  13.019  14.861   2.547 -0.1602 -0.2124  0.1630
21021W        W36830   3.663  12.396  12.613 -0.0488 -0.0786  0.0215
21022W        W36831   5.774   2.412   0.611  0.0807 -0.0687 -0.0364
21023W        W36832   1.294  12.472   6.647  0.0701  0.1215 -0.3560
21024W        W36833  13.436   6.091   4.926 -0.0014  0.0557  0.2442
21025W        W36834   2.252  16.706   2.057  0.2382 -0.0462 -0.0502
21026W        W36835   5.912   5.196  15.800  0.2605 -0.0801 -0.0982
21027W        W36836  17.485   2.692   3.524 -0.0802  0.0132  0.0916
21028W        W36837   1.056   6.235   3.455 -0.1815 -0.0811  0.2043
21029W        W36838   1.404  16.936  12.716  0.2649  0.0515 -0.0725
21030W        W36839  10.307  14.871  10.158 -0.1722 -0.0719 -0.2035
21031W        W36840  17.016  15.924  13.352 -0.1393  0.2147 -0.1041
21032W        W36841   4.754  11.466  16.023  0.2257  0.0498  0.1672
21033W        W36842  10.361   1.518   4.237  0.0075  0.2888 -0.1434
21034W        W36843   0.363   3.977  14.507  0.2428  0.5010 -0.2883
21035W        W36844   4.978   9.645   4.469 -0.0008 -0.0600  0.2830
21036W        W36845   2.359  12.990   2.927 -0.0648 -0.0330  0.1557
21037W        W36846   9.878  11.701  15.115 -0.1579  0.0403 -0.0009
21038W        W36847  13.826   2.131   1.746 -0.1428 -0.0834  0.2620
21039W        W36848   9.727   3.588   6.733 -0.2033 -0.0207 -0.1636
21040W        W36849  10.523  17.595  14.886 -0.0623 -0.2769 -0.2502
21041W        W36850   0.728   1.378  12.873 -0.1522 -0.1597  0.2133
21042W        W36851   1.514  13.098   3.470 -0.1710  0.3815 -0.1208
21043W        W36852   9.191  16.925   5.717 -0.1514 -0.0149  0.2229
21044W        W36853  11.435  14.098  11.667 -0.1865 -0.0742  0.1400
21045W        W36854   2.004  15.267  13.160  0.0846 -0.1107  0.1755
21046W        W36855   0.169   7.076   0.855 -0.0098  0.0611  0.2116
21047W        W36856   9.693  16.550   2.610 -0.1306 -0.1345 -0.1546
21048W        W36857  17.721   8.678  14.561  0.1111  0.1603  0.0985
21049W        W36858   2.405  14.256  13.198 -0.1615 -0.2197 -0.2070
21050W        W36859  17.253  16.230   4.918  0.0911  0.0652  0.0567
21051W        W36860   4.266  15.394   2.527 -0.0668 -0.3870  0.2675
21052W        W36861   1.383  17.431   4.176 -0.3009  0.0372 -0.4217
21053W        W36862  17.406   8.807  16.057  0.0721 -0.0131  0.3428
21054W        W36863  15.448  16.401   1.682  0.0776  0.0985  0.0389
21055W        W36864  10.889   3.106  13.769 -0.0083 -0.1049 -0.0623
21056W        W36865  15.559   5.675   1.300 -0.1791  0.3206 -0.2156
21057W        W36866   0.861   0.416   4.483  0.0563 -0.0768 -0.2456
21058W        W36867  14.278   6.354   4.736  0.0406  0.2514 -0.1582
21059W        W36868   4.583  17.609   1.188  0.0340  0.0924  0.1969
21060W        W36869   1.614  12.625  12.606  0.1142  0.3340 -0.0940
21061W        W36870  11.920  10.422   4.516 -0.2655  0.1025 -0.1034
21062W        W36871  11.392  16.209   3.833 -0.1960 -0.0268  0.0595
21063W        W36872  11.157   8.257  16.623  0.2303 -0.1459  0.1522
21064W        W36873   5.697   5.578  16.075 -0.0289 -0.0762  0.1595
21065W        W36874   9.421   3.918   5.307 -0.0119  0.0069 -0.0345
21066W        W36875   7.522   4.450   6.548 -0.0312 -0.2052  0.1837
21067W        W36876  12.197   3.131   1.658  0.2485  0.0280  0.1777
21068W        W36877  12.683  13.659   1.934  0.1792  0.3795 -0.1077
21069W        W36878   7.697  11.172   3.044  0.3998 -0.1271  0.2481
21070W        W36879  16.950   9.024  15.167  0.1598  0.1454 -0.2875
21071W        W36880   6.669  10.843  14.102 -0.2835 -0.1063  0.1955
21072W        W36881  11.410   3.827  12.993  0.0637 -0.1013 -0.1235
21073W        W36882  11.011  11.657  13.247 -0.1260 -0.0335 -0.0697
21074W        W36883   9.546  11.757  15.933  0.1271  0.0293  0.2440
21075W        W36884  12.594  10.453   1.128  0.0452 -0.0142 -0.1992
21076W        W36885  15.500  14.807   5.469  0.0992 -0.3871  0.0724
21077W        W36886   1.265   3.865   1.426 -0.0777  0.4220  0.0118
21078W        W36887  11.594  11.128  15.304  0.0131 -0.0299 -0.0482
21079W        W36888   3.486   3.346  16.212 -0.1260  0.2762 -0.0487
21080W        W36889   9.735  16.427   4.398  0.0019 -0.0102 -0.0567
21081W        W36890  12.537   1.516  13.801  0.1289 -0.2423 -0.1005
21082W        W36891  11.979  10.608   0.588  0.3257  0.0837 -0.0620
21083W        W36892  13.918  11.189   1.236  0.2442  0.1896  0.2378
21084W        W36893  10.842  11.183   2.619  0.0720 -0.3291 -0.2068
21085W        W36894  12.336   5.843   1.514  0.0206 -0.3604 -0.0380
21086W        W36895   0.713   3.877  12.820  0.0046  0.0442  0.1152
21087W        W36896  14.083  11.852   5.585  0.0030  0.0527 -0.0516
21088W        W36897  13.062   2.155   5.093 -0.0178  0.0579  0.1908
21089W        W36898  12.958   3.002  13.580  0.1263 -0.0582 -0.2694
21090W        W36899  15.397   1.847  13.697 -0.0922  0.1686 -0.0004
21091W        W36900   6.384  16.530  14.253 -0.2191 -0.0646  0.1626
21092W        W36901   1.626   9.339  13.552  0.2807 -0.1771  0.0761
21093W        W36902   2.441  11.148  13.263  0.0968 -0.2074 -0.2466
21094W        W36903   1.229  11.588  16.951 -0.1797 -0.2745  0.0658
21095W        W36904   7.852  12.271  15.693  0.4379  0.3149 -0.0781
21096W        W36905   9.710  16.290   0.661 -0.2676  0.1547 -0.2701
21097W        W36906   6.552  10.204   3.508  0.2908  0.0641 -0.0095
21098W        W36907  10.009   9.567   4.495  0.0153  0.0112  0.2211
21099W        W36908   9.658  11.095   0.434 -0.2215 -0.2718 -0.0480
21100W        W36909   7.801   2.166  13.022  0.2441  0.0624  0.1216
21101W        W36910   2.735  14.867  13.755 -0.0651  0.2394 -0.2332
21102W        W36911   0.635  12.096   3.260 -0.0959  0.2734 -0.3494
21103W        W36912  11.706  10.810   0.262  0.0514  0.1234 -0.0334
21104W        W36913  14.771   3.569   2.774  0.0016 -0.1306 -0.3536
21105W        W36914  15.321  17.486   0.749  0.0997 -0.1720 -0.0280
21106W        W36915   8.644  10.005   4.380  0.0713 -0.0967 -0.0575
21107W        W36916  10.856   5.710   0.962  0.1404  0.2333 -0.1036
21108W        W36917  10.084   0.576  15.799 -0.0403  0.1716 -0.0159
21109W        W36918   4.599  13.298   1.764 -0.0585 -0.0703 -0.0930
21110W        W36919   1.077  16.276   1.151 -0.0738 -0.2957 -0.0009
21111W        W36920  10.770   4.438   2.366 -0.1799 -0.2699 -0.0196
21112W        W36921   7.331   4.027   2.618  0.4735  0.2008  0.1586
21113W        W36922  15.820  12.128  13.802 -0.4231  0.5167 -0.2133
21114W        W36923  11.490   2.046  11.814  0.1328  0.0036  0.1725
21115W        W36924  13.584   4.340  11.968  0.0196 -0.1163  0.1718
21116W        W36925  15.387  10.545  15.261  0.2079 -0.0906  0.1263
21117W        W36926   8.945   7.335  12.723  0.0779 -0.4618  0.0001
21118W        W36927   6.583   0.181   0.537  0.0539  0.2516  0.2660
21119W        W36928  14.787   3.943   5.999 -0.2850  0.0454  0.1881
21120W        W36929  12.454   6.810   0.866  0.0927 -0.0526 -0.1148
21121W        W36930   0.218   2.556  11.980  0.1470  0.0924  0.0380
21122W        W36931  16.221   5.128   4.465 -0.2695  0.3030  0.2667
21123W        W36932  15.067   9.048   2.612  0.1648 -0.1404  0.1742
21124W        W36933   3.039  13.693   5.347  0.0045 -0.3482 -0.0268
21125W        W36934   1.464   9.426  15.776 -0.1199  0.1407 -0.0664
21126W        W36935  12.775  17.611   5.035  0.1006 -0.0664  0.0222
21127W        W36936   8.771  16.537   4.767 -0.0231  0.0986  0.3747
21128W        W36937  10.860   5.841  16.628  0.2549 -0.0304 -0.2744
21129W        W36938  11.264   4.471   4.890  0.0848  0.2637 -0.1070
21130W        W36939  15.287  11.576  12.466 -0.3579  0.0638 -0.1593
21131W        W36940   2.838   6.773  16.228  0.0223  0.2286 -0.4277
21132W        W36941   6.374  10.522   2.277 -0.1848  0.2310 -0.1680
21133W        W36942   5.497  12.527   5.304  0.1787 -0.0029 -0.2898
21134W        W36943   9.840  11.523   4.661  0.0752  0.0826 -0.3513
21135W        W36944   4.418   8.636  13.254  0.2719  0.0364  0.0767
21136W        W36945   0.410  14.699   1.157 -0.2289 -0.0472  0.2430
21137W        W36946   6.979   2.131   1.677  0.0842  0.1547 -0.0612
21138W        W36947   2.715   1.515   1.288  0.1260 -0.1222 -0.0152
21139W        W36948  14.546   3.771  13.278 -0.4085 -0.0729  0.0988
21140W        W36949   5.118   1.364  16.119  0.1851  0.0203 -0.2006
21141W        W36950   9.832   0.112  12.330  0.1371  0.2591  0.2849
21142W        W36951   0.548   7.922  16.722 -0.0681 -0.1417  0.2111
21143W        W36952   0.274   4.576  16.444 -0.0721 -0.3745  0.0906
21144W        W36953   2.630   2.536  14.292 -0.0222  0.0957  0.0781
21145W        W36954  13.587   4.166   0.038 -0.1533 -0.0180  0.0092
21146W        W36955   2.843   7.928   0.891  0.3365 -0.0641 -0.1428
21147W        W36956  12.233  15.943   3.781 -0.3149 -0.0745  0.0568
21148W        W36957   3.094   2.684  11.847  0.0395  0.0952  0.0077
21149W        W36958   8.445   3.570  14.742 -0.0382 -0.3294  0.0927
21150W        W36959   1.786  11.363  10.566  0.2320 -0.1317  0.1662
21151W        W36960   1.482  14.103  16.503  0.0398 -0.2057  0.0582
21152W        W36961   2.884   3.270  15.295 -0.1725  0.2725  0.1221
21153W        W36962  13.357   3.629   4.003  0.2232 -0.2325 -0.0441
21154W        W36963   6.295   5.611  12.423 -0.0237  0.1555 -0.1866
21155W        W36964   7.617  15.668  15.183 -0.2197 -0.2846 -0.1271
21156W        W36965   6.942  17.598   4.760  0.2356  0.1703 -0.0285
21157W        W36966   0.667   0.594  13.047 -0.0141 -0.1287  0.0211
21158W        W36967  13.687   2.287  15.731 -0.0570  0.0813  0.0641
21159W        W36968   0.190   6.918  15.079 -0.0617 -0.0056  0.2466
21160W        W36969  13.965   1.934   5.167  0.2374  0.0167  0.5266
21161W        W36970   8.132   7.071   4.515 -0.1038 -0.0765  0.1340
21162W        W36971   7.287   1.918   2.038  0.1580  0.0812 -0.1603
21163W        W36972   0.112   5.288   6.448  0.0582  0.2179 -0.0401
21164W        W36973   5.054   4.929   1.934 -0.0429 -0.0887 -0.0284
21165W        W36974  14.563   4.765  15.556 -0.1270 -0.0353 -0.2196
21166W        W36975  16.651   2.044   1.447 -0.1996 -0.0892  0.3528
21167W        W36976  16.303  14.177  13.790 -0.0696  0.0276  0.2506
21168W        W36977   0.916  12.265  12.957 -0.3510  0.0425  0.0614
21169W        W36978  16.196   0.757   0.160 -0.1027 -0.1857 -0.3252
21170W        W36979  16.456  16.552   4.728  0.0899 -0.0380 -0.1288
21171W        W36980  15.051  12.263   5.158 -0.0771 -0.2164  0.0079
21172W        W36981   5.262   4.849  11.864  0.0507  0.1921  0.2963
21173W        W36982   7.461   0.014  16.857 -0.2840 -0.0850 -0.0945
21174W        W36983   1.427   4.912  12.982  0.0060  0.0941 -0.3632
21175W        W36984  14.080  13.507  12.873 -0.1917 -0.0059  0.2462
21176W        W36985   0.251   8.955  16.263 -0.1173 -0.0438  0.1000
21177W        W36986   4.639  12.209   2.933  0.0879 -0.0205  0.0855
21178W        W36987  10.731   4.037   0.685 -0.0172  0.0819 -0.0389
21179W        W36988   1.085  17.108   2.921 -0.2495 -0.0509 -0.1000
21180W        W36989   5.639  11.495   1.778  0.5065  0.3370 -0.2568
21181W        W36990   5.273  16.974   2.993  0.2188 -0.1046  0.1570
21182W        W36991   3.978  11.776  16.034 -0.2739 -0.1244  0.1423
21183W        W36992  17.588  11.681   5.073  0.1658  0.0555 -0.3192
21184W        W36993   8.655  16.827   2.651 -0.2189  0.2963  0.1743
21185W        W36994   6.415  10.903  15.969 -0.1386  0.0385  0.2378
21186W        W36995  15.597   6.336   4.982 -0.1490  0.0245 -0.2241
21187W        W36996  14.499   6.936   0.382 -0.0418  0.2808 -0.0606
21188W        W36997   0.252  11.382  16.486  0.2811  0.3933 -0.1617
21189W        W36998   7.611   7.463   3.191 -0.1108 -0.0274 -0.1163
21190W        W36999  15.079   5.531   2.570 -0.1801 -0.1544 -0.1410
21191W        W37000   3.619  16.973  15.546  0.2044 -0.2118 -0.0765
21192W        W37001  14.437   4.987   5.170  0.1011 -0.0040  0.3896
21193W        W37002   3.482   7.947  14.247  0.0993 -0.1728  0.2352
21194W        W37003  11.038  13.163  13.737 -0.0889  0.2640  0.1238
21195W        W37004  15.013   3.484  16.216  0.0943 -0.0589  0.1062
21196W        W37005   5.655  17.090  11.841  0.0359 -0.0098 -0.5749
21197W        W37006   5.161   4.830   2.961  0.0352 -0.0538 -0.0803
21198W        W37007   9.837  10.291  13.927 -0.1784 -0.2020 -0.1163
21199W        W37008   1.644   1.711   1.984  0.0395  0.1703 -0.0497
21200W        W37009   1.568  14.048  14.291 -0.1198 -0.0387 -0.0086
21201W        W37010  12.438   4.598  16.979 -0.0494  0.2480  0.4683
21202W        W37011   8.446   7.560  11.856  0.1367 -0.1376 -0.1355
21203W        W37012   4.478  15.531  14.183 -0.2015 -0.0719  0.0607
21204W        W37013  10.141   3.475  13.118  0.1109  0.1361 -0.1729
21205W        W37014   9.783  13.771   0.316 -0.0751 -0.0185 -0.2587
21206W        W37015  11.893  17.214  14.395  0.0264 -0.2107 -0.1734
21207W        W37016  11.762  10.566  13.817  0.1486  0.0580  0.2992
21208W        W37017  14.714   1.466  14.100 -0.1486  0.2427  0.0129
21209W        W37018   7.746   6.216   2.913  0.1470  0.2291 -0.0992
21210W        W37019  12.277  11.677   2.843 -0.1961  0.3569 -0.4795
21211W        W37020   1.380  15.258  11.892 -0.0594 -0.0421 -0.1545
21212W        W37021   2.926  12.909  15.117  0.1197  0.1871 -0.0294
21213W        W37022   4.835   4.394   2.815 -0.3187  0.1065 -0.2489
21214W        W37023  15.232   2.348  15.495 -0.0181  0.1826 -0.0590
21215W        W37024  10.359  10.097   3.740  0.1075  0.2980  0.1533
21216W        W37025   8.933  13.396   2.288 -0.0435  0.0213  0.2769
21217W        W37026  14.680   2.412   1.658 -0.0408  0.0414  0.3429
21218W        W37027  12.466  12.699   2.503  0.3118 -0.1767 -0.1617
21219W        W37028   5.039  15.253   5.783  0.4088 -0.0413  0.0852
21220W        W37029  14.961  10.101   5.153 -0.2963  0.1418 -0.2249
21221W        W37030  16.100   5.019   3.488  0.0568  0.0077 -0.0152
21222W        W37031   9.168  13.748  15.432 -0.0019  0.3123  0.0665
21223W        W37032  17.487   3.539  12.111  0.3701 -0.3257 -0.3445
21224W        W37033  16.656  17.262  11.829 -0.0050  0.3365  0.0587
21225W        W37034  10.483   5.668  16.932 -0.3686 -0.1166  0.1182
21226W        W37035   8.821  10.739   0.523 -0.1972  0.0384 -0.1455
21227W        W37036   0.397   0.894   0.010  0.3235 -0.2522 -0.0988
21228W        W37037   3.055  16.985   0.251 -0.0208  0.0381  0.0278
21229W        W37038   6.051   1.222  16.700  0.1788  0.0961  0.0928
21230W        W37039  16.221  16.081   4.875  0.0921 -0.0784  0.1165
21231W        W37040  12.852   6.538  15.198  0.2063  0.1256 -0.0652
21232W        W37041   1.595   7.762   0.440  0.0789  0.1651 -0.2548
21233W        W37042  15.201  16.917  14.547  0.2021  0.0187  0.1085
21234W        W37043   3.691  11.201  12.290 -0.2142 -0.3779 -0.1427
21235W        W37044   2.265   1.715   3.697  0.1798 -0.0727  0.2149
21236W        W37045   7.424   9.750   6.337  0.3287 -0.0830  0.2441
21237W        W37046   9.405   5.671   3.998  0.4643 -0.1546 -0.2318
21238W        W37047  17.447   2.450  15.388 -0.1662 -0.3057  0.1576
21239W        W37048  13.512  10.518  12.289  0.0878 -0.2199 -0.1326
21240W        W37049  13.499  11.231   5.773  0.1313 -0.0366 -0.0164
21241W        W37050   2.906  13.788   2.927  0.3909 -0.3080 -0.1422
21242W        W37051   7.733   9.360  12.978 -0.1757  0.2867 -0.2796
21243W        W37052   9.561   8.722   4.698  0.0725 -0.0544 -0.0948
21244W        W37053   0.423  10.863  16.736  0.0923  0.0638 -0.3101
21245W        W37054   1.663   8.770   2.495 -0.0214 -0.0735 -0.0725
21246W        W37055   5.348   0.977   2.147  0.4380 -0.1906  0.0478
21247W        W37056  12.456   3.300  12.324 -0.0447 -0.0154  0.0146
21248W        W37057   3.203   1.136  15.923 -0.2317  0.2605 -0.2392
21249W        W37058   4.894  16.871   1.532 -0.1693  0.3257  0.0953
21250W        W37059  13.169  12.215   1.066 -0.0630 -0.0719 -0.0347
21251W        W37060   1.119  13.605   1.679  0.1627 -0.3806 -0.0424
21252W        W37061  16.172  17.280  14.755 -0.3134 -0.0100  0.0604
21253W        W37062   6.866  12.833  11.925 -0.1783 -0.1785  0.0026
21254W        W37063  12.187   6.947  14.624  0.1545  0.0191  0.1278
21255W        W37064   5.386  17.541   4.647 -0.0228  0.4593  0.0051
21256W        W37065   2.492  15.416   1.561  0.1925  0.0383  0.0882
21257W        W37066   7.704  16.204  15.361  0.0989  0.0173 -0.3060
21258W        W37067  14.322  10.773  15.793 -0.0714 -0.0429 -0.0006
21259W        W37068   0.095  12.776   1.330  0.0433 -0.2460  0.0081
21260W        W37069   8.594   6.078   0.552  0.0411  0.1009  0.1431
21261W        W37070  16.585   5.488  14.782  0.1097 -0.0488  0.0765
21262W        W37071  15.476  17.396   1.307  0.0043  0.2508  0.1446
21263W        W37072  15.769   8.775  16.325  0.0279  0.0133 -0.3396
21264W        W37073  11.304  14.499   0.722 -0.0402 -0.3328 -0.1795
21265W        W37074  10.085   3.705  16.963  0.3408 -0.2469 -0.2942
21266W        W37075  12.604  15.600   3.648  0.0082 -0.1717  0.0983
21267W        W37076   5.569   3.410  14.603 -0.1011  0.1473  0.1846
21268W        W37077   5.944   1.399  16.237  0.0668 -0.2576 -0.1592
21269W        W37078   1.506  11.185  15.980  0.1100  0.1461  0.3101
21270W        W37079  14.103  12.446   2.677  0.2347  0.1675 -0.0886
21271W        W37080   2.149  14.182   3.771 -0.0550 -0.0382  0.2260
21272W        W37081   7.674  12.039  16.270  0.0729  0.0606  0.1248
21273W        W37082  13.276   4.038  14.877 -0.0325 -0.0677  0.0899
21274W        W37083   5.044  11.176  16.456  0.1255  0.1028 -0.3563
21275W        W37084   1.226   8.845  13.074  0.2047  0.2543 -0.0374
21276W        W37085   9.403   7.201   5.394 -0.0416  0.0557 -0.3864
21277W        W37086  13.559   2.385   1.123  0.1080  0.0395 -0.0683
21278W        W37087   9.378  15.922  11.469 -0.1376  0.0899 -0.0584
21279W        W37088  15.057   3.901   2.528  0.1880  0.1551  0.2918
21280W        W37089  11.028   2.837   5.358 -0.0152  0.1967 -0.0820
21281W        W37090   5.224   3.229   2.432  0.1601 -0.0228 -0.1045
21282W        W37091  11.709  17.331  11.507  0.2284 -0.0669 -0.0654
21283W        W37092   0.042  12.939   4.184  0.1753 -0.1062 -0.2968
21284W        W37093  16.376   3.066   5.914  0.0149 -0.0874 -0.3538
21285W        W37094   1.903   7.391  13.653  0.0334 -0.3278 -0.1064
21286W        W37095   4.876  13.862   0.810  0.1499  0.1130 -0.0319
21287W        W37096  14.991  11.915   0.700 -0.0542 -0.0875  0.0395
21288W        W37097  15.245   8.187   0.452  0.0466 -0.0819  0.2467
21289W        W37098   7.745   5.689  14.427 -0.1511 -0.4092  0.0314
21290W        W37099   3.327  12.265   1.332  0.2144  0.3773  0.1479
21291W        W37100   7.759   5.865   5.231  0.0798  0.1698 -0.1493
21292W        W37101   8.724   9.667   2.272 -0.2075 -0.0231 -0.0596
21293W        W37102  12.305  11.750  13.003 -0.0364 -0.1464  0.1849
21294W        W37103  15.258   3.837   5.736  0.0715 -0.0247 -0.0060
21295W        W37104  14.124  11.423  14.837 -0.0432 -0.0809 -0.3441
21296W        W37105   2.138   9.003  16.069 -0.0083 -0.0258  0.1335
21297W        W37106   9.167  12.921   0.405  0.3949  0.2668 -0.0878
21298W        W37107   2.460   3.702   3.573 -0.0823  0.0650 -0.0061
21299W        W37108  12.210  15.723   0.694 -0.1664 -0.0255 -0.1904
21300W        W37109   1.597   3.970  14.442 -0.0349 -0.1899  0.3716
21301W        W37110   4.234  11.275  14.795  0.1539  0.0723  0.2252
21302W        W37111   2.455   2.019   2.081  0.0425  0.0462 -0.0696
21303W        W37112  15.183   8.194   6.115  0.2828  0.0110 -0.0306
21304W        W37113  14.593  13.343   2.692 -0.2259 -0.1166  0.1542
21305W        W37114  15.385   5.843  12.912  0.2874 -0.1056  0.0762
21306W        W37115  13.478   1.156   1.684 -0.4156 -0.1812 -0.1876
21307W        W37116   5.677  10.339  16.293 -0.0097 -0.1309  0.1061
21308W        W37117   7.350   9.062  13.748 -0.3093 -0.0705 -0.1991
21309W        W37118  11.410   7.539  13.703  0.2620  0.0713 -0.0937
21310W        W37119   5.370   0.435  11.891  0.2024 -0.1899 -0.0184
21311W        W37120  12.164   0.708   1.977  0.1408  0.3275  0.1276
21312W        W37121   9.761  16.913   4.391  0.0161  0.2589  0.3271
21313W        W37122  16.417   5.810  16.470 -0.1356  0.0979 -0.1836
21314W        W37123   6.527  10.631   5.095 -0.0620 -0.0327  0.0018
21315W        W37124  15.337   5.781  12.463 -0.0789 -0.0198 -0.0385
21316W        W37125  15.715   3.784  12.855  0.2737  0.4156  0.1755
21317W        W37126   0.381   1.801   5.116 -0.1330  0.1105 -0.0070
21318W        W37127   6.504   7.211   5.384  0.2730 -0.2118  0.0894
21319W        W37128   3.518   1.283   3.352 -0.2616 -0.0558 -0.0024
21320W        W37129   5.909  10.410   5.827 -0.0899 -0.1647  0.3938
21321W        W37130   9.222   1.308   0.972 -0.1355  0.2570 -0.1707
21322W        W37131   4.378  10.552  13.065 -0.1924 -0.1065 -0.0332
21323W        W37132   2.815   8.423   0.097 -0.0397  0.2993  0.0600
21324W        W37133   6.527   1.214  15.085 -0.4113 -0.0748 -0.1972
21325W        W37134   7.418   7.599   4.533 -0.2472  0.0250 -0.1039
21326W        W37135  17.540   1.141  12.720 -0.1088 -0.1335 -0.0635
21327W        W37136   6.997   9.891  14.300 -0.0871  0.1217 -0.0893
21328W        W37137  14.025   2.618  12.905  0.0774  0.2031  0.3034
21329W        W37138   1.594  12.303  15.080  0.3169 -0.0432 -0.0901
21330W        W37139  11.219   2.809  14.037  0.0543  0.3089  0.0483
21331W        W37140   3.072  16.079   2.747 -0.0095 -0.1871 -0.0982
21332W        W37141   7.740   9.343   0.608 -0.2448  0.0215 -0.0412
21333W        W37142   3.699  13.803  11.915 -0.0818  0.0982  0.2100
21334W        W37143   0.323   0.456  15.946  0.0300  0.4388 -0.1399
21335W        W37144  11.024   0.720  16.063  0.0611  0.1382  0.1985
21336W        W37145  13.877  13.372   0.688 -0.2877  0.0636  0.1195
21337W        W37146  13.444   5.833   4.342 -0.0110 -0.2068  0.3578
21338W        W37147   7.006   5.332  15.812 -0.0649 -0.1698  0.3694
21339W        W37148   0.632  12.458  14.915  0.3007  0.0611 -0.4493
21340W        W37149  12.520   8.840   2.116 -0.0552  0.0194 -0.2425
21341W        W37150  10.734   5.271  11.886  0.2077  0.2079 -0.1333
21342W        W37151   4.728  13.862   4.996 -0.0452  0.1007  0.2258
21343W        W37152  10.612  16.496   3.940 -0.1289 -0.2899  0.2586
21344W        W37153  16.851   7.470  12.676 -0.1055  0.1379  0.2937
21345W        W37154   1.237  13.389  15.249  0.1858 -0.1719 -0.1214
21346W        W37155  12.680  14.506   1.294  0.2547  0.0252  0.2898
21347W        W37156  12.758   6.146  14.696 -0.0312 -0.1670 -0.1564
21348W        W37157   1.423  12.337   4.680 -0.0374 -0.1470 -0.1830
21349W        W37158  12.579   8.546   6.193  0.1815 -0.2334  0.0586
21350W        W37159   0.258  10.552   4.305 -0.0387  0.3998  0.0374
21351W        W37160  15.651   8.820  11.714  0.0682 -0.0850  0.0313
21352W        W37161   0.721   8.216  14.739 -0.1138  0.2447 -0.0656
21353W        W37162  17.596   2.972  12.894  0.1626 -0.1842 -0.1628
21354W        W37163   1.224   1.036   1.439  0.2159 -0.0399 -0.2365
21355W        W37164   0.840   7.803   3.133 -0.0008 -0.0216  0.0125
21356W        W37165  17.065   4.781   4.475  0.0040 -0.1028 -0.1859
21357W        W37166  11.088  15.155  12.259 -0.0933 -0.0810 -0.0218
21358W        W37167   7.453  12.687  13.369 -0.2636 -0.0117  0.1522
21359W        W37168  17.000   2.088   3.371 -0.0918 -0.2339  0.1939
21360W        W37169  11.609  17.224   0.743 -0.2732 -0.1619  0.0990
21361W        W37170   8.320  11.850   3.174 -0.1846 -0.0151  0.0645
21362W        W37171   0.966   1.152   4.285 -0.1523  0.0700  0.1348
21363W        W37172   9.015   8.223  12.835 -0.1374  0.0095 -0.1834
21364W        W37173  12.014   3.449   2.046  0.1270 -0.2170  0.0777
21365W        W37174  17.055   8.357  11.678  0.1906  0.0241 -0.3110
21366W        W37175   6.204  15.729   5.144  0.1214 -0.0417 -0.0976
21367W        W37176   5.341  15.177   5.276 -0.1547 -0.3078  0.1049
21368W        W37177   0.014   8.755   0.026 -0.3066 -0.0701  0.1487
21369W        W37178  11.166   8.238   1.266 -0.0380  0.0319  0.1085
21370W        W37179  16.013  17.316  14.306 -0.1295 -0.1034  0.0888
21371W        W37180   0.653  11.990  15.267  0.0024 -0.0371  0.2198
21372W        W37181   9.585   9.625   4.195 -0.3349 -0.1319 -0.0711
21373W        W37182   8.679   6.406  15.064  0.0992 -0.0449  0.2513
21374W        W37183   6.637  14.284  11.250 -0.1418  0.1987 -0.1083
21375W        W37184  14.707   9.246   5.021  0.2678 -0.1699  0.1624
21376W        W37185   0.845  11.563   1.641  0.0618 -0.1931  0.0298
21377W        W37186   9.229  10.505   6.053  0.0312 -0.0487  0.0993
21378W        W37187  12.122  16.224   1.411 -0.0571 -0.1279  0.1604
21379W        W37188   8.970   2.221  13.035  0.1852  0.1270 -0.0111
21380W        W37189   1.072   1.137   3.171  0.1554 -0.0491 -0.1142
21381W        W37190  14.432  14.608   2.678  0.1834 -0.1594  0.2534
21382W        W37191   7.185  12.081  13.864 -0.2545 -0.1819  0.0215
21383W        W37192   6.705  16.196  15.134 -0.0536 -0.0239 -0.1270
21384W        W37193   2.132  13.039   1.515  0.0443  0.1696 -0.3951
21385W        W37194   3.073   8.992   2.830  0.1583 -0.3090 -0.0196
21386W        W37195  11.825   5.786   1.494  0.1232  0.1617  0.1696
21387W        W37196  14.356   4.373  12.428 -0.1651  0.1573  0.0403
21388W        W37197  14.773   8.774   5.053  0.1816 -0.0935  0.3350
21389W        W37198   3.886   6.555   4.008 -0.0310  0.1233  0.1000
21390W        W37199  13.472   2.595  15.288  0.1141 -0.3225 -0.1246
21391W        W37200   2.948  10.158   3.648  0.1062 -0.1561 -0.0831
21392W        W37201  11.466   4.456   6.902  0.0638 -0.0602  0.1335
21393W        W37202   0.033   9.663   2.483 -0.0901  0.0402 -0.0638
21394W        W37203   4.637  17.543   2.563  0.0104 -0.0984  0.0199
21395W        W37204   1.938   7.302  15.497  0.0440  0.0659  0.2307
21396W        W37205   3.379   6.343  15.400  0.0738 -0.1678  0.4043
21397W        W37206  15.106   8.865  13.012  0.0712  0.0604 -0.1149
21398W        W37207  13.069   3.822  15.270  0.0675  0.0568 -0.2635
21399W        W37208   0.949  17.690   5.285  0.2262  0.0283 -0.2529
21400W        W37209   8.830   9.818  11.213  0.0478 -0.0633  0.1467
21401W        W37210  16.796  17.479   4.573 -0.0499  0.1216 -0.2637
21402W        W37211   6.231   9.030  13.247  0.0520 -0.2140  0.0240
21403W        W37212   7.673  11.355  15.996  0.0199  0.3244 -0.0853
21404W        W37213   2.131   0.722  13.026 -0.4149 -0.1125  0.0583
21405W        W37214  11.724   9.700  15.547 -0.0611 -0.4716 -0.3347
21406W        W37215   2.858   0.450   1.423  0.0537  0.0572 -0.0073
21407W        W37216   6.783   6.750   0.818 -0.3465  0.1081 -0.2658
21408W        W37217  12.283  15.706  11.901 -0.2179  0.1520  0.0280
21409W        W37218   4.171  13.192   0.552 -0.1059  0.1027 -0.2186
21410W        W37219  15.805  12.076  12.922 -0.1957 -0.0334  0.2842
21411W        W37220  13.866  14.673   3.133  0.1497 -0.4327 -0.1400
21412W        W37221  14.894  10.282   1.633  0.0499  0.2116  0.2815
21413W        W37222   2.154  10.679  13.242 -0.0046  0.1794 -0.2076
21414W        W37223   1.714  15.067   0.627 -0.2739  0.0029  0.1410
21415W        W37224   9.517  13.942   4.977  0.1868  0.2212  0.0676
21416W        W37225  17.461   2.203   3.448  0.1175  0.1177 -0.1826
21417W        W37226  10.659  11.668  11.974  0.0070 -0.0638  0.3393
21418W        W37227   2.577  13.532   2.100  0.0149 -0.0549  0.1219
21419W        W37228  10.695   6.502  15.839 -0.0451  0.1422  0.0229
21420W        W37229  16.362   3.993   5.425  0.0134 -0.0913 -0.1103
21421W        W37230   0.264  15.119  15.483  0.2123 -0.0201 -0.1414
21422W        W37231   8.667   9.878   3.898 -0.2583 -0.4505 -0.4242
21423W        W37232  10.720   1.323   0.467  0.0711 -0.1345 -0.0842
21424W        W37233   5.477   2.898   1.999  0.0045 -0.0959 -0.0528
21425W        W37234  13.595   6.017   0.484  0.3672  0.0966 -0.0989
21426W        W37235   4.586  15.045   6.303  0.0676 -0.1272 -0.0265
21427W        W37236  10.823   9.661   1.454  0.2752 -0.0379  0.0038
21428W        W37237   1.466   7.501  15.213 -0.3503 -0.0463  0.1941
21429W        W37238  16.082   8.536  14.932  0.0419  0.1646  0.0546
21430W        W37239   6.761  11.634   0.876  0.2632 -0.1321  0.0721
21431W        W37240  16.173   7.048   3.709  0.3469  0.0337 -0.1231
21432W        W37241   2.554   3.414   6.242 -0.0933  0.2351 -0.1952
21433W        W37242   7.242   6.934   0.957  0.0966  0.2903  0.0289
21434W        W37243   0.560   6.077   5.339  0.1559 -0.2933  0.1339
21435W        W37244   7.900   5.803  16.440  0.0505  0.0930 -0.1469
21436W        W37245  15.319   9.882  13.640 -0.0205 -0.0301 -0.4156
21437W        W37246  12.034   8.821   2.925  0.2759 -0.2695 -0.0286
21438W        W37247  15.411   9.896   5.424 -0.3260  0.1310  0.1289
21439W        W37248  14.681  11.641  14.783 -0.1813  0.2976  0.0358
21440W        W37249   0.114  15.800  11.441 -0.1087  0.0581 -0.3318
21441W        W37250   5.248  15.101  11.558 -0.0237 -0.1311 -0.0095
21442W        W37251   4.831   8.307   1.955  0.1012 -0.1227  0.1615
21443W        W37252   4.923  12.252  13.246 -0.1902  0.0085 -0.3082
21444W        W37253   8.653   3.893   1.705  0.2602  0.1516  0.0866
21445W        W37254   5.696   9.150   0.743  0.5272 -0.0223  0.2131
21446W        W37255   7.796   0.220  11.415  0.1252  0.1158 -0.0142
21447W        W37256   6.047   7.476   4.118  0.0685 -0.0771  0.0486
21448W        W37257   7.090  10.615  15.480  0.3184 -0.0166 -0.0298
21449W        W37258  14.985   5.145   4.492 -0.0904  0.2059  0.1347
21450W        W37259   9.022  13.796   0.680  0.2567  0.0922 -0.2829
21451W        W37260   2.084   7.447   3.198 -0.0342  0.0430  0.1445
21452W        W37261   3.719  11.962  17.002  0.0250  0.0768  0.0637
21453W        W37262  13.148   9.474   1.833  0.0849 -0.1423  0.0825
21454W        W37263   5.439   9.137  14.844 -0.0219  0.2304  0.0268
21455W        W37264  12.090  12.929   1.112  0.1999 -0.4731  0.1108
21456W        W37265   3.294  13.086  13.251  0.2814  0.0214 -0.0763
21457W        W37266   5.887  17.485  12.080 -0.0002 -0.2699 -0.2640
21458W        W37267   7.429   6.574  12.435 -0.0405 -0.1257  0.0214
21459W        W37268   0.465   4.987  13.756 -0.0007 -0.0712  0.3418
21460W        W37269  15.222  12.000  14.309  0.0140  0.2234  0.0230
21461W        W37270   3.209   3.919  13.805  0.0483 -0.1605  0.1543
21462W        W37271  10.702   0.562   5.358 -0.0007 -0.3226  0.0740
21463W        W37272   4.560  17.251  12.600  0.2017  0.0022 -0.1545
21464W        W37273  15.167   0.038   3.140  0.1483 -0.2306 -0.0461
21465W        W37274  11.032  10.490   1.088  0.2019  0.0826  0.3039
21466W        W37275  16.440   5.574   1.245  0.1306  0.1655  0.1624
21467W        W37276  10.869   9.157   4.355  0.1367 -0.0061  0.1094
21468W        W37277  14.318  17.666  16.559 -0.0511  0.0885  0.3694
21469W        W37278  16.642  15.698  13.084  0.1137  0.1303  0.1700
21470W        W37279   2.509  12.904   5.307  0.0614 -0.1833  0.0352
21471W        W37280   2.863   7.977  15.514 -0.0812  0.1683 -0.1690
21472W        W37281   9.407  15.268   4.477 -0.0583  0.3255 -0.0140
21473W        W37282  11.233   3.632  12.530 -0.0125  0.2600  0.4320
21474W        W37283  14.482   9.996  15.046 -0.0324 -0.0831 -0.2189
21475W        W37284  14.914   5.893  16.444  0.0001  0.0803  0.1614
21476W        W37285  13.552   9.247  14.053  0.1562 -0.2490 -0.4051
21477W        W37286   0.139   2.508  14.319 -0.1822  0.0003  0.1337
21478W        W37287   5.032   8.497  16.658 -0.0657  0.1368  0.0646
21479W        W37288  13.024   8.884  11.636  0.4773  0.0594 -0.1415
21480W        W37289  16.570  11.975   4.215  0.2792 -0.1801 -0.0576
21481W        W37290  14.440   3.590  12.640  0.0459  0.1360  0.4697
21482W        W37291   6.398   5.778   2.506 -0.4638  0.0013  0.0872
21483W        W37292   8.659   0.925  14.919 -0.0227  0.2084  0.1734
21484W        W37293   9.615   8.936   2.175  0.1931 -0.2889 -0.2074
21485W        W37294   6.986  15.300   2.361  0.0002  0.0890 -0.1567
21486W        W37295  15.202   6.482   0.118  0.0675  0.0085 -0.0325
21487W        W37296  15.100   4.315   6.659 -0.0298  0.1897 -0.2806
21488W        W37297  13.849   7.158   4.324 -0.0409 -0.0382  0.2181
21489W        W37298  12.355   8.633  13.484 -0.0752  0.0985  0.0888
21490W        W37299  17.010   6.579  15.804  0.1722 -0.1935 -0.0404
21491W        W37300  16.996  16.465   3.852 -0.1031  0.1628 -0.1940
21492W        W37301   8.600   0.505  14.346 -0.0807 -0.0005  0.1202
21493W        W37302   3.144  15.995   3.412 -0.3613 -0.1485  0.0926
21494W        W37303  13.515   3.052   2.782  0.0353  0.1457 -0.0296
21495W        W37304  17.041   8.274  12.206  0.1255 -0.0580 -0.2167
21496W        W37305  10.932   2.999  13.268 -0.1500 -0.2747 -0.0902
21497W        W37306   8.911  16.419   3.144  0.2039  0.0167 -0.1954
21498W        W37307   9.742   7.142   3.571 -0.2036 -0.0958  0.0425
21499W        W37308   6.060  10.089   1.228  0.0017  0.4457  0.0856
21500W        W37309  12.844  14.100  16.120  0.2751 -0.1156 -0.0450
21501W        W37310   4.634   6.433   2.495 -0.2018  0.0293 -0.0119
21502W        W37311   3.935  11.845  11.293  0.0245  0.0876 -0.0657
21503W        W37312  14.622  15.728   1.055  0.1779  0.1048 -0.0952
21504W        W37313  15.559  15.535   0.552 -0.0190 -0.0244  0.0960
21505W        W37314  15.442  14.442   2.520  0.1559 -0.1191  0.0378
21506W        W37315  10.308   7.143  12.466 -0.3095  0.1317  0.1482
21507W        W37316  15.542  11.727  13.946 -0.2809 -0.0432 -0.1938
21508W        W37317   6.602  10.887   0.279  0.0394  0.1774 -0.2371
21509W        W37318   3.822  14.848   0.683 -0.1584 -0.0727 -0.1749
21510W        W37319   8.855   7.413   3.512 -0.3299 -0.4699  0.0171
21511W        W37320  17.521   2.217  16.248 -0.3064  0.1971 -0.0903
21512W        W37321   6.980   9.419  12.769 -0.2280  0.3233  0.2139
21513W        W37322  11.752   8.314   3.216  0.0879 -0.1627 -0.2492
21514W        W37323  11.292  12.763   4.771  0.1098 -0.0210  0.0252
21515W        W37324   0.729   3.856  16.413 -0.0758  0.1012 -0.1847
21516W        W37325  12.997   6.398  15.661 -0.0568 -0.0633 -0.3250
21517W        W37326   0.808   3.262   0.728 -0.0231  0.0752  0.2329
21518W        W37327  12.041   7.410   0.188 -0.3579  0.1654 -0.1130
21519W        W37328   5.089  13.833  14.745  0.2141 -0.0601  0.0363
21520W        W37329  11.215   3.519  13.601  0.2890  0.4190 -0.1835
21521W        W37330  13.301   4.313  13.649  0.1287  0.0913  0.1826
21522W        W37331  12.478   4.446   3.153  0.1009 -0.3602  0.2257
21523W        W37332   0.672   5.834   4.591 -0.0127  0.4315 -0.1698
21524W        W37333  11.593  15.651   3.534  0.0445 -0.1565  0.0166
21525W        W37334  16.808   3.453  13.204  0.0759  0.1203  0.1719
21526W        W37335   8.650   7.509  13.123 -0.0652  0.1962 -0.1029
21527W        W37336   7.527   3.754  14.314 -0.0455  0.0793 -0.0336
21528W        W37337  12.627  16.073  13.204 -0.1220  0.3015 -0.1076
21529W        W37338   5.992  11.938   1.015 -0.1544  0.0557  0.0190
21530W        W37339  17.437   7.338  15.550 -0.1738  0.2659  0.1062
21531W        W37340  15.407  16.659   0.775  0.1669  0.0853  0.0706
21532W        W37341   1.712   4.160  16.881 -0.1535  0.1881  0.0156
21533W        W37342   0.679  12.060   1.725 -0.0597  0.2988  0.2255
21534W        W37343   0.283  12.955   3.234 -0.0519  0.0142  0.0699
21535W        W37344   0.227   7.446   3.234  0.0009 -0.1203 -0.1044
21536W        W37345   3.059  15.392   4.052  0.1184  0.0975  0.0705
21537W        W37346   6.640  17.539   0.867 -0.1399 -0.1970  0.1610
21538W        W37347   7.776  13.616   1.329  0.4203  0.1137 -0.1020
21539W        W37348  15.090  15.583   2.032  0.1953  0.0348 -0.1434
21540W        W37349  15.421   1.395  12.058 -0.3988 -0.2616  0.0477
21541W        W37350  12.417   8.894  11.695  0.1015  0.0762  0.1299
21542W        W37351  14.360   2.207   5.315 -0.1641 -0.2398  0.3037
21543W        W37352   0.091   5.706   2.690  0.1049 -0.0987  0.1661
21544W        W37353  15.370   7.077   5.956 -0.2611  0.1755  0.1925
21545W        W37354  15.880   3.511  14.212  0.2035 -0.1260 -0.2098
21546W        W37355   8.671   2.074  12.464 -0.1054 -0.0845 -0.0077
21547W        W37356   2.726   2.764  15.304  0.0711 -0.1272 -0.0773
21548W        W37357  13.902  10.743   4.190 -0.1228 -0.1920 -0.2376
21549W        W37358   4.291   3.034   0.967  0.0933 -0.0442 -0.0610
21550W        W37359   0.152   2.667   2.639  0.1859 -0.2286 -0.0429
21551W        W37360  16.445   0.207  12.500  0.4126  0.1890  0.2720
21552W        W37361   2.097   9.040   2.519 -0.1134 -0.3178  0.4196
21553W        W37362   4.636   8.282   4.399  0.1740 -0.0420 -0.1576
21554W        W37363  16.542  16.288   2.642 -0.1738 -0.1589  0.1171
21555W        W37364  12.014  16.310   5.276 -0.1006  0.1142 -0.1793
21556W        W37365  13.756  12.825   5.142 -0.2255 -0.2196  0.0785
21557W        W37366  14.566   6.031  13.017  0.1232  0.0477 -0.1612
21558W        W37367   1.923  13.630  13.593 -0.0033 -0.1684  0.0123
21559W        W37368  15.245   0.120  14.368 -0.0822  0.0587 -0.1095
21560W        W37369   1.075   7.193  15.222  0.2232 -0.0401  0.1494
21561W        W37370   7.936  14.790  14.018  0.4170 -0.1619 -0.0624
21562W        W37371  11.236  13.079   2.369  0.1321 -0.2292  0.2108
21563W        W37372   4.959  14.070  12.774 -0.1010  0.0382  0.0679
21564W        W37373  17.599  16.402  12.097 -0.3761 -0.3291  0.0909
21565W        W37374   6.001   0.895   3.783  0.0200 -0.2230 -0.0603
21566W        W37375   3.868  17.294   2.243  0.3544 -0.0073  0.0968
21567W        W37376   1.155   5.824  14.455  0.1670  0.1953 -0.2006
21568W        W37377  16.425  12.932   3.794 -0.1182  0.1318 -0.1113
21569W        W37378   4.454   4.772  11.667  0.1489 -0.2196 -0.1765
21570W        W37379  11.706   2.220  16.879  0.1668 -0.1150 -0.0455
21571W        W37380  14.845  10.660   0.356  0.1413  0.3315 -0.2360
21572W        W37381  14.884  13.809   3.142 -0.1908  0.1007  0.1233
21573W        W37382   4.841   7.162  14.229 -0.2644 -0.0632 -0.4521
21574W        W37383  15.248   2.450   3.144 -0.1132  0.1180 -0.1737
21575W        W37384  17.151  16.274  15.428 -0.1130 -0.3048  0.2016
21576W        W37385   6.229   7.178   2.745 -0.0131 -0.3098 -0.3609
21577W        W37386   8.220   0.628   1.625  0.0333 -0.0393 -0.1612
21578W        W37387   4.094   7.063  13.005 -0.0729 -0.2172 -0.2919
21579W        W37388  12.429   3.764  15.880  0.2460 -0.0898  0.0994
21580W        W37389   9.381   5.111   4.160 -0.0324  0.0034  0.2718
21581W        W37390   5.782  14.167  12.930  0.1629 -0.0358 -0.0503
21582W        W37391   5.536   9.892   2.353  0.0777  0.0492 -0.0326
21583W        W37392   1.013   4.635   4.557  0.0967  0.2036  0.1541
21584W        W37393   0.704   0.396  15.014  0.2677  0.0827  0.0059
21585W        W37394   5.750  12.379   3.533 -0.0410 -0.0152  0.2259
21586W        W37395  11.835  13.836  14.060  0.0894 -0.0466 -0.1930
21587W        W37396  14.809   5.329  16.295 -0.3960  0.3797 -0.1819
21588W        W37397   3.542   7.728   0.219  0.3694  0.0159  0.0287
21589W        W37398   9.589  16.722   4.905  0.0157  0.1975 -0.3515
21590W        W37399  16.358  14.883   5.396  0.1295 -0.0066  0.0510
21591W        W37400  10.964  13.904  11.571  0.1068 -0.0020 -0.2719
21592W        W37401  12.687   3.875   3.178 -0.1762  0.1190  0.0619
21593W        W37402  10.602   8.711  14.096  0.1119 -0.1254 -0.2059
21594W        W37403   7.593  12.413  12.959 -0.0033  0.0875 -0.0411
21595W        W37404   1.195   2.491  15.155  0.1302  0.0062 -0.1028
21596W        W37405  16.560  16.880   3.958  0.1617 -0.0958 -0.1222
21597W        W37406  17.553   6.697   2.213  0.0787 -0.2631  0.0367
21598W        W37407  13.313  13.159   0.963 -0.1230 -0.2569  0.1013
21599W        W37408  15.640  14.641   3.815  0.0593  0.0242 -0.0944
21600W        W37409   2.366  14.383   2.546  0.1155 -0.0516  0.0215
21601W        W37410  12.918  11.278  14.292 -0.1398 -0.2593  0.3415
21602W        W37411   6.618  17.097   1.090 -0.2958 -0.0513 -0.2221
21603W        W37412  10.576  16.858   0.303  0.1061  0.0224 -0.1848
21604W        W37413  14.447  15.937   1.556  0.0458 -0.1105  0.1340
21605W        W37414  13.853  15.375   5.893 -0.0483 -0.3188  0.0261
21606W        W37415   1.460   3.888   5.149  0.0082 -0.0877  0.2331
21607W        W37416   1.288   0.922  13.758 -0.1415 -0.4499 -0.2136
21608W        W37417  13.180   8.671   0.039  0.0623  0.1111 -0.1552
21609W        W37418  10.506  15.657  14.479 -0.0016 -0.1353  0.1502
21610W        W37419   7.395   5.359   3.604 -0.5295 -0.2496  0.0683
21611W        W37420   6.575   6.190  14.287 -0.1067 -0.1030 -0.0008
21612W        W37421   6.825  14.911   0.501  0.0239  0.2127 -0.2463
21613W        W37422   0.750  16.852   3.766  0.1969 -0.0371 -0.1884
21614W        W37423  16.478   3.947  14.394  0.2244  0.0216  0.3138
21615W        W37424   7.465  13.390  16.415 -0.1431  0.0668  0.1489
21616W        W37425   1.889   1.360   2.251  0.1690  0.1089 -0.2425
21617W        W37426  16.066   7.070   1.037 -0.0403  0.2610 -0.0120
21618W        W37427   1.650  10.243   4.494 -0.1031  0.3296 -0.1749
21619W        W37428  17.322  14.401   2.158 -0.1373 -0.0139  0.3622
21620W        W37429  11.068   8.899  14.005  0.1441 -0.1009 -0.0351
21621W        W37430  17.688   3.217  15.868  0.3016  0.1469  0.0563
21622W        W37431  11.126  10.640  16.536 -0.3380 -0.1872  0.3341
21623W        W37432   2.923   4.143   3.415 -0.0575 -0.1071 -0.0773
21624W        W37433   7.014  14.978   4.407  0.1570  0.2012 -0.1324
21625W        W37434  16.807   1.697  15.752 -0.0906  0.1844  0.2482
21626W        W37435   9.579   5.004  14.628  0.0507 -0.0181  0.2237
21627W        W37436  10.149   2.985   4.303  0.3250  0.2249 -0.0931
21628W        W37437   7.261   2.523   5.536 -0.2266 -0.0775 -0.3201
21629W        W37438   1.459   4.446  11.890 -0.1430  0.0698  0.0500
21630W        W37439   6.687   0.268  12.644 -0.0734  0.1437  0.2029
21631W        W37440  12.512   7.257  13.727 -0.0014  0.3345  0.0176
21632W        W37441   9.614  12.717  13.640 -0.0785 -0.1461  0.3043
21633W        W37442   6.144  15.561   1.877 -0.2113 -0.0409  0.0537
21634W        W37443  10.014  13.626  16.833  0.0902 -0.0452 -0.3811
21635W        W37444  14.593   6.607   4.387  0.4556 -0.0855 -0.2194
21636W        W37445   2.117   1.426  14.526  0.0307 -0.0567 -0.1858
21637W        W37446  17.375   7.487   2.594  0.2337  0.1176 -0.0094
21638W        W37447  10.749  17.148  11.196  0.0265 -0.0749  0.4817
21639W        W37448  13.329   8.187  16.602  0.1629  0.0922 -0.3129
21640W        W37449   0.546  16.820   5.038 -0.2022  0.1881 -0.1338
21641W        W37450   7.896  11.011   4.747 -0.0242  0.2852  0.4292
21642W        W37451   2.095   0.261   1.757 -0.2220 -0.2335  0.4496
21643W        W37452   2.078  15.955  16.491 -0.1199 -0.0375  0.1145
21644W        W37453   2.927   8.892   0.278 -0.0529  0.0805  0.1341
21645W        W37454  11.364  10.790  14.713 -0.1019 -0.0165 -0.0542
21646W        W37455  10.819   1.804  15.385  0.1169 -0.1747  0.0764
21647W        W37456  15.060   9.012   5.347 -0.0081  0.0282  0.1798
21648W        W37457  16.141   8.889  11.716 -0.2985 -0.0568  0.2292
21649W        W37458   3.053  10.539   6.172  0.2514  0.4761 -0.3421
21650W        W37459   4.575   1.838  13.495 -0.0745 -0.2471 -0.0478
21651W        W37460   2.811  12.899   0.761  0.3029 -0.7128  0.1294
21652W        W37461   8.654  12.702   2.661  0.1056  0.0099  0.0288
21653W        W37462   9.606   6.290  16.696 -0.3288 -0.0530  0.0618
21654W        W37463  15.675  11.793   2.238 -0.1329  0.1354  0.1238
21655W        W37464   2.702  10.840  14.052 -0.1604 -0.2225 -0.0387
21656W        W37465  15.898   6.345   5.539  0.2362 -0.1304 -0.1652
21657W        W37466  14.372  12.644   0.246 -0.1396 -0.0330 -0.0987
21658W        W37467  13.293   2.264   1.681  0.1738 -0.0583  0.0001
21659W        W37468  17.254  10.181   5.560  0.2298 -0.3675 -0.0966
21660W        W37469  13.275   9.557   2.985 -0.1234  0.0341 -0.0520
21661W        W37470  17.652  12.930  13.948 -0.1101 -0.2759 -0.2075
21662W        W37471  10.038  13.096   4.530 -0.1836  0.1359 -0.2375
21663W        W37472  13.034  11.013   0.491  0.0099  0.0142  0.1115
21664W        W37473   2.925   0.783   4.975  0.0191  0.0297  0.1470
21665W        W37474  15.731  16.855   4.253  0.2635  0.1317  0.3948
21666W        W37475  13.972   8.129  14.147  0.2673  0.0555 -0.1289
21667W        W37476   5.401  17.116  12.816  0.2039  0.1342  0.2149
21668W        W37477   5.779  10.614   3.048  0.0614  0.1355  0.2407
21669W        W37478  13.093  13.270  13.738 -0.3289 -0.0413  0.1588
21670W        W37479  10.441  16.947  14.162 -0.0271 -0.0123  0.2251
21671W        W37480  16.914  15.175   1.547  0.1614  0.0202  0.2255
21672W        W37481   3.876   4.437   1.517 -0.0827 -0.2496 -0.1290
21673W        W37482  12.265   0.534  14.974 -0.0871  0.2776 -0.1153
21674W        W37483  12.610  17.676  14.376  0.0045 -0.3273 -0.1793
21675W        W37484   1.806  11.551   5.369  0.1757  0.0812 -0.2120
21676W        W37485  10.645  13.605   1.047  0.0773  0.1973  0.3190
21677W        W37486  14.452   2.172   3.307  0.2927 -0.1837  0.0087
21678W        W37487   5.790  12.366  11.559  0.0044  0.2141  0.1454
21679W        W37488   4.684  10.980  15.742 -0.2067 -0.0478 -0.0221
21680W        W37489   4.354  13.677  12.611  0.2141 -0.0062 -0.0511
21681W        W37490  12.200   6.338   2.965 -0.1099 -0.1313  0.1145
21682W        W37491  16.187   2.252  12.167  0.2385  0.2532 -0.1638
21683W        W37492  14.849   5.799   3.017 -0.0395  0.0528  0.0411
21684W        W37493  12.357  15.390   0.347 -0.0679 -0.1493 -0.1257
21685W        W37494   8.358  16.364  13.622  0.2329  0.0681 -0.2181
21686W        W37495   7.022   0.304  16.827  0.0717 -0.0826 -0.2527
21687W        W37496  16.754   0.145   5.346 -0.0067 -0.2070  0.2283
21688W        W37497   3.901   2.532   0.525 -0.1298 -0.1189 -0.0920
21689W        W37498   1.756  13.180  16.725 -0.3762  0.0475  0.0976
21690W        W37499   2.439  13.362   5.497 -0.4062 -0.2644 -0.1229
21691W        W37500  11.512  15.963  16.187 -0.2192  0.0471 -0.3348
21692W        W37501   2.535   0.895  13.257  0.1805 -0.1660  0.2762
21693W        W37502  11.068  16.844   3.013 -0.2587 -0.1729 -0.3220
21694W        W37503   9.593  17.055  11.135  0.0044 -0.0324  0.2581
21695W        W37504  10.831  17.425   3.092 -0.2064  0.1870  0.0780
21696W        W37505  11.558  17.457  12.936  0.1236 -0.1114  0.2394
21697W        W37506   4.533   8.479  14.174  0.0871 -0.0451  0.1989
21698W        W37507   4.444  16.391  12.788 -0.0240  0.1391  0.0060
21699W        W37508   0.902   7.588  11.776  0.2369 -0.0313  0.1332
21700W        W37509   2.274   5.240   4.535  0.2148  0.0026  0.3035
21701W        W37510   6.674   7.860  12.414 -0.1570  0.2223  0.0612
21702W        W37511  10.852   7.803  15.812 -0.0270 -0.0341 -0.1587
21703W        W37512  16.904  11.209   2.965 -0.2405 -0.0872 -0.1487
21704W        W37513   4.874  10.867  12.790  0.3032 -0.0888 -0.0367
21705W        W37514   3.003   1.772   0.381  0.0059 -0.1612 -0.2103
21706W        W37515   0.508  17.592   0.203 -0.0967 -0.3062 -0.1404
21707W        W37516   1.214  14.305  16.085  0.2085 -0.0255 -0.0464
21708W        W37517  11.185   1.444  15.239  0.1022  0.0528  0.0576
21709W        W37518  11.956   5.996  14.980  0.0918 -0.2766  0.0434
21710W        W37519   1.512  15.417  13.266 -0.1152  0.4145  0.0392
21711W        W37520  15.380  11.798  16.097  0.0157 -0.0390  0.0861
21712W        W37521  13.297  16.427   3.473 -0.1438 -0.2092  0.1247
21713W        W37522  14.886  12.819   0.095 -0.1016  0.0557  0.2627
21714W        W37523  17.171   7.269  12.345 -0.0098  0.0808  0.2184
21715W        W37524   0.329  15.937   4.703 -0.0389 -0.0351  0.0580
21716W        W37525   2.517  14.524   5.084 -0.0985 -0.0759 -0.1084
21717W        W37526   0.653   1.414   0.836 -0.0431 -0.2169  0.0319
21718W        W37527   6.527  16.247   2.307 -0.0075  0.0422 -0.0146
21719W        W37528   1.153  11.150   4.469 -0.0494 -0.0959  0.1628
21720W        W37529   3.643   4.033  15.126  0.1899 -0.0634 -0.2107
21721W        W37530   1.562   3.373   5.349 -0.2900 -0.2179  0.3093
21722W        W37531   5.648   4.484  16.892  0.0090 -0.3123  0.3186
21723W        W37532   4.697   3.220  15.071 -0.2056  0.0125  0.1664
21724W        W37533   4.504   7.267  11.381 -0.0051  0.2953  0.0650
21725W        W37534  13.508   3.598  14.909 -0.0195  0.1603  0.2210
21726W        W37535  14.593  12.549   2.918 -0.0089  0.1174  0.1619
21727W        W37536   8.195  11.083   5.305 -0.0415  0.0718 -0.0580
21728W        W37537   1.401  13.137   0.045  0.0576 -0.3558  0.2550
21729W        W37538   4.623  17.449   5.030 -0.2554 -0.2003  0.0086
21730W        W37539  15.612   2.558   1.282 -0.0284  0.0167  0.2096
21731W        W37540   8.251  11.568   5.462  0.0703 -0.1263 -0.0707
21732W        W37541  12.404   8.522   3.172 -0.1378  0.0404  0.1210
21733W        W37542   9.263   2.659   6.162 -0.1784 -0.1766 -0.1346
21734W        W37543   3.509   3.060   2.207  0.0234 -0.1875  0.1044
21735W        W37544   2.478  12.596   2.689  0.3164  0.4385  0.0491
21736W        W37545   6.866   5.796   2.653 -0.0651  0.0772 -0.1122
21737W        W37546   7.473   5.171   5.787  0.2143 -0.1946 -0.2164
21738W        W37547   3.842   2.712  12.383 -0.0884  0.1607 -0.1908
21739W        W37548   6.949   6.710  13.547 -0.2501 -0.0111 -0.1797
21740W        W37549  16.278   2.121  15.084 -0.3982 -0.0191  0.0750
21741W        W37550   1.764   2.257  15.044  0.0915 -0.1203 -0.1443
21742W        W37551   0.486   4.277   6.451  0.1765 -0.1674  0.0932
21743W        W37552   4.875   3.164   3.418  0.1958 -0.2640 -0.0185
21744W        W37553   5.731  12.928   4.268  0.1472 -0.0646 -0.1352
21745W        W37554   6.997  14.120  14.024 -0.5014  0.1633  0.1848
21746W        W37555  12.693   7.288  12.835  0.0305 -0.0571  0.0725
21747W        W37556  14.949   9.668   4.712 -0.1371 -0.1903 -0.0540
21748W        W37557   1.663  11.700  12.536  0.0278 -0.4402  0.0091
21749W        W37558   3.792  14.267   4.056  0.0589  0.0111 -0.2135
21750W        W37559  13.426  10.479  14.085 -0.1194  0.0638  0.1832
21751W        W37560   0.272  14.414   1.967 -0.1499  0.2550  0.0510
21752W        W37561  16.376   9.428  16.005  0.1583 -0.0413 -0.0258
21753W        W37562   3.026   9.452  14.355  0.1366  0.0690  0.0288
21754W        W37563  12.715  10.661  13.676 -0.0037 -0.0659 -0.1544
21755W        W37564  13.212  17.021  14.203  0.0237 -0.1622  0.1439
21756W        W37565  14.441  17.499  14.474  0.0409  0.3217 -0.4451
21757W        W37566  11.947  11.704   0.959  0.0042  0.0879 -0.0731
21758W        W37567   3.793   0.567  12.621 -0.1279 -0.1441  0.3232
21759W        W37568   6.921   4.498   1.681  0.1172 -0.0652  0.1895
21760W        W37569  14.822  16.621   0.412 -0.0196  0.0598 -0.1287
21761W        W37570  12.358   3.877   4.488 -0.3982 -0.0090 -0.0805
21762W        W37571   7.034   2.976   0.129 -0.2213  0.0432  0.0479
21763W        W37572   6.241   5.086  14.852  0.1736 -0.1871  0.0886
21764W        W37573   5.197   1.894   0.276 -0.2073 -0.1575  0.1433
21765W        W37574   8.209   1.129  15.110  0.2402 -0.0972 -0.1607
21766W        W37575   4.205   7.655   6.440 -0.0587  0.0249 -0.2598
21767W        W37576   0.089  11.458   5.519  0.1084  0.0518 -0.0651
21768W        W37577   5.025   5.717   3.491  0.1327 -0.0549 -0.1428
21769W        W37578   8.411  17.357   1.868 -0.0203  0.1752 -0.3436
21770W        W37579  10.053  10.187  12.595 -0.0286  0.0981  0.1543
21771W        W37580  17.119  16.335  15.887 -0.1682 -0.1706 -0.2432
21772W        W37581   0.366   8.421   3.959  0.0837 -0.0511 -0.0043
21773W        W37582   6.111   2.580  13.795 -0.1099 -0.5198 -0.0320
21774W        W37583  10.468   7.409   1.854  0.0013  0.0723  0.3023
21775W        W37584  11.670  15.079   2.667 -0.4617 -0.1347  0.1320
21776W        W37585  17.570   4.259   2.233 -0.0660  0.0485 -0.1238
21777W        W37586   0.054   4.566  15.449 -0.1033 -0.1672  0.0810
21778W        W37587  10.247   7.819   3.827  0.2845 -0.2801 -0.0980
21779W        W37588  12.108   9.201  12.777 -0.1220  0.0729 -0.0198
21780W        W37589   8.297   3.294  13.596  0.2007  0.1360  0.0724
21781W        W37590   8.261   8.223   0.119  0.5412  0.0243  0.0555
21782W        W37591   1.709  10.610  13.418  0.1443 -0.0657 -0.0350
21783W        W37592   2.540  13.855  12.366  0.0942 -0.0350 -0.2204
21784W        W37593  14.602  17.390   4.245  0.1879 -0.3993 -0.2875
21785W        W37594   0.705   9.101   2.549  0.0554  0.0448 -0.2038
21786W        W37595  15.632   3.003   1.895 -0.1019  0.1598 -0.1935
21787W        W37596  16.773  15.852   2.847 -0.2953  0.4349 -0.1287
21788W        W37597   1.420   3.864   0.201  0.2244 -0.0788  0.1948
21789W        W37598   1.662   5.549   4.616  0.0941  0.0598  0.5626
21790W        W37599  12.677   5.614   4.109 -0.0701  0.1969 -0.0574
21791W        W37600  11.059   9.951  13.556  0.0953  0.1782 -0.0862
21792W        W37601   9.703  12.838  12.008 -0.1287  0.0202  0.1923
21793W        W37602  14.548   4.044   3.940  0.0036 -0.0001 -0.0240
21794W        W37603   3.134  15.164  13.990  0.2126 -0.0561  0.0049
21795W        W37604  16.533   7.270   6.164  0.0994 -0.2363  0.1529
21796W        W37605   7.079   2.531  15.895  0.2095  0.1619 -0.0084
21797W        W37606   0.107   2.278   4.791 -0.3014  0.1233 -0.0111
21798W        W37607  14.963  14.895   1.919  0.0154  0.2704  0.0112
21799W        W37608  16.261  14.338   1.987 -0.4071 -0.0179  0.1578
21800W        W37609   1.309  14.716  12.198 -0.2136  0.0128 -0.0153
21801W        W37610   3.845   1.925   6.217  0.0506 -0.0080  0.0225
21802W        W37611   7.991  13.518  11.886  0.2758 -0.1049  0.3938
21803W        W37612   7.961  15.676  11.837  0.1961 -0.1701  0.0755
21804W        W37613  10.343  12.322  15.727  0.0024 -0.1367 -0.2627
21805W        W37614  10.717   1.225  16.733 -0.0207  0.0107  0.1602
21806W        W37615  14.467   7.349   0.887  0.3060  0.0286 -0.2451
21807W        W37616  16.894  11.106  13.746  0.1056  0.0254  0.1083
21808W        W37617   1.638  10.212   4.984 -0.2968 -0.0081 -0.1166
21809W        W37618   0.221   0.121   1.608 -0.1755  0.0990 -0.0101
21810W        W37619  10.025  16.054  11.666  0.0098 -0.2393  0.0024
21811W        W37620   2.058   2.632   1.716 -0.2904 -0.1673 -0.2275
21812W        W37621   1.666  13.292   2.438  0.1008  0.0547  0.1673
21813W        W37622  11.653   6.583   4.635  0.5363  0.0894 -0.2188
21814W        W37623   0.652   4.859   3.240 -0.0387 -0.2697 -0.1178
21815W        W37624  10.844   8.241   4.734 -0.1005  0.0891 -0.3081
21816W        W37625   4.487   0.434   3.977  0.3034  0.1471  0.0810
21817W        W37626  15.837   5.868   0.414 -0.0255  0.0372  0.1353
21818W        W37627   1.599   3.955  11.959 -0.1044  0.0524 -0.4751
21819W        W37628  12.796  12.712  12.115 -0.2663  0.3517  0.2037
21820W        W37629   0.983   0.889   0.970  0.0377 -0.0793 -0.5092
21821W        W37630   1.161  14.574  14.793 -0.1875 -0.0852  0.1316
21822W        W37631   4.602   8.128   3.372  0.3544 -0.2258 -0.1464
21823W        W37632   4.312   4.093   0.959 -0.1349 -0.1469 -0.0985
21824W        W37633   3.745  13.219   3.177 -0.2865  0.4692  0.0831
21825W        W37634  12.118   7.686  13.003  0.3128 -0.0108 -0.3405
21826W        W37635   7.448   5.694  16.781  0.2046  0.2047  0.0448
21827W        W37636   8.330   2.584  16.988  0.0658  0.0803  0.0789
21828W        W37637   8.286   2.877  16.591 -0.2166  0.1767 -0.1546
21829W        W37638   4.599   9.053   3.341  0.0587  0.0412  0.2314
21830W        W37639  16.847   7.504   5.111  0.0951  0.4190  0.1230
21831W        W37640   6.130   5.183  12.764 -0.1620  0.1589  0.0071
21832W        W37641   5.812  10.230   3.881  0.2165 -0.1237  0.0728
21833W        W37642  13.242   3.942   4.390 -0.0593 -0.0468 -0.0304
21834W        W37643   3.558   0.522  14.792  0.1310  0.1709 -0.2677
21835W        W37644   1.160  11.940  11.910  0.0259  0.0921  0.0301
21836W        W37645  12.287  14.951   1.640  0.2454  0.0139  0.0451
21837W        W37646   8.963  15.840  16.251 -0.0767 -0.4075 -0.0664
21838W        W37647   6.492   7.044   3.905 -0.3628  0.0705  0.2912
21839W        W37648   9.645  17.389  12.377 -0.0015 -0.2421 -0.4152
21840W        W37649   5.945   2.670   2.267  0.0195  0.2046 -0.0809
21841W        W37650   5.000   1.816  16.331  0.2291 -0.1874 -0.1009
21842W        W37651  15.189   7.042   2.282  0.0224  0.4209  0.0677
21843W        W37652  16.778   2.427  13.304  0.2377 -0.2076  0.1746
21844W        W37653  12.663   3.731  12.528 -0.1000  0.0001  0.1471
21845W        W37654  12.313   7.681  16.848  0.0484 -0.2768 -0.1434
21846W        W37655   6.855   6.612   1.324  0.3019  0.1842  0.2316
21847W        W37656   0.067  14.869  12.243 -0.1478 -0.0872  0.0600
21848W        W37657  10.954  16.717  11.385  0.1009 -0.1126  0.2058
21849W        W37658   1.136   9.628   4.500 -0.0362 -0.1603  0.0556
21850W        W37659   7.966  14.602  13.018  0.1603 -0.0355 -0.1416
21851W        W37660  11.153   2.666   2.330 -0.3138 -0.1174  0.1901
21852W        W37661  13.928   6.068   5.144  0.0022 -0.0157 -0.1627
21853W        W37662   6.875   3.263  16.661  0.0756  0.0429 -0.0558
21854W        W37663   5.375   5.504  13.412  0.0471 -0.2929 -0.0564
21855W        W37664  13.747  11.465  15.883 -0.0640 -0.0794 -0.0573
21856W        W37665   1.464  11.956  14.718 -0.3494  0.2781  0.1318
21857W        W37666  12.186  14.854   2.170  0.2808 -0.0767  0.0072
21858W        W37667  15.209  17.089   5.264  0.2615 -0.1409 -0.0353
21859W        W37668   1.219   1.565   6.019  0.4113  0.0079  0.0879
21860W        W37669  15.328  16.590   3.343 -0.1393  0.3670 -0.0950
21861W        W37670  13.838  10.614  16.797 -0.1859 -0.1341 -0.1063
21862W        W37671   8.720  13.300   5.029 -0.0810 -0.3841 -0.2217
21863W        W37672   1.110   9.093  16.025  0.2705  0.0793 -0.1518
21864W        W37673   2.217  16.663  14.248 -0.0410  0.1174  0.0731
21865W        W37674  14.177  15.733  13.613 -0.1195  0.1485  0.0234
21866W        W37675  14.776   3.103  16.561 -0.3419  0.0974  0.1724
21867W        W37676  16.165  12.487  13.707  0.0382 -0.4387 -0.0080
21868W        W37677  12.985   6.575  12.836 -0.1028 -0.3227 -0.2116
21869W        W37678   4.863   9.691   5.253  0.1009 -0.0803 -0.3191
21870W        W37679   2.055   2.140  13.354  0.2888  0.0823 -0.2388
21871W        W37680  10.695   0.719   0.519  0.0116  0.1127 -0.0079
21872W        W37681  14.308  14.874  16.900  0.1082 -0.1854  0.1496
21873W        W37682  10.928   5.853   4.883  0.1518  0.3264  0.0144
21874W        W37683   3.135  17.724  14.177 -0.0651  0.2833 -0.1234
21875W        W37684   7.509  14.447  11.178  0.0751  0.2075 -0.0049
21876W        W37685   0.328   1.386   5.442  0.0110  0.1303  0.1984
21877W        W37686   9.421   3.668   2.802  0.1685  0.2709 -0.1951
21878W        W37687  16.122  13.043  12.240 -0.2912  0.0726 -0.1418
21879W        W37688   9.329   3.958  14.454 -0.1506 -0.1737  0.4322
21880W        W37689   7.145  10.051  12.136 -0.3512  0.1017  0.0225
21881W        W37690  11.349   1.538  14.104  0.0567  0.1668 -0.1288
21882W        W37691   3.733   2.242   4.135  0.0710  0.0516 -0.3515
21883W        W37692  14.934  10.218   3.332 -0.0148  0.2745 -0.0834
21884W        W37693   0.399  12.214   4.505 -0.2073 -0.1252  0.0460
21885W        W37694  17.529  16.875   2.435  0.1736 -0.3172  0.4260
21886W        W37695   6.143   7.233  16.446 -0.0672  0.0537  0.0822
21887W        W37696   3.597   2.832   6.050  0.1279  0.1663 -0.4433
21888W        W37697  17.347   0.829   3.807  0.0417 -0.1515  0.3665
21889W        W37698  13.432   3.528   2.991 -0.1082  0.1768 -0.0770
21890W        W37699  14.909   1.813   2.427 -0.0817  0.0101 -0.0115
21891W        W37700   7.020  11.840   3.019  0.1246  0.0053 -0.1612
21892W        W37701  10.511   3.620   3.380  0.2662 -0.0363  0.3694
21893W        W37702   4.300  12.046   2.530 -0.0601  0.0087 -0.1175
21894W        W37703  16.162   2.538  13.775 -0.0589 -0.1022 -0.1312
21895W        W37704  11.300  10.443  13.816 -0.0643  0.1336  0.4022
21896W        W37705   7.183  14.055  13.167  0.1291  0.2917 -0.1145
21897W        W37706   6.087   2.684   2.793 -0.0975  0.2678 -0.0189
21898W        W37707  13.166   9.961   1.313 -0.2931  0.1990 -0.2553
21899W        W37708   0.707   3.328  13.508  0.0291 -0.0021 -0.0281
21900W        W37709   2.817  11.567   6.004 -0.0734 -0.0969  0.1560
21901W        W37710  17.186  12.556  10.892 -0.1073 -0.0062  0.0890
21902W        W37711  12.037   2.078   4.219 -0.0477  0.1370 -0.1060
21903W        W37712   0.682  15.653   0.896 -0.2307  0.0445  0.0761
21904W        W37713   5.415   8.307  13.484 -0.1837  0.0560 -0.1524
21905W        W37714  12.597   3.332   0.326  0.2673  0.3598  0.1000
21906W        W37715  10.115  14.503  16.149  0.3240  0.3176 -0.1918
21907W        W37716  16.039  10.377   1.032 -0.1115 -0.0978  0.0177
21908W        W37717  14.778   2.978   5.699 -0.0175 -0.1596 -0.1151
21909W        W37718   9.402   8.405   3.493 -0.0844  0.1760  0.1167
21910W        W37719   8.481   4.283  15.375 -0.1387 -0.0029 -0.1562
21911W        W37720   4.247   0.861   0.051 -0.0707 -0.2228  0.1710
21912W        W37721   1.732   5.198  12.545  0.0716  0.1253 -0.0245
21913W        W37722  12.517   7.530   4.740  0.0553 -0.0705  0.2175
21914W        W37723  16.606   9.327  13.573 -0.1917  0.0718 -0.2079
21915W        W37724  16.738  12.039   1.085  0.0954  0.1574 -0.2101
21916W        W37725   5.912   0.567   5.771 -0.2016 -0.1063  0.0372
21917W        W37726  12.616  10.074   0.236 -0.0835 -0.0221 -0.1727
21918W        W37727   9.551  16.093   2.514  0.3961  0.0340 -0.0647
21919W        W37728  14.282  10.240   4.881  0.2699  0.0124 -0.0690
21920W        W37729   3.348   5.792   3.015  0.1764 -0.0391 -0.1486
21921W        W37730   1.747  13.490   0.264  0.0189 -0.1567 -0.1962
21922W        W37731   7.172   2.499  13.026 -0.0009  0.0075 -0.0712
21923W        W37732  16.224  15.394   1.274  0.3283  0.1334  0.1357
21924W        W37733   1.082   8.572  14.686 -0.0082 -0.1397  0.2871
21925W        W37734   1.840  11.165   3.275 -0.0500  0.0626 -0.1997
21926W        W37735   9.200  17.427  15.709  0.1935 -0.4064 -0.0433
21927W        W37736  12.820  16.854  16.076 -0.0965 -0.1357  0.2805
21928W        W37737   1.237   7.838  12.339  0.2181 -0.0930  0.0692
21929W        W37738   8.124   3.531  15.870 -0.0818 -0.0988 -0.3588
21930W        W37739   7.217   5.359  13.705  0.3278 -0.1587 -0.1182
21931W        W37740   8.182  12.778   2.987  0.2786 -0.0307  0.0677
21932W        W37741  14.716  13.898   0.984  0.0971  0.1782  0.2702
21933W        W37742  10.098   6.883   3.820 -0.3783 -0.2184 -0.1345
21934W        W37743  16.472   3.066   1.535 -0.0147  0.0080  0.0248
21935W        W37744  15.709  13.471  15.898 -0.1148 -0.2157  0.0398
21936W        W37745  12.809   0.681  12.165 -0.0087  0.2121 -0.2293
21937W        W37746  10.121  14.217  11.270  0.1038  0.5672 -0.3096
21938W        W37747   4.484  15.204   3.680  0.0660  0.1382 -0.0802
21939W        W37748   2.504   3.192   0.262  0.0573 -0.0251 -0.0468
21940W        W37749   8.421   7.726   1.318 -0.1268  0.0512  0.1331
21941W        W37750   7.674  16.599  16.208  0.0592  0.1103  0.2902
21942W        W37751   6.021   4.635  15.695  0.1970 -0.0689 -0.0198
21943W        W37752   5.162  11.450   5.816 -0.0865 -0.0470  0.0947
21944W        W37753   3.030   5.153   0.677  0.0463 -0.0991 -0.1077
21945W        W37754   1.266   8.874  15.128  0.0969  0.1988 -0.1307
21946W        W37755   7.348  13.858   4.215  0.1594  0.0910 -0.0787
21947W        W37756   0.668   6.914   4.544  0.3248 -0.3981 -0.1394
21948W        W37757   2.010   4.473  12.992 -0.0996  0.0124 -0.2576
21949W        W37758   4.295   1.332   3.029  0.0609 -0.1067 -0.3288
21950W        W37759  16.932   8.824  11.973 -0.0867 -0.1030  0.0155
21951W        W37760   3.782   8.691   4.409  0.2632 -0.0945  0.1093
21952W        W37761   6.412   5.123  13.219 -0.1560 -0.1052 -0.1459
21953W        W37762   8.946  15.096   4.400  0.0675 -0.1243 -0.0867
21954W        W37763  17.602   1.202   1.249 -0.2064 -0.2228  0.0702
21955W        W37764  15.427   2.571  15.079 -0.3051 -0.1399  0.0785
21956W        W37765   5.792  15.174   4.390  0.3442  0.1381  0.1517
21957W        W37766   8.160  15.034  13.043  0.1130  0.0954 -0.2765
21958W        W37767  13.186   2.394   5.510 -0.1624 -0.2724  0.1243
21959W        W37768   1.777  11.454   4.490  0.3596 -0.2716  0.0819
21960W        W37769   1.522  13.815  15.182 -0.2378  0.3503 -0.3002
21961W        W37770  16.169   7.295  13.730 -0.1382 -0.0058  0.2941
21962W        W37771   0.320   5.169  14.710  0.1532 -0.1547 -0.0080
21963W        W37772   0.883   4.108   3.788  0.1240 -0.0434  0.1790
21964W        W37773   9.882  17.265   0.601 -0.0430  0.2352 -0.1389
21965W        W37774   3.377  13.552  13.537 -0.0935  0.0994  0.0053
21966W        W37775   1.892  10.630   5.128 -0.1142 -0.2677 -0.1911
21967W        W37776   9.110   5.000   6.098 -0.4952  0.0657  0.0428
21968W        W37777   3.262   8.558   3.307 -0.1277 -0.2515  0.1845
21969W        W37778  11.960   2.984   4.493 -0.0674  0.2155 -0.1693
21970W        W37779   3.246   5.317   1.599  0.1951  0.0508 -0.2332
21971W        W37780   7.426   7.127   4.010 -0.1165 -0.1648 -0.3296
21972W        W37781  14.972   3.182  15.792  0.0181  0.3050 -0.0992
21973W        W37782  13.132  14.103  13.750 -0.0000  0.3741 -0.2502
21974W        W37783   4.282   8.012   5.306 -0.0086  0.0871 -0.1396
21975W        W37784   0.776   7.880   0.873 -0.0513  0.2054  0.0627
21976W        W37785  14.342   0.561  13.243  0.1225  0.1783  0.1581
21977W        W37786  15.174   1.031  16.163 -0.1802  0.0033 -0.1289
21978W        W37787   8.120  14.014  15.470  0.1044 -0.0012  0.0111
21979W        W37788   3.966   4.064  12.540 -0.2544 -0.0447  0.0920
21980W        W37789   6.225  12.919  14.830 -0.3858 -0.2580  0.0529
21981W        W37790   5.495   6.814   4.350 -0.2267  0.1559  0.3153
21982W        W37791  10.651   5.579  12.331 -0.3529 -0.0860  0.2746
21983W        W37792   6.002   7.380   5.311  0.0190 -0.0175 -0.3106
21984W        W37793   9.015  15.461  14.350  0.0206  0.1910 -0.2941
21985W        W37794   4.597  16.142  15.225 -0.2035 -0.1055  0.0461
21986W        W37795  13.017   8.817   1.200 -0.2139  0.1024  0.0730
21987W        W37796   9.777  15.195   3.971 -0.0251 -0.0154  0.1225
21988W        W37797  12.103   0.228   1.352  0.0758  0.1374  0.0418
21989W        W37798   7.592  10.930  13.755  0.1090 -0.1412  0.1840
21990W        W37799   8.842  13.721   5.353 -0.3515  0.1935  0.3187
21991W        W37800   5.352  11.684   1.038 -0.1273 -0.0517 -0.3083
21992W        W37801   9.035  15.780  12.348 -0.0259 -0.0140 -0.0807
21993W        W37802   8.934   7.435   4.097 -0.1103 -0.1495 -0.1713
21994W        W37803   8.789   6.043  16.942  0.2434  0.0368 -0.1074
21995W        W37804  16.872   2.064   2.737  0.0480 -0.2812  0.0261
21996W        W37805   7.985   7.289  13.056  0.1729  0.1532 -0.0513
21997W        W37806  13.887  10.564   1.933  0.0170  0.0730 -0.2337
21998W        W37807   8.856   6.361   5.632 -0.4341 -0.1636  0.3197
21999W        W37808  12.860  16.923   1.927 -0.2657  0.0494  0.0815
22000W        W37809   8.770   4.916   4.962 -0.2462 -0.0792  0.2852
22001W        W37810   6.419  10.492  12.179 -0.1302 -0.3086  0.2811
22002W        W37811   5.574   7.333   5.615 -0.1919 -0.1837 -0.2857
22003W        W37812   5.524  10.291   2.678 -0.2768 -0.0878 -0.3651
22004W        W37813  13.018   6.525   3.582  0.2559 -0.0573  0.0978
22005W        W37814   1.548   8.483   0.459  0.2523  0.1194 -0.1527
22006W        W37815   7.051  12.387   0.403 -0.1337 -0.0443 -0.0091
22007W        W37816  15.101  14.110   6.143 -0.2266  0.1105  0.0612
22008W        W37817  16.781  13.792  13.718  0.0796 -0.0033  0.1006
22009W        W37818   7.749  16.823   1.361  0.1769 -0.0670  0.0453
22010W        W37819  13.595  12.877  15.226 -0.1132  0.0414 -0.1484
22011W        W37820  12.077   4.675   3.365  0.0415 -0.0854  0.1282
22012W        W37821   2.600   1.416   2.880 -0.1159  0.1596  0.0491
22013W        W37822   8.133   7.339  16.724 -0.5094 -0.1108 -0.2135
22014W        W37823   7.794  17.360  16.812  0.0106 -0.2774 -0.5478
22015W        W37824   7.988  17.303   2.362  0.2540  0.1458 -0.1044
22016W        W37825   3.692  13.156  15.593 -0.2939  0.2296  0.1039
22017W        W37826   7.472   9.965  11.471  0.2979 -0.0723 -0.2090
22018W        W37827   3.481   0.545   2.227  0.1745  0.0187  0.0559
22019W        W37828   0.940   8.221  12.550 -0.1595 -0.0021  0.0346
22020W        W37829  16.126   1.695   4.978  0.3166  0.0752 -0.0446
22021W        W37830   3.006   1.074   3.597  0.1594  0.0682  0.3393
22022W        W37831  10.512   3.161   3.980 -0.0876  0.1220 -0.2857
22023W        W37832   5.596   4.103   3.714  0.0430  0.2054 -0.0162
22024W        W37833  10.606   2.102  14.290 -0.0121  0.0744 -0.0615
22025W        W37834   9.372   1.815   4.574 -0.2240 -0.0139  0.0479
22026W        W37835  14.347  16.322  14.842  0.1959  0.0306  0.0591
22027W        W37836   0.611  15.573   4.966 -0.0720 -0.1234 -0.2016
22028W        W37837   5.678  10.380  13.756  0.0538  0.2160  0.4346
22029W        W37838   9.811   2.404  16.713  0.2834  0.1764  0.2243
22030W        W37839   5.079   7.082  15.164  0.0231 -0.2742 -0.0865
22031W        W37840   6.051   1.607   2.781  0.1449  0.2022  0.1119
22032W        W37841  12.563   1.818   0.323  0.0738  0.3065 -0.2017
22033W        W37842  14.550  12.578   3.572  0.1015  0.1583 -0.1422
22034W        W37843   8.247   8.513  12.191 -0.0662 -0.2976  0.0321
22035W        W37844   6.262   9.347   5.447 -0.2235 -0.1272  0.0459
22036W        W37845  16.200  10.064   2.469 -0.1876  0.2490  0.1621
22037W        W37846   1.370  12.532  15.532 -0.3872 -0.1361 -0.1321
22038W        W37847  15.642  15.954   5.133 -0.2402  0.0546 -0.3364
22039W        W37848   3.029  17.115  14.804 -0.1056 -0.1284 -0.1004
22040W        W37849  16.367   7.827   4.858  0.0831 -0.0132  0.1243
22041W        W37850  16.683  12.378  13.874 -0.1712 -0.0184  0.1111
22042W        W37851   8.305   7.393   3.592 -0.1912  0.0554 -0.0043
22043W        W37852   4.289   3.940  12.169  0.4202 -0.2021  0.0589
22044W        W37853   8.674  17.721   4.045  0.1360  0.2152  0.0982
22045W        W37854   3.325   6.756   2.710 -0.1754 -0.0419 -0.4492
22046W        W37855   1.836  16.661  10.501 -0.1468 -0.0432 -0.1543
22047W        W37856  10.635   5.731   1.952 -0.1310 -0.0825  0.1396
22048W        W37857   7.227  17.652   2.999 -0.2921  0.1124 -0.0178
22049W        W37858   1.202  14.307   1.236 -0.3421 -0.0980 -0.0102
22050W        W37859  10.608  11.987  12.982  0.0890 -0.1655 -0.1542
22051W        W37860  11.319   4.090   0.589  0.0293 -0.0694  0.2302
22052W        W37861   3.345   3.439  12.112  0.0479 -0.1659 -0.0930
22053W        W37862  10.253  13.200   2.491 -0.1953  0.2554  0.0394
22054W        W37863  14.558   8.031  15.421  0.1627  0.2423 -0.1054
22055W        W37864  16.419  14.687  11.655 -0.1819 -0.1882 -0.0084
22056W        W37865  10.296  14.349   0.457  0.4238 -0.2862  0.2239
22057W        W37866   0.785   1.877  13.639 -0.1703  0.0149  0.0347
22058W        W37867   2.555   9.599   5.068 -0.0270 -0.1301 -0.1153
22059W        W37868   3.400  12.594  12.271  0.0094 -0.0068  0.1804
22060W        W37869   4.798   5.708  14.317  0.0477  0.1311  0.3019
22061W        W37870   8.220  17.012  14.047  0.1240  0.0409  0.1495
22062W        W37871   1.002  11.766  13.151  0.2122 -0.0451  0.1004
22063W        W37872   0.785   0.578  16.283 -0.0083  0.2311 -0.0425
22064W        W37873   1.606   5.327  12.062  0.0297 -0.0136 -0.1595
22065W        W37874  12.961   8.634   2.340  0.2419 -0.2093 -0.0120
22066W        W37875   4.964   1.973   0.757  0.2142 -0.0658  0.2494
22067W        W37876   6.546   5.262   5.183 -0.2071  0.0628  0.1884
22068W        W37877   5.390  15.071  12.621  0.1699  0.0722 -0.2987
22069W        W37878   1.626  13.995  12.714 -0.2315  0.2766  0.0044
22070W        W37879   4.287   4.956   2.445 -0.0391  0.0828 -0.1228
22071W        W37880   4.557   1.813  14.762  0.0067 -0.0078  0.0245
22072W        W37881   8.082   3.337   2.651  0.0027 -0.0328  0.1475
22073W        W37882   1.720   9.888  12.145  0.2158  0.3249  0.0675
22074W        W37883  13.656  16.097   2.529 -0.0553 -0.1650  0.2030
22075W        W37884  16.007   2.816  14.953 -0.0411 -0.1132  0.1572
22076W        W37885  13.012   3.398  14.958 -0.1156 -0.1489 -0.0403
22077W        W37886  13.383  16.074  11.243 -0.4749  0.1135  0.0939
22078W        W37887   3.202   9.526  14.841  0.1271  0.0932  0.3041
22079W        W37888  15.115   7.723  12.372  0.1317  0.2162  0.1385
22080W        W37889  12.537   9.043  12.434 -0.1832  0.0470  0.0565
22081W        W37890   4.468   6.895   0.251  0.0585  0.0321  0.2965
22082W        W37891  10.214  14.407   3.701  0.0266 -0.1272  0.0915
22083W        W37892   0.768  15.248  11.286 -0.1564  0.1713  0.1280
22084W        W37893   1.923   0.219   0.808  0.2222  0.3661  0.1358
22085W        W37894  12.563   1.380  10.759 -0.1591  0.0658  0.0585
22086W        W37895   9.972   1.232   1.069 -0.1226  0.1309  0.0880
22087W        W37896   7.311   7.647   1.712  0.0037 -0.1570  0.0499
22088W        W37897  13.668   6.451   2.429 -0.0687  0.0747 -0.0958
22089W        W37898  12.753  15.295  16.396 -0.1133  0.0965 -0.1584
22090W        W37899   4.361  15.104  15.770 -0.0449  0.1611 -0.2466
22091W        W37900   5.260  16.866   3.889 -0.1656  0.1024 -0.1365
22092W        W37901   2.728   4.529  13.484  0.0843 -0.1601  0.0887
22093W        W37902   3.117   1.468   2.850 -0.1504 -0.2314 -0.1883
22094W        W37903   8.048  14.036  14.735 -0.0518 -0.0798  0.2897
22095W        W37904  13.516   6.897  16.269  0.1173 -0.1904  0.1365
22096W        W37905   7.970   4.613  15.784 -0.1278 -0.1124 -0.2755
22097W        W37906   8.535   0.259   1.904  0.0491 -0.0341  0.2165
22098W        W37907  16.054   2.181   4.981  0.1014  0.0176 -0.1113
22099W        W37908  15.044  12.106  15.320  0.0007  0.0234 -0.0875
22100W        W37909   5.223   0.203  14.939  0.1517 -0.0476  0.2533
22101W        W37910  17.369   3.060   1.764  0.2016  0.0162 -0.1368
22102W        W37911  10.880  10.764  13.657  0.0781 -0.2493 -0.0614
22103W        W37912   9.154  16.784   2.477 -0.3534 -0.5176  0.0872
22104W        W37913   1.728   2.044  14.598 -0.2189  0.2227 -0.0725
22105W        W37914  10.062   3.368   0.655  0.0504 -0.2729 -0.1452
22106W        W37915   0.400   1.671   3.021  0.1870  0.0738  0.2979
22107W        W37916  13.838  12.831   2.931  0.2327  0.0734  0.1267
22108W        W37917  13.468  15.080   5.068 -0.0252  0.1718  0.2024
22109W        W37918  11.017  15.613  14.585 -0.1797  0.1955  0.0145
22110W        W37919  16.535  10.504  12.362  0.2645  0.0489 -0.0209
22111W        W37920  15.333  15.260   3.993  0.2495  0.1035  0.2082
22112W        W37921  14.336   2.050   6.154 -0.1790 -0.1691  0.1262
22113W        W37922  13.368  14.881  13.840  0.2093  0.1995  0.0788
22114W        W37923   4.047   3.078  12.094  0.1132  0.0957 -0.2409
22115W        W37924  13.410  15.695   2.729 -0.2469 -0.1151 -0.5390
22116W        W37925  14.416   6.966  16.618  0.0311 -0.0461 -0.1503
22117W        W37926  10.914  11.634   1.002 -0.0460 -0.0435 -0.1047
22118W        W37927  13.807   5.434  11.647 -0.0804 -0.0711 -0.0882
22119W        W37928  15.645   8.415   0.609  0.1780 -0.0187 -0.1220
22120W        W37929   4.083   4.102  13.902 -0.0995  0.4089  0.3030
22121W        W37930  16.739  12.167   3.318  0.1489  0.1726  0.0463
22122W        W37931  14.474   0.127   5.796 -0.1044  0.2164 -0.5058
22123W        W37932  11.627   1.017  12.613  0.0006 -0.0472  0.1110
22124W        W37933  11.272  16.225   4.933  0.0412 -0.2484 -0.0003
22125W        W37934   9.900   0.991   5.017 -0.0380  0.2767  0.0507
22126W        W37935  10.392   8.603  11.647 -0.3050  0.0987  0.1235
22127W        W37936  13.859   6.867  16.689 -0.1771  0.0300 -0.0779
22128W        W37937  17.199   5.446  14.824 -0.2456  0.1533 -0.1367
22129W        W37938   9.450   3.090   5.862 -0.2781  0.2145  0.0529
22130W        W37939  10.701   3.539  15.131  0.3147  0.0565 -0.2050
22131W        W37940   3.859  13.246   3.628  0.0225  0.0588  0.0728
22132W        W37941  12.977   6.927  11.586 -0.0333 -0.0230  0.0996
22133W        W37942   6.716  15.062   5.451 -0.1835 -0.4162 -0.2479
22134W        W37943   3.789   6.458   3.522 -0.1606 -0.2940 -0.1354
22135W        W37944  11.570   4.112  15.252  0.0311 -0.0479  0.1116
22136W        W37945   2.830   4.061   1.673  0.0492  0.0476  0.0863
22137W        W37946   5.012   5.941   5.912  0.0696 -0.0435 -0.0093
22138W        W37947   6.630  14.326   1.517  0.1713  0.1439 -0.0174
22139W        W37948  15.485   4.912  11.910  0.0773  0.0823 -0.0517
22140W        W37949  16.100  15.119  13.785  0.0855 -0.3830  0.1435
22141W        W37950   2.382  13.157  15.719 -0.1242 -0.0471  0.0851
22142W        W37951  11.073   2.332   5.363  0.4136  0.1053 -0.1835
22143W        W37952  17.259  16.338  14.761  0.1868  0.1582 -0.0795
22144W        W37953  14.799  12.576  12.165 -0.0716  0.1855 -0.2804
22145W        W37954   9.745   4.731  12.141  0.2024  0.0828  0.0960
22146W        W37955   4.444   4.663  15.749  0.0847 -0.2454 -0.2069
22147W        W37956   5.696   8.658   0.522  0.1017 -0.0298  0.3454
22148W        W37957  15.222  13.972  11.398 -0.0523  0.2022 -0.2737
22149W        W37958   0.691  10.333  15.008  0.0704 -0.1890 -0.2100
22150W        W37959  11.870   2.104  15.917 -0.0591 -0.3536  0.3442
22151W        W37960   6.621  16.778   2.390 -0.2284 -0.0694  0.0176
22152W        W37961   5.112   4.202   4.843  0.4845 -0.1264 -0.0294
22153W        W37962   7.217   5.706   2.072 -0.0719 -0.0532 -0.1564
22154W        W37963   8.187   7.883   4.271  0.0100 -0.3053  0.1748
22155W        W37964   2.753   7.813   0.397  0.0555 -0.0994 -0.1305
22156W        W37965   3.516  16.035  16.432 -0.0585 -0.0145 -0.1152
22157W        W37966   7.433   2.218  11.697  0.1115  0.1834  0.1146
22158W        W37967  15.943   4.940  12.924  0.1090 -0.2559  0.0398
22159W        W37968   3.289  15.674  16.857 -0.1632  0.1152  0.1391
22160W        W37969  14.467  14.021  15.262 -0.3340 -0.1573 -0.0534
22161W        W37970   3.316   0.991   5.253  0.0641 -0.0109  0.0477
22162W        W37971  12.032   8.593  15.757 -0.2387  0.1105 -0.2156
22163W        W37972  17.286   4.831  13.140 -0.1973 -0.1227 -0.1821
22164W        W37973  12.651  17.660   3.484  0.0753 -0.1281  0.0624
22165W        W37974   6.922   3.090  12.358  0.1239  0.2201  0.0565
22166W        W37975   9.572   2.096   4.162  0.1291 -0.3150 -0.0639
22167W        W37976   0.850   1.683  16.786  0.1547 -0.0663  0.0850
22168W        W37977  11.230  12.584   2.921  0.0853  0.0052  0.0348
22169W        W37978  12.530   8.277  14.426 -0.1989 -0.1704 -0.0630
22170W        W37979  10.207   3.654  12.591 -0.0806  0.0107 -0.3754
22171W        W37980   6.774   9.028   2.602  0.1960 -0.1518 -0.1571
22172W        W37981   0.930   5.836   3.092 -0.0903 -0.2404 -0.2952
22173W        W37982   7.266  17.117  16.617 -0.0917 -0.0909  0.1296
22174W        W37983   2.314   4.203   4.970  0.5017  0.1921  0.0642
22175W        W37984  11.334  17.083  16.233 -0.1432 -0.2103 -0.1229
22176W        W37985   9.655   5.347  13.595 -0.3291 -0.2298  0.1613
22177W        W37986   5.357  15.557  12.308 -0.3724 -0.1235  0.2577
22178W        W37987   3.541  10.623  14.542 -0.0446  0.0641 -0.1784
22179W        W37988   4.471  11.785  12.507  0.1602  0.0586  0.2244
22180W        W37989   6.380   3.886  12.522  0.4342  0.1412  0.0749
22181W        W37990   7.726  14.068  12.935 -0.0701 -0.0952  0.3328
22182W        W37991  12.896   5.240   4.657 -0.1650  0.1095 -0.0694
22183W        W37992   5.743  17.631   0.257 -0.1781  0.0156  0.1049
22184W        W37993  11.952  17.189  13.807  0.0440 -0.0688 -0.1467
22185W        W37994   1.670   2.027   5.530 -0.0648  0.1648 -0.0710
22186W        W37995   1.813  12.083  13.431  0.1654  0.0648  0.1385
22187W        W37996   3.320   2.858  16.076  0.0734  0.0187 -0.0153
22188W        W37997   4.723   7.448  11.757 -0.1064 -0.1181 -0.0432
22189W        W37998  11.824   4.980   2.513  0.0815  0.2077  0.1954
22190W        W37999  10.704   1.776  13.515 -0.1875 -0.3353  0.1505
22191W        W38000  11.592   5.769   5.091  0.0731 -0.5701  0.0775
22192W        W38001   0.059   7.691  15.085  0.0729 -0.2582  0.1374
22193W        W38002   0.252  14.479  13.208 -0.0818 -0.1482 -0.0965
22194W        W38003   9.152   8.300   2.107 -0.0411  0.0763 -0.2696
22195W        W38004   7.477   9.486   2.062 -0.1695 -0.1911  0.1534
22196W        W38005  11.525  14.997  14.060  0.2699  0.2611  0.2693
22197W        W38006   3.069  17.125   4.172 -0.3102  0.0711  0.0917
22198W        W38007   6.738   6.523   2.232  0.1237 -0.0392  0.0947
22199W        W38008   3.130  17.311   1.902 -0.1051  0.1467  0.0724
22200W        W38009  10.147   4.893  11.890 -0.3150  0.0696  0.1018
22201W        W38010   2.557  11.789   2.309 -0.2056 -0.0707 -0.0516
22202W        W38011   5.962   4.953  15.290  0.0075 -0.0029 -0.2411
22203W        W38012  10.522   7.026   1.511  0.3694 -0.2417 -0.3574
22204W        W38013  15.332   2.772   0.825  0.0129 -0.0340  0.1428
22205W        W38014   5.745   9.048   4.557  0.0233 -0.0200 -0.1934
22206W        W38015  14.961   7.154   1.874 -0.1950 -0.0582 -0.0780
22207W        W38016   2.762  11.020   3.226 -0.1039 -0.2860 -0.1580
22208W        W38017  13.976   7.116   0.145 -0.0084  0.0314 -0.1033
22209W        W38018  13.268   5.112  13.826 -0.1032 -0.0476 -0.0948
22210W        W38019   9.288  12.847  15.992  0.1348  0.1166  0.1193
22211W        W38020  12.847  11.806   0.063 -0.2081 -0.0188 -0.3434
22212W        W38021  14.778  15.989   0.589  0.2247  0.0371 -0.2025
22213W        W38022   0.455   3.874   4.758  0.1009  0.0456  0.1408
22214W        W38023   2.355  10.837   4.931  0.2765  0.0564  0.1761
22215W        W38024   9.442   5.028   5.603 -0.1585  0.0566 -0.0100
22216W        W38025   0.312   7.191  13.804  0.0598 -0.1461  0.5338
22217W        W38026   1.986   1.878  12.779  0.1567  0.1702 -0.0131
22218W        W38027  15.518  16.408   2.926 -0.2567  0.0058 -0.0029
22219W        W38028   8.716   0.528   1.554  0.0194 -0.1164  0.2081
22220W        W38029   6.626  11.744  13.075  0.1374  0.3540  0.3733
22221W        W38030   9.120  14.267  14.187 -0.0505 -0.0933  0.1092
22222W        W38031   5.669  12.095  14.301  0.0309 -0.3441  0.2505
22223W        W38032   4.475  17.643  10.761 -0.3972 -0.0800  0.2148
22224W        W38033   0.705  16.975  11.994  0.1316  0.0128 -0.2530
22225W        W38034   4.227  13.887   2.595 -0.0782 -0.3629 -0.1079
22226W        W38035   6.887  17.213  13.661 -0.0941  0.0314 -0.1725
22227W        W38036   4.674   9.193  14.814  0.3634 -0.1690 -0.0018
22228W        W38037  17.094   6.689   0.432 -0.2245  0.0225 -0.1872
22229W        W38038  10.117  15.331   3.660  0.0680  0.0538 -0.3231
22230W        W38039  12.333   9.619  11.965  0.1738  0.0365 -0.3000
22231W        W38040   5.254   6.079   0.160  0.1370 -0.0105 -0.1388
22232W        W38041   1.936   1.636  11.742 -0.0825 -0.1344 -0.0569
22233W        W38042   4.368  15.669  11.377  0.0879  0.3401  0.0407
22234W        W38043  11.831  11.821  16.357 -0.2494  0.0050  0.0662
22235W        W38044   8.963  13.222  11.894  0.1862  0.0556  0.1319
22236W        W38045   3.005  14.932  14.866  0.0442 -0.0157  0.1202
22237W        W38046   0.366   2.227   5.760 -0.0608 -0.0399 -0.0657
22238W        W38047   1.660  16.534  12.520 -0.0338 -0.0798  0.0008
22239W        W38048  11.274   8.667   4.041 -0.1161  0.1403  0.2740
22240W        W38049  11.345   5.988  12.462  0.1949  0.0165 -0.0639
22241W        W38050   5.803   0.434  13.278 -0.0776  0.0944  0.1559
22242W        W38051   4.071   3.565  16.313  0.1493  0.3240  0.0275
22243W        W38052   1.057   3.549  12.475  0.2453  0.0275  0.3469
22244W        W38053  14.236  12.186  12.714  0.0813 -0.1388 -0.0426
22245W        W38054   7.773  16.880   3.989 -0.1622  0.1417 -0.0979
22246W        W38055  14.282   0.155  11.501 -0.2457  0.2073 -0.0159
22247W        W38056  12.327   4.211  15.688 -0.1023 -0.0903 -0.0922
22248W        W38057   2.310   6.085   3.277  0.1825 -0.2040  0.1286
22249W        W38058   7.808   4.607   5.259  0.1628  0.0907 -0.2117
22250W        W38059   3.397   9.464  13.047  0.0951 -0.2213  0.5128
22251W        W38060   2.533   2.680   1.951 -0.0392 -0.0107  0.3233
22252W        W38061   4.888  14.958   5.343  0.0213  0.3025 -0.1932
22253W        W38062   0.440  16.825  13.076  0.0956  0.1878  0.1323
22254W        W38063  15.938   0.562   4.332  0.1071 -0.0921 -0.1242
22255W        W38064  17.469   0.199  11.682  0.0846  0.3067 -0.0188
22256W        W38065  11.647   6.659  14.039 -0.0595  0.1125 -0.1341
22257W        W38066  14.042  13.284  13.750  0.3545  0.1161 -0.0529
22258W        W38067  16.942   5.206  12.964 -0.2639  0.2738 -0.0043
22259W        W38068  10.306  17.467   4.496  0.0749  0.2948  0.1277
22260W        W38069  17.518  11.052   3.860 -0.0206  0.0582 -0.0615
22261W        W38070   2.415   2.492   4.386  0.2222  0.0053 -0.0681
22262W        W38071   6.881  13.690   4.107  0.1320 -0.0334 -0.0127
22263W        W38072  12.378  15.892  15.135  0.0212  0.1019  0.1803
22264W        W38073   4.463   3.888   0.019  0.1092  0.1693 -0.1122
22265W        W38074  11.111   0.970  13.406  0.1947  0.1304 -0.1536
22266W        W38075   1.556   1.920   0.364 -0.0450 -0.0045 -0.0928
22267W        W38076   5.244   2.430   0.374 -0.1883 -0.2629  0.0937
22268W        W38077   6.171   3.393  15.924 -0.0924  0.1243 -0.2888
22269W        W38078   7.119   4.557  13.301  0.0464 -0.6107 -0.0120
22270W        W38079   9.517  12.032   2.325  0.0815 -0.0600  0.0708
22271W        W38080   5.970  15.998  15.860 -0.0170  0.0029 -0.2028
22272W        W38081   9.597  14.330   5.259  0.0320 -0.4131  0.1930
22273W        W38082   4.580   0.347  16.817 -0.3291  0.0361 -0.1469
22274W        W38083  15.329   8.896  15.003  0.0212  0.3964 -0.0599
22275W        W38084   3.618   0.608   5.465 -0.2449  0.2097  0.0639
22276W        W38085  16.149  14.662  13.907 -0.0224  0.2336  0.2247
22277W        W38086  10.561  12.308   4.235  0.0891  0.1441 -0.0129
22278W        W38087   8.091  16.719  14.830  0.0869 -0.0686  0.2846
22279W        W38088   5.857   6.078   0.368 -0.1092 -0.1548 -0.0249
22280W        W38089  10.448   6.981  16.655  0.4017  0.3186  0.2863
22281W        W38090  11.267   5.486   0.840  0.0125  0.1268  0.4424
22282W        W38091  10.408  14.849   1.684  0.1563 -0.0777 -0.1523
22283W        W38092   1.250  12.796   4.859 -0.3348 -0.0231 -0.0629
22284W        W38093  16.941  10.074   2.168  0.1923  0.0820 -0.0865
22285W        W38094   5.630  13.298   2.802 -0.0463  0.1158 -0.2228
22286W        W38095   1.840   3.534  15.829 -0.0490  0.0999 -0.0596
22287W        W38096   7.395  17.431   0.605 -0.3312  0.0242  0.1639
22288W        W38097   9.304  12.707   4.809 -0.2998  0.4374  0.0147
22289W        W38098  15.417   9.499  12.197  0.4134 -0.0543 -0.0495
22290W        W38099   8.797   3.169  14.882 -0.0953  0.2949 -0.0701
22291W        W38100  14.129  13.040  12.471 -0.0868  0.2243 -0.1508
22292W        W38101   4.451   5.011   1.135  0.2378  0.2176  0.2804
22293W        W38102  17.060   2.846   5.483 -0.2626  0.0889 -0.1058
22294W        W38103  12.103   4.409   3.842 -0.0668 -0.0606  0.1842
22295W        W38104   5.761   5.452   4.697  0.0323 -0.2414  0.1929
22296W        W38105   5.905  13.978   0.263  0.1676  0.1496 -0.2416
22297W        W38106  11.314  16.530  15.002 -0.1321  0.1490 -0.1065
22298W        W38107   0.465   8.199  15.181 -0.0638 -0.1425 -0.1207
22299W        W38108   3.154  17.715   2.754  0.1207  0.3554 -0.2800
22300W        W38109  15.876   9.242  15.595 -0.0352  0.2847 -0.0928
22301W        W38110  14.149   6.413   1.821  0.0075  0.4783 -0.0500
22302W        W38111  12.607   1.009   2.887  0.2882  0.0346  0.0006
22303W        W38112  10.635   5.658  14.873  0.4838 -0.1016 -0.0487
22304W        W38113   2.560  13.127  14.036 -0.0559 -0.3499 -0.4388
22305W        W38114   3.544   3.643   0.958 -0.1707 -0.0855 -0.0312
22306W        W38115   5.485  13.433  14.752 -0.1555  0.1982  0.0406
22307W        W38116   4.918  11.366  12.748 -0.1786 -0.3292  0.1220
22308W        W38117   3.006   0.397  14.923 -0.2556 -0.0045 -0.1599
22309W        W38118  16.722  15.009   5.695  0.2941 -0.0069  0.1887
22310W        W38119   7.938  15.917  15.738  0.1766 -0.2789  0.1742
22311W        W38120   0.622  10.939  11.618  0.1893  0.0062 -0.0771
22312W        W38121  12.203  11.766  13.775  0.0918 -0.0027 -0.3891
22313W        W38122   1.713  14.565  13.717  0.0011  0.0070 -0.0106
22314W        W38123   3.441  17.551  13.814 -0.2793  0.0052  0.0077
22315W        W38124   8.822  11.227   0.105  0.0846  0.1026 -0.1194
22316W        W38125  17.392  15.229   1.329 -0.2370  0.1191  0.0263
22317W        W38126   5.533   9.011  14.317  0.1619 -0.2870 -0.3607
22318W        W38127  12.697  11.306   4.265 -0.1448  0.1692 -0.0737
22319W        W38128   3.448  11.449  12.995  0.0347 -0.1180  0.3801
22320W        W38129  10.634  10.664   0.231  0.0772  0.1826  0.3180
22321W        W38130   7.044   5.719   5.786 -0.0593  0.0417 -0.1318
22322W        W38131   8.208  13.688  15.842  0.0019 -0.1549 -0.1033
22323W        W38132   2.634  17.341  14.961 -0.0828 -0.1106 -0.1648
22324W        W38133  16.453  11.324  14.505  0.5987  0.0899 -0.0008
22325W        W38134   0.812  13.795  14.548 -0.0888  0.1063 -0.2753
22326W        W38135   9.819   8.076  15.820 -0.3038 -0.0328 -0.2471
22327W        W38136  17.199  17.260   0.744 -0.1902 -0.2956  0.0797
22328W        W38137   3.820   5.097  11.702 -0.3523 -0.1002  0.1692
22329W        W38138  17.069   1.210  14.709  0.0796 -0.0940 -0.1281
22330W        W38139   9.959   9.548   1.091 -0.1390 -0.0185 -0.1784
22331W        W38140  14.914   0.321   5.000 -0.0107  0.0461  0.0338
22332W        W38141   7.323  11.320   5.665  0.0627  0.0575 -0.1008
22333W        W38142  17.256   0.783   0.504  0.1744 -0.0162  0.1556
22334W        W38143   3.174   1.583  12.908  0.0016 -0.4381  0.0584
22335W        W38144   0.432  14.660  16.367 -0.0746 -0.2415 -0.0726
22336W        W38145  15.488   7.425  15.113 -0.0734 -0.2169  0.3848
22337W        W38146   4.709   4.471   4.208  0.0287 -0.1851 -0.0048
22338W        W38147  17.715   5.428  15.973 -0.1444  0.0674 -0.1209
22339W        W38148  15.263   8.972   5.775  0.0745 -0.0368  0.0744
22340W        W38149   9.428   7.995  12.725 -0.1407 -0.0454  0.1472
22341W        W38150  12.892   0.098  15.834 -0.0588  0.1892 -0.3330
22342W        W38151   4.514  14.588  13.372 -0.1780  0.1306  0.0634
22343W        W38152  10.421   6.065  16.585  0.0157  0.0939 -0.1074
22344W        W38153  14.802  17.315  12.000  0.2663  0.1610  0.1489
22345W        W38154  11.682  17.006  12.787 -0.0739  0.2326 -0.1611
22346W        W38155  12.118  11.420  16.555  0.0803  0.1129  0.1686
22347W        W38156  16.027   9.853   1.999 -0.1188  0.1229  0.1650
22348W        W38157  15.778   1.535   1.720 -0.2116 -0.0140 -0.1472
22349W        W38158  10.734  15.836  11.080 -0.0550  0.0526 -0.1178
22350W        W38159   9.389  12.026  12.009  0.0377 -0.0038  0.1686
22351W        W38160   9.921  11.361  16.265 -0.0183 -0.0500  0.0431
22352W        W38161   0.129   9.803  12.994 -0.1495  0.0413  0.0237
22353W        W38162  17.156   7.855   2.381  0.0694  0.1688  0.3141
22354W        W38163  16.863  15.629  11.498 -0.1294 -0.0614  0.1681
22355W        W38164   7.719   0.903  14.405  0.2928  0.0264 -0.0305
22356W        W38165  10.551   3.019  14.190  0.0944  0.3294 -0.3086
22357W        W38166   6.772   9.367   5.510 -0.4001  0.3475  0.0859
22358W        W38167  16.139  13.363   1.647 -0.0024  0.2017 -0.0307
22359W        W38168   8.821  13.755  11.202 -0.0419 -0.0541  0.0280
22360W        W38169   3.660   8.775   0.750  0.2132  0.1178  0.0716
22361W        W38170   1.458  14.067   2.211  0.1340 -0.1131  0.2284
22362W        W38171   1.232   4.001   2.779  0.0359  0.3337 -0.0293
22363W        W38172  12.348   0.374  14.513 -0.0814  0.3490  0.0570
22364W        W38173  15.290  12.408  13.047  0.0847 -0.0450  0.0589
22365W        W38174  15.294  12.840  15.329 -0.0956  0.0053  0.0826
22366W        W38175  15.126   1.231   5.784 -0.0174 -0.0472  0.1110
22367W        W38176   5.598   7.166   1.475  0.3195  0.3361 -0.2990
22368W        W38177   3.011   4.368  14.926 -0.1802  0.0800 -0.2057
22369W        W38178  14.144   2.176  14.049 -0.1077 -0.3737  0.1869
22370W        W38179   2.761  12.986  16.002 -0.0343  0.0129  0.0103
22371W        W38180  12.779   0.956  10.605  0.0517  0.0300 -0.1602
22372W        W38181  15.369  15.111  12.635  0.0881  0.0680 -0.2095
22373W        W38182   0.705   0.848  15.275 -0.0403  0.0176  0.0078
22374W        W38183  11.233  13.998  12.852  0.0594  0.0546 -0.0094
22375W        W38184   9.232  13.263  15.674 -0.0206  0.2885 -0.0729
22376W        W38185   1.514   4.619  14.926  0.0440 -0.3128 -0.1179
22377W        W38186   5.747  10.379   5.282 -0.1302 -0.0758  0.1010
22378W        W38187   6.576   5.343   5.830  0.3036 -0.1190  0.0809
22379W        W38188   2.363   8.573  15.823 -0.0110 -0.1122 -0.0137
22380W        W38189  11.596   6.400   3.292  0.0699  0.3795 -0.4129
22381W        W38190  13.439  10.849   1.861 -0.0706 -0.1514  0.0937
22382W        W38191   6.779   2.159  12.718 -0.1892  0.2187 -0.1118
22383W        W38192  10.207   6.368   5.141 -0.0885  0.2491 -0.0682
22384W        W38193  12.134   2.301   2.752  0.4259  0.0631  0.3283
22385W        W38194   4.745   4.190  12.239 -0.3339  0.0433  0.1767
22386W        W38195  10.019  13.502  11.380  0.0057 -0.4388 -0.0892
22387W        W38196   4.401  16.746   4.330  0.1685 -0.0673 -0.3537
22388W        W38197   5.110   9.938   2.634  0.0835  0.2774 -0.1176
22389W        W38198   8.452  10.706  13.529 -0.2271 -0.0587  0.2444
22390W        W38199   6.002  14.234  16.482 -0.1314 -0.1841 -0.0920
22391W        W38200   6.660   4.838   4.039  0.1367  0.0376 -0.0497
22392W        W38201  15.915  17.458  12.885  0.0600 -0.0172 -0.2793
22393W        W38202  10.078  13.200  14.069  0.0850  0.1576 -0.1712
22394W        W38203  10.239   4.521  12.956  0.0035 -0.0769  0.1234
22395W        W38204   7.788   9.809  13.815 -0.2716 -0.1413 -0.1350
22396W        W38205  15.779   9.232  12.403 -0.1893 -0.1360 -0.1238
22397W        W38206  13.092   9.114   3.573 -0.1871  0.2059 -0.0294
22398W        W38207  10.100  16.051  16.819  0.0434 -0.3588  0.0427
22399W        W38208   4.655   7.298   2.925 -0.2800 -0.2885  0.3000
22400W        W38209   1.380   5.211   1.213  0.2998  0.3580 -0.0846
22401W        W38210  13.826   1.191   0.976 -0.0700  0.0053 -0.3396
22402W        W38211   5.720   4.731  12.705  0.1340  0.0859  0.0963
22403W        W38212   4.450   1.304   3.553 -0.2079 -0.1890  0.1695
22404W        W38213  12.345   0.753   3.315 -0.1401  0.3219  0.1837
22405W        W38214   1.355  10.355   1.239 -0.1069  0.0626 -0.0435
22406W        W38215   2.006   2.671  12.566  0.0759  0.0330 -0.0474
22407W        W38216   7.458   5.475   2.517  0.0029 -0.1279 -0.1400
22408W        W38217  17.483  16.656   4.612  0.1257 -0.0138 -0.0917
22409W        W38218   6.864   6.684  15.313  0.0787 -0.0199  0.0675
22410W        W38219  13.045   5.803  16.580 -0.0219 -0.2096  0.1342
22411W        W38220   2.534  15.706  13.160 -0.0746  0.0787  0.0628
22412W        W38221   1.766   7.131  15.026  0.2507 -0.2352 -0.1792
22413W        W38222   5.622   5.247   0.308 -0.2733  0.3672  0.1252
22414W        W38223   4.718   0.106  15.995  0.1377  0.1489  0.1873
22415W        W38224   7.781   4.793   1.386 -0.0652  0.1406  0.2637
22416W        W38225   9.207   6.831  15.828 -0.4170  0.2718 -0.0235
22417W        W38226   6.926  12.478  13.562  0.0342  0.2764 -0.0675
22418W        W38227   5.316  15.721   1.977  0.0863 -0.4288  0.0294
22419W        W38228   6.936  11.057   2.424 -0.1192 -0.1660  0.0474
22420W        W38229   9.206   2.624  13.406  0.2054  0.2709  0.0842
22421W        W38230   5.864   2.951   0.586  0.1024  0.0790  0.1728
22422W        W38231  13.680   1.603   5.872  0.0686 -0.1601  0.0876
22423W        W38232   9.376   1.546   4.130  0.3316  0.1421 -0.1816
22424W        W38233   0.686   5.273   0.913  0.0285 -0.1467 -0.0547
22425W        W38234  17.226  14.740  12.353  0.1025 -0.1151  0.0325
22426W        W38235   4.068  14.084  11.695  0.1456 -0.3169 -0.2108
22427W        W38236  15.115  16.189   3.067  0.1454  0.1075  0.1069
22428W        W38237   4.783  17.415  14.502 -0.2072 -0.0285 -0.2682
22429W        W38238   9.056   1.708   1.320  0.2421  0.1884  0.0340
22430W        W38239   7.897  17.217   4.498 -0.1345 -0.1049 -0.1449
22431W        W38240   6.066  15.816   0.288 -0.1200 -0.1935  0.0627
22432W        W38241   6.487   3.428  12.905  0.0122  0.0302  0.2003
22433W        W38242   6.880  13.282  12.913 -0.3249  0.1219  0.2269
22434W        W38243  14.799  16.427   2.029  0.0872 -0.1896 -0.0543
22435W        W38244   8.903  12.044  12.820 -0.3607  0.1277  0.1509
22436W        W38245   4.712   9.723   0.026 -0.2023 -0.0498  0.1379
22437W        W38246  11.972   3.314  12.427 -0.3823 -0.3125 -0.0470
22438W        W38247   6.317  11.739   2.399  0.2419 -0.0262 -0.0994
22439W        W38248  17.094  15.787  15.194  0.0509  0.0298 -0.1302
22440W        W38249  12.100  10.808   4.807 -0.0925 -0.0899 -0.0773
22441W        W38250  13.606  17.355   3.568  0.2327  0.0841 -0.0674
22442W        W38251  12.743  13.252   0.206  0.0848 -0.0408  0.0682
22443W        W38252  10.295  13.977  13.233 -0.2427 -0.0022 -0.0225
22444W        W38253   2.958   6.537  13.682 -0.0165  0.0486 -0.2377
22445W        W38254   3.963  10.275   1.348  0.0118  0.0960  0.0152
22446W        W38255   6.520   0.097  12.191  0.2142  0.2352 -0.1795
22447W        W38256   3.396   7.999   5.023 -0.2530  0.1113 -0.0323
22448W        W38257   0.421   0.473  12.491 -0.2387 -0.0798  0.0990
22449W        W38258   9.065   8.522  12.095 -0.0922  0.2949  0.0633
22450W        W38259  11.355   3.119  12.519  0.3920  0.1645  0.0083
22451W        W38260  12.508  12.960   3.445 -0.1503  0.3394 -0.2414
22452W        W38261  10.932   7.122   1.836 -0.1736  0.1843  0.2284
22453W        W38262   8.910  16.422   0.545 -0.2576 -0.0801  0.0306
22454W        W38263   0.346   0.290   1.069  0.0716 -0.1109 -0.2757
22455W        W38264   8.507   1.993   1.890  0.0850  0.0329 -0.0674
22456W        W38265  14.009   0.023   5.114 -0.0855 -0.1191 -0.0272
22457W        W38266   1.329   9.153   4.409  0.2173 -0.3356 -0.1520
22458W        W38267   6.941   4.843   2.093  0.0429 -0.0814 -0.0584
22459W        W38268  16.835  12.667   5.582  0.1296 -0.1636 -0.1384
22460W        W38269   6.550   3.166   2.049 -0.1567 -0.0898  0.3129
22461W        W38270   7.633   7.054   5.750  0.1769  0.2003 -0.2258
22462W        W38271  12.630  14.381   2.857 -0.1878  0.0016  0.0658
22463W        W38272   7.779   5.684   1.483  0.2881 -0.3973 -0.0421
22464W        W38273  12.160   0.749   3.876 -0.1047 -0.1294  0.0655
22465W        W38274  12.090  11.545   2.397 -0.2418 -0.0290  0.1353
22466W        W38275   9.264   0.634   1.548  0.0880  0.4327 -0.0389
22467W        W38276   9.043  11.483  16.068  0.0273  0.1659  0.2075
22468W        W38277   7.928   4.957  15.446  0.1345  0.0992  0.1543
22469W        W38278  10.957   9.927   1.927  0.1498 -0.5927 -0.3153
22470W        W38279  11.441  13.550  16.815 -0.1546 -0.0378  0.1422
22471W        W38280   5.469   1.128  16.354 -0.2895  0.1635  0.0174
22472W        W38281   9.178   5.438   3.227 -0.0053 -0.3628  0.1200
22473W        W38282  12.686   9.073  11.254  0.1276  0.2657  0.0159
22474W        W38283   5.636  11.529  15.320  0.1260 -0.2055 -0.1285
22475W        W38284  12.474   4.357   2.109 -0.0521  0.1585 -0.1870
22476W        W38285   8.481  12.341  12.163  0.0344  0.3249  0.0394
22477W        W38286  12.368  12.772  11.537 -0.1658  0.1010  0.1696
22478W        W38287   5.878   5.927   5.113  0.5134  0.1098  0.2271
22479W        W38288  16.544  16.458   2.134  0.1434  0.2242  0.0988
22480W        W38289  16.506   6.922   5.805 -0.1321 -0.1865  0.0526
22481W        W38290   8.326   2.004  15.689  0.0324  0.0680 -0.2932
22482W        W38291  17.452   3.327  13.966  0.0593  0.0199  0.1174
22483W        W38292   1.877   2.437  16.009 -0.1170 -0.1310  0.0992
22484W        W38293   6.322  15.232  12.274 -0.0493  0.2594  0.0956
22485W        W38294   5.732  13.630  15.860  0.2895 -0.0502 -0.1609
22486W        W38295  16.522  10.888   4.658  0.0167 -0.0429 -0.1563
22487W        W38296  13.357   6.029   3.514 -0.0853  0.2064  0.2187
22488W        W38297   3.586  11.453  11.387  0.0671  0.1446 -0.0947
22489W        W38298  15.457  15.637   3.008 -0.1819 -0.0264  0.0782
22490W        W38299   0.208   8.991  10.551  0.1092  0.4525 -0.0232
22491W        W38300  15.079   0.789  12.992  0.0820  0.1917  0.1101
22492W        W38301  16.476   2.482   5.061  0.0163  0.0593  0.0887
22493W        W38302   6.720  17.143  15.480 -0.3389 -0.0893  0.1399
22494W        W38303  10.908  10.938   4.341  0.0108  0.1275  0.1131
22495W        W38304  15.819  13.084   4.164 -0.0675  0.0161 -0.2306
22496W        W38305  14.341   1.372   1.284  0.0917 -0.4318 -0.4210
22497W        W38306   1.178   1.433   0.402 -0.1164 -0.2840  0.1775
22498W        W38307   1.924   6.522  13.756 -0.0397  0.0930  0.0603
22499W        W38308  17.513  11.988  15.828  0.1398  0.1259 -0.0519
22500W        W38309   6.834  10.747  16.826  0.0432 -0.0748 -0.2651
22501W        W38310   2.852   0.978  16.246  0.0285 -0.0295  0.1874
22502W        W38311   9.913   8.116  12.659  0.2059  0.2719  0.0477
22503W        W38312   0.237  15.181  16.263  0.0267  0.1673  0.1296
22504W        W38313  13.283   6.024   1.338 -0.1514 -0.0948  0.2943
22505W        W38314  14.770  10.210  14.685  0.1347 -0.1098  0.2461
22506W        W38315   7.506   9.238  14.337 -0.2539  0.0902 -0.0964
22507W        W38316   9.914   6.018   2.295  0.0424 -0.2578  0.0898
22508W        W38317   1.637   5.093  15.033  0.1374 -0.0207 -0.1360
22509W        W38318   0.232  13.404  13.414 -0.0883  0.0833  0.2348
22510W        W38319  16.073   2.616   5.714  0.3411 -0.2656 -0.1303
22511W        W38320  17.176   5.856   0.091 -0.0581 -0.0730 -0.1175
22512W        W38321   3.780   8.425  16.548 -0.0579  0.3112  0.2085
22513W        W38322   0.285   8.490   1.312  0.1306  0.1976 -0.1244
22514W        W38323   6.925   7.300  11.845  0.2427 -0.1682  0.0053
22515W        W38324   0.034   7.813   6.083 -0.1249  0.2894  0.0735
22516W        W38325   0.021  10.816  14.165 -0.2173 -0.1711  0.1801
22517W        W38326   3.215  12.110  12.420  0.1685 -0.1770  0.2091
22518W        W38327   7.584  10.628  15.435  0.1687 -0.0209  0.1498
22519W        W38328  15.257  16.314   6.413 -0.3167 -0.5035  0.1196
22520W        W38329   9.481   3.426   1.872  0.0142  0.1283  0.0960
22521W        W38330   5.395   2.918   3.568 -0.4372  0.1223  0.2643
22522W        W38331   1.028  12.790  12.760 -0.3363  0.0226  0.0012
22523W        W38332  14.592  13.655   2.269 -0.1055  0.2335  0.2093
22524W        W38333   1.983   0.799   3.411  0.1202 -0.1103  0.1471
22525W        W38334   2.393  15.433  15.353 -0.3736  0.3356  0.1174
22526W        W38335   5.953  17.035  13.133 -0.1220 -0.2037  0.0001
22527W        W38336  14.619   8.669   2.647 -0.1820 -0.1101 -0.2920
22528W        W38337  13.533   1.551  14.635 -0.2338 -0.0204  0.1815
22529W        W38338  12.411  15.361  11.178  0.0126  0.0676 -0.0847
22530W        W38339  12.615  12.468  14.322 -0.0058  0.3722 -0.0358
22531W        W38340  15.568   0.325  12.347  0.0114  0.1939  0.1188
22532W        W38341   5.101   3.026   0.022  0.1946 -0.2170  0.0807
22533W        W38342   8.531   4.590  14.359  0.1046 -0.0376 -0.0439
22534W        W38343   6.658  12.171   4.641  0.1667  0.1092 -0.2658
22535W        W38344   5.290   4.461   1.920 -0.0958 -0.1771  0.1736
22536W        W38345  13.560  15.258  12.402  0.1857 -0.0692 -0.1903
22537W        W38346  12.704  15.115   0.258  0.2886 -0.1365 -0.1938
22538W        W38347  17.600   1.972  14.701  0.3160  0.3287  0.0960
22539W        W38348  12.087  14.517  14.265  0.0723  0.2415 -0.1122
22540W        W38349  11.257   6.100  16.326  0.0761  0.2112  0.2234
22541W        W38350   7.336   0.648  16.087  0.2806 -0.1504 -0.0346
22542W        W38351  10.903   5.415   0.085  0.2408  0.1634  0.0054
22543W        W38352   3.170   8.539   1.593 -0.2119  0.0546  0.1158
22544W        W38353   9.436  12.185  16.715  0.0172 -0.0937  0.2222
22545W        W38354  13.923   6.266  11.883 -0.2653 -0.1695 -0.1304
22546W        W38355  14.146   5.298   0.330 -0.0243  0.1177 -0.0951
22547W        W38356   0.390   0.376  16.475  0.2070  0.1089 -0.2107
22548W        W38357  16.266  17.539  15.295 -0.1597 -0.0101 -0.2277
22549W        W38358   2.371   0.192   0.494 -0.0388  0.1572 -0.0886
22550W        W38359   5.441  15.430   1.460 -0.1387  0.0153 -0.0807
22551W        W38360   5.959  14.411  13.594  0.0631 -0.1811  0.0315
22552W        W38361   1.716   9.987   0.987  0.1771  0.0542  0.0151
22553W        W38362  13.559  15.745  13.598  0.0638 -0.1535 -0.0931
22554W        W38363  13.964  16.336   2.124 -0.1156 -0.1239 -0.2082
22555W        W38364  14.678  11.456   4.777  0.2331 -0.1737  0.1208
22556W        W38365   0.334  10.029   2.222 -0.3167  0.4885 -0.2576
22557W        W38366   5.183  16.398  11.595 -0.2866  0.0399 -0.1795
22558W        W38367   0.008  12.884  16.346 -0.0558  0.2502  0.0455
22559W        W38368   9.086   0.005  11.741  0.0664 -0.0615 -0.1837
22560W        W38369   9.658  15.790   0.583 -0.2481 -0.1349 -0.0509
22561W        W38370   1.871   3.991  13.247 -0.1874  0.1394 -0.2232
22562W        W38371  14.424  11.226   1.124 -0.0828 -0.1827  0.3909
22563W        W38372   8.729   8.570  15.395 -0.0203 -0.2411 -0.1210
22564W        W38373   6.431  11.321   5.888 -0.0701 -0.0157  0.3777
22565W        W38374  17.216   9.826   0.384  0.0425  0.1165  0.1058
22566W        W38375  16.547   8.551  11.753 -0.0673 -0.2746  0.0047
22567W        W38376  15.085   7.126   4.056  0.0817  0.0876  0.1084
22568W        W38377   2.916  14.465  15.054  0.0443  0.3196 -0.3425
22569W        W38378   3.338   9.696  13.506  0.2938  0.2641 -0.1003
22570W        W38379   7.145  10.256   2.044  0.0794  0.1415 -0.0499
22571W        W38380   1.079  10.041  14.412  0.1803 -0.0625 -0.0584
22572W        W38381   2.546   0.098   5.449 -0.2964 -0.0319  0.1291
22573W        W38382   8.684   7.431  16.293 -0.2379  0.1587  0.0547
22574W        W38383   9.696  14.111   3.603 -0.5526 -0.0166  0.1779
22575W        W38384  17.399  10.297  15.691 -0.1717  0.0260  0.3031
22576W        W38385   4.243   1.075  14.400  0.2764  0.1315  0.0969
22577W        W38386   3.867  12.626  14.232  0.2211  0.0370  0.1248
22578W        W38387   5.163  14.284  16.842 -0.0645  0.2073  0.0912
22579W        W38388   4.304  17.133   2.516 -0.0975 -0.2091 -0.0521
22580W        W38389   4.714   9.807  12.734  0.0825 -0.0538 -0.0398
22581W        W38390   6.940  12.466  14.143 -0.0102 -0.3123  0.3017
22582W        W38391   2.371  10.805  14.577  0.0234  0.0022  0.0278
22583W        W38392   9.486  12.571   3.257  0.0143  0.1536 -0.0026
22584W        W38393  13.833   6.722  12.541 -0.1336 -0.0053 -0.2327
22585W        W38394   1.967  17.711   6.289  0.0615  0.2801  0.3218
22586W        W38395  11.654  11.354   2.616 -0.0287  0.3132 -0.0257
22587W        W38396  11.349  16.637  13.817  0.0305 -0.2886 -0.0606
22588W        W38397  11.081   0.477  13.357  0.0140  0.1181  0.0113
22589W        W38398  12.499  11.309   2.100  0.3354  0.0790 -0.1480
22590W        W38399   2.810  17.659   1.207  0.0591 -0.2587  0.0600
22591W        W38400   2.566  12.509   0.314 -0.0772  0.0761  0.1329
22592W        W38401  13.836  12.905   0.382  0.2784  0.0340 -0.0356
22593W        W38402   5.272  13.782  15.563 -0.1132 -0.1226  0.0566
22594W        W38403  12.547   4.729   3.588 -0.2081 -0.1568  0.1254
22595W        W38404   4.394   1.799  13.989  0.0275  0.1657 -0.0806
22596W        W38405   5.446   5.694   4.973 -0.0492  0.1796 -0.2088
22597W        W38406   5.343  10.627   1.147  0.2199 -0.4009 -0.1170
22598W        W38407  10.930  12.063   0.750 -0.1540 -0.0643 -0.2527
22599W        W38408   0.826  16.149  12.228  0.1268  0.1754 -0.0633
22600W        W38409  17.515   2.818  13.923  0.2094  0.1650 -0.0177
22601W        W38410  16.119  16.279   1.236  0.0829 -0.0902  0.0968
22602W        W38411  11.950  12.997   4.207 -0.3920  0.1028 -0.0453
22603W        W38412  16.267   2.803   2.401 -0.3341  0.2222 -0.3824
22604W        W38413   4.695  14.336   0.600  0.1321  0.0734 -0.1268
22605W        W38414   7.829   1.409  11.377 -0.0529  0.2005 -0.0764
22606W        W38415  10.632  11.241  11.604  0.1356 -0.0641 -0.1607
22607W        W38416  15.426  13.467   1.561 -0.0080  0.1420  0.1336
22608W        W38417   3.948   1.628  16.470 -0.1600 -0.4153  0.0803
22609W        W38418  14.883  16.243   5.073 -0.2047  0.2459 -0.0660
22610W        W38419  11.077  10.176   0.367 -0.1681  0.0477 -0.3270
22611W        W38420   3.516   4.549   2.734  0.2308 -0.1586 -0.3382
22612W        W38421   3.653   6.603   3.035 -0.0370  0.0820 -0.0258
22613W        W38422   4.908   7.014  11.598 -0.3058 -0.0697 -0.1050
22614W        W38423   7.872  10.836   0.612  0.2052 -0.0875  0.2771
22615W        W38424  16.378   6.797   4.941  0.0702 -0.0622 -0.1689
22616W        W38425   1.961   1.818  14.916 -0.0162 -0.1143  0.0931
22617W        W38426  16.688  11.436   5.743  0.2569  0.1618 -0.1538
22618W        W38427   6.401   8.833  14.820 -0.0470 -0.0453  0.0775
22619W        W38428   2.361  14.908   4.279  0.0951  0.4197 -0.0124
22620W        W38429   1.549   9.755   4.219  0.1525  0.2739  0.1100
22621W        W38430  13.270  10.040  13.652  0.0012  0.0890 -0.1446
22622W        W38431  13.311   2.146   3.159  0.4038  0.0326  0.0332
22623W        W38432  15.746   5.828   3.147 -0.0904  0.1610 -0.0474
22624W        W38433   8.768  15.459   3.186  0.1597 -0.3054 -0.1076
22625W        W38434  16.988   1.513   3.533  0.2003 -0.0481 -0.1667
22626W        W38435  13.800   2.946  14.630 -0.1267 -0.0874  0.1614
22627W        W38436   5.996   9.971  11.757  0.0586 -0.3831  0.1290
22628W        W38437   7.577   4.310  13.421  0.0438  0.2314  0.1133
22629W        W38438   6.036  10.446   2.649  0.0393 -0.1631 -0.2675
22630W        W38439   9.583   1.830  15.112  0.0364  0.0352  0.0297
22631W        W38440   3.065   0.549   1.866 -0.1344  0.1087 -0.1642
22632W        W38441   1.560  12.050   3.225  0.0462 -0.1662 -0.3399
22633W        W38442  13.863   6.110  13.342 -0.0378  0.0322  0.1208
22634W        W38443  14.144   7.205  15.272 -0.2063  0.1785  0.1345
22635W        W38444   0.457  13.902   5.105  0.2005 -0.1551 -0.1176
22636W        W38445   9.781   7.503   4.588  0.0316 -0.0252  0.0090
22637W        W38446  12.065  11.762  14.624  0.1460  0.1913  0.2979
22638W        W38447   0.369  17.431   1.130 -0.2416 -0.2665  0.0327
22639W        W38448  16.389   8.672  14.553 -0.0128 -0.1601 -0.3491
22640W        W38449   5.876  10.676   4.180  0.2583  0.0164  0.0265
22641W        W38450   0.812   0.739  15.715 -0.2020  0.2233 -0.1478
22642W        W38451  16.359  12.668  11.930 -0.1985  0.3644 -0.1672
22643W        W38452   4.501   5.011  16.200 -0.1009 -0.1141 -0.0174
22644W        W38453  10.900   1.628   3.626  0.2978  0.0422 -0.2956
22645W        W38454   2.202  14.572   3.406 -0.2134  0.1748  0.1101
22646W        W38455  10.881   7.335  16.505  0.0633 -0.0132  0.0498
22647W        W38456  11.594   0.118  16.671  0.3046  0.2803  0.0121
22648W        W38457  15.005  12.887   1.066  0.2092  0.2641  0.4521
22649W        W38458  11.563   3.440   2.350  0.0172  0.1352  0.0635
22650W        W38459   4.156  17.671  16.024 -0.1320  0.1009 -0.1472
22651W        W38460  12.692   1.065   0.679  0.2185  0.1509 -0.4394
22652W        W38461  10.514   6.576   0.482 -0.2893  0.1424  0.1090
22653W        W38462   4.528   9.761  16.144 -0.0829 -0.0767  0.1185
22654W        W38463   5.678   3.514  15.917 -0.1627  0.3139  0.0434
22655W        W38464  15.369   7.002  14.724  0.0215 -0.0507 -0.1236
22656W        W38465  13.437   0.695  15.179 -0.1164 -0.1774 -0.2421
22657W        W38466   6.635  16.707   3.806  0.0880  0.1284 -0.3554
22658W        W38467   2.407  16.293  15.718 -0.2164 -0.1405 -0.1293
22659W        W38468  17.493  13.894  13.468 -0.0188 -0.1634  0.1131
22660W        W38469   1.492  13.992   4.708  0.1895 -0.0299 -0.0824
22661W        W38470   2.846  11.018  13.553  0.1974  0.0350  0.0514
22662W        W38471   2.970  16.245  15.691  0.0567 -0.0069 -0.1251
22663W        W38472   4.961  11.458   0.680  0.2999 -0.1691  0.1991
22664W        W38473   3.296   1.013   2.989  0.0617 -0.4132 -0.0694
22665W        W38474   3.357   1.167  13.824  0.0117  0.3049  0.1683
22666W        W38475   6.666  13.081   2.034  0.1202 -0.1718  0.1376
22667W        W38476   5.291   2.675  15.116 -0.1077  0.1173  0.0703
22668W        W38477   8.074  17.434   4.997 -0.3015  0.3379  0.0080
22669W        W38478   9.817   3.456   3.002 -0.1093 -0.1943  0.0383
22670W        W38479   2.512  15.574  13.679  0.1350  0.2968  0.2122
22671W        W38480   2.137  17.064   3.870  0.4066 -0.2747  0.0244
22672W        W38481   5.319   7.570   1.278  0.0999  0.1084 -0.2107
22673W        W38482   8.095   3.232  14.575 -0.1485  0.0405  0.1101
22674W        W38483  16.076   8.161   0.760  0.0539  0.0530  0.1717
22675W        W38484   2.396   8.823   3.708 -0.1158  0.2621  0.1974
22676W        W38485   2.837   7.464   1.369 -0.0564 -0.1741 -0.1545
22677W        W38486   0.887   0.331   1.028 -0.1304  0.1348 -0.0108
22678W        W38487   1.927  11.759   0.807  0.1088  0.0989 -0.0808
22679W        W38488  12.382  12.662  13.873  0.0196  0.1217  0.0408
22680W        W38489  13.715  12.342  11.917  0.1208  0.0535  0.3716
22681W        W38490   3.010   5.333   5.095 -0.1068  0.0301 -0.0225
22682W        W38491  11.990   6.413   2.229  0.2621  0.0113 -0.1821
22683W        W38492   0.136  12.659   4.643 -0.2236  0.1536  0.1526
22684W        W38493  16.040  11.148   0.405 -0.2237 -0.0794  0.2220
22685W        W38494  15.179  14.519  13.137 -0.1540 -0.2064  0.3963
22686W        W38495   2.896  17.464   3.616 -0.0894  0.0465 -0.3281
22687W        W38496  13.230  15.560  12.623 -0.1410  0.1933 -0.0196
22688W        W38497   4.235   2.938   3.324  0.0655 -0.1079 -0.0937
22689W        W38498   2.046   4.189  11.875 -0.0913 -0.0020  0.0243
22690W        W38499   3.003   5.235  14.463 -0.0447  0.1450  0.1621
22691W        W38500  15.619   3.197  12.809 -0.1111  0.1247  0.1142
22692W        W38501   0.881  12.708   3.917 -0.0621  0.1941  0.2355
22693W        W38502   3.859  16.894   1.512  0.0566  0.1006 -0.2493
22694W        W38503  10.665  14.923  11.792  0.3517 -0.2657  0.0127
22695W        W38504   5.353  14.612  11.375  0.0679  0.0211  0.5509
22696W        W38505  15.401   3.397  15.885  0.3743 -0.0577 -0.2618
22697W        W38506   1.124  11.587  14.663  0.0962  0.1871  0.1682
22698W        W38507  17.647   7.718   2.085  0.0451 -0.1465 -0.2306
22699W        W38508   6.156   3.032   5.841 -0.3025 -0.0646  0.0857
22700W        W38509   7.323   1.956  13.757  0.1929 -0.0872 -0.2330
22701W        W38510   4.702   0.827   0.810 -0.0140  0.0495 -0.2292
22702W        W38511   7.674   6.119  12.555 -0.1429 -0.1321 -0.2137
22703W        W38512  14.072  17.438   1.512 -0.0274  0.1767  0.2655
22704W        W38513  11.176   7.630   1.824 -0.3065 -0.3243  0.0674
22705W        W38514   0.895  17.079  14.028 -0.1035  0.1363 -0.1214
22706W        W38515   1.038  11.143   1.931  0.0716  0.2168 -0.2611
22707W        W38516   0.212   5.584   3.687  0.1610 -0.0256  0.1498
22708W        W38517   4.773  14.190  14.625  0.0465 -0.2455 -0.1329
22709W        W38518  12.845  15.752  12.856 -0.0717 -0.1072  0.2496
22710W        W38519   3.321   3.516   4.448  0.1538  0.0840 -0.0855
22711W        W38520   2.816  15.235   4.921 -0.0228 -0.1439  0.0968
22712W        W38521   3.377  14.846   0.937 -0.1485 -0.0724 -0.3149
22713W        W38522   3.057   6.406   2.376  0.0151 -0.2382 -0.1153
22714W        W38523   7.934   2.153  16.035 -0.0410  0.0453  0.1292
22715W        W38524   5.069   0.088  14.405  0.2772 -0.2393  0.1321
22716W        W38525   6.865  11.474   3.987 -0.0430 -0.0617 -0.2994
22717W        W38526  10.575   8.597  13.067 -0.1073  0.1590 -0.2833
22718W        W38527   7.511  16.464   3.783 -0.0583  0.0589 -0.1276
22719W        W38528  16.299   1.736   3.829  0.0451 -0.1284 -0.2932
22720W        W38529  12.194  11.218  13.034 -0.0283  0.1575 -0.0536
22721W        W38530   4.446  16.416   5.392 -0.0787 -0.1643 -0.1259
22722W        W38531  17.205  14.068   1.297  0.1622 -0.1985 -0.3045
22723W        W38532  11.263   4.985   0.775 -0.0437  0.1076 -0.3416
22724W        W38533   1.915   0.394   4.909  0.2536 -0.1122  0.0694
22725W        W38534  13.677  17.081  14.853  0.1541 -0.0551  0.1768
22726W        W38535   9.334   4.094   4.616 -0.1813  0.1804 -0.2929
22727W        W38536   4.455   5.747   3.951  0.0747 -0.1993 -0.3300
22728W        W38537  12.934   5.758   3.698 -0.1160 -0.0674  0.1071
22729W        W38538   3.951   3.871  15.481 -0.1723 -0.3163 -0.2727
22730W        W38539   1.395   1.614  13.424  0.0590 -0.1934 -0.1246
22731W        W38540   8.030   0.554   3.510 -0.3882 -0.0028 -0.0677
22732W        W38541   3.520  13.680   2.348  0.0343  0.1378 -0.1738
22733W        W38542  10.742  11.699   5.417 -0.0574  0.3445  0.0262
22734W        W38543   8.248  12.944  16.389 -0.1340 -0.1620 -0.3260
22735W        W38544   0.108   3.237   5.321 -0.1231  0.1765 -0.1198
22736W        W38545   6.701   1.078  11.838  0.0744 -0.3346  0.1033
22737W        W38546   6.406  16.919  16.723  0.1010 -0.0163 -0.0030
22738W        W38547  10.638  12.647   0.589 -0.1744 -0.0778  0.2004
22739W        W38548  12.441   2.824   0.301 -0.1982  0.0099  0.2347
22740W        W38549  11.481   1.188   1.518  0.0512  0.1005 -0.1427
22741W        W38550   5.753  12.801  14.902  0.0698 -0.0178  0.2066
22742W        W38551  11.607  16.890  11.200  0.0952 -0.1655 -0.0823
22743W        W38552  11.173  16.414   1.323 -0.1443  0.0446  0.1567
22744W        W38553   0.909  16.466  15.366  0.1858  0.2695 -0.2365
22745W        W38554  14.858  15.461   0.614  0.0259  0.1564 -0.1178
22746W        W38555  11.283   7.060  15.049 -0.1577  0.4161 -0.2218
22747W        W38556  14.389   1.266   2.757  0.0423 -0.0197 -0.1742
22748W        W38557   8.388  11.108  16.538 -0.1919 -0.1616  0.1891
22749W        W38558   1.702  13.178   4.091  0.3239 -0.1100  0.0805
22750W        W38559  11.557   3.496  14.805 -0.1747 -0.1326 -0.1013
22751W        W38560  10.033   7.671  13.577  0.3828  0.0700  0.0724
22752W        W38561   6.345   2.233   5.195 -0.0938  0.4000  0.1108
22753W        W38562  13.068   0.060  14.712 -0.0886  0.2622  0.0512
22754W        W38563   7.120  13.589  12.192  0.0017  0.0885 -0.0439
22755W        W38564  13.750   5.111   2.693  0.1173  0.0948 -0.0276
22756W        W38565  13.101   1.245  14.844 -0.0484  0.2083  0.1691
22757W        W38566   6.612   9.649  14.486 -0.1567  0.1837  0.1963
22758W        W38567   2.031  12.371   4.540  0.0251  0.1801  0.2909
22759W        W38568   2.582  16.012  16.605 -0.0944 -0.0421 -0.0065
22760W        W38569   6.411   8.349  11.661  0.0908 -0.2220 -0.1421
22761W        W38570   9.599   7.901  14.530 -0.1715 -0.0584  0.1018
22762W        W38571   9.503   1.046   1.800 -0.0251 -0.1523  0.2387
22763W        W38572   3.691  11.478   0.790  0.0159  0.1883 -0.0698
22764W        W38573  16.135   4.211  13.643  0.1607 -0.1658 -0.0519
22765W        W38574   5.309   7.519  14.208  0.1834 -0.0061 -0.2127
22766W        W38575  15.823   2.263  15.240  0.0336 -0.2153 -0.0696
22767W        W38576   5.000  16.028  16.001 -0.5227 -0.0217  0.1774
22768W        W38577   7.406  14.490  11.814 -0.1154  0.2657 -0.2566
22769W        W38578   6.058  11.047  12.810  0.1595 -0.0471  0.0899
22770W        W38579   3.915   2.563   3.285 -0.0354 -0.0162  0.0809
22771W        W38580   6.042  13.306  16.188  0.0671  0.1214  0.0190
22772W        W38581  14.476  13.083  14.121  0.1240 -0.3478  0.2413
22773W        W38582  10.211  15.648   3.234  0.2775 -0.1460 -0.2397
22774W        W38583  17.584  12.802  15.208  0.1650  0.0272  0.0029
22775W        W38584  16.511   9.589   2.868 -0.0441  0.0067  0.4986
22776W        W38585  14.669  16.316   3.923  0.1904  0.0357  0.4286
22777W        W38586  16.362  15.991   1.645  0.0928  0.1912 -0.1594
22778W        W38587  12.384   1.768   5.832 -0.0244 -0.0069  0.0049
22779W        W38588  13.167  14.380  15.077 -0.1439 -0.0223 -0.2221
22780W        W38589  14.585   7.491  16.562 -0.1053  0.1610  0.0485
22781W        W38590   7.509   1.995  15.138 -0.0805 -0.4614  0.0073
22782W        W38591  13.914  13.070  14.242 -0.0136  0.1379 -0.1491
22783W        W38592   4.937   4.801   2.431 -0.2257 -0.0988  0.2182
22784W        W38593   3.247   7.168   5.418  0.0660 -0.1648  0.1363
22785W        W38594   6.016  13.923   2.547  0.0491 -0.0582 -0.3447
22786W        W38595  11.870   8.086   1.726  0.1446  0.1508 -0.0693
22787W        W38596   4.187   4.418   4.069 -0.2510 -0.0084  0.4521
22788W        W38597   1.899  13.406   5.434 -0.2239  0.2443 -0.1326
22789W        W38598   7.136   7.067  13.274 -0.1579 -0.1437  0.1046
22790W        W38599   0.373   4.266   2.458  0.0608 -0.3263 -0.2198
22791W        W38600  12.782   2.950  12.450  0.1490  0.0019  0.2326
22792W        W38601   7.475  10.002   4.695 -0.2520  0.0411 -0.2192
22793W        W38602   7.900  14.205   1.911  0.1755 -0.0492  0.0746
22794W        W38603   3.492   0.623  13.047  0.0077  0.1545 -0.0513
22795W        W38604   0.257   4.078  13.550 -0.0065  0.2242  0.1850
22796W        W38605  15.566   7.119   5.086 -0.0808  0.1476 -0.0063
22797W        W38606  13.978   8.223  15.466  0.0265  0.1780  0.2065
22798W        W38607   6.350   0.865   5.880  0.0664 -0.1499  0.0562
22799W        W38608  13.284   8.048  12.515 -0.2098  0.1430  0.0194
22800W        W38609   9.222  11.237  13.979  0.4173 -0.0633  0.2269
22801W        W38610  13.482   3.832   0.788 -0.0511 -0.0680 -0.1032
22802W        W38611  10.343  12.635  10.604 -0.2089 -0.2083  0.2587
22803W        W38612  10.677   6.545  13.867  0.0811 -0.2257 -0.1124
22804W        W38613   8.365  14.765   1.854 -0.4115 -0.0683 -0.2049
22805W        W38614  11.891  16.048  12.787 -0.0094 -0.0775 -0.1462
22806W        W38615  13.388   9.778  13.284 -0.4624  0.1603  0.0333
22807W        W38616   9.298  17.067  15.099 -0.1558  0.2241 -0.2422
22808W        W38617   8.987   3.823   0.480 -0.4770  0.1405  0.1615
22809W        W38618   3.641   8.378  14.066  0.0925  0.0165  0.1258
22810W        W38619   2.157  13.314  10.661 -0.0443  0.0306 -0.0152
22811W        W38620  16.222  12.368  12.937 -0.0156 -0.2042  0.0304
22812W        W38621   9.497  15.032   2.157  0.1001 -0.1187  0.2289
22813W        W38622   9.435   6.628   0.485  0.2280  0.0289  0.1810
22814W        W38623  15.975  14.165  11.661  0.3724  0.0639  0.1471
22815W        W38624   6.224  14.595  14.433 -0.2168  0.2155 -0.3282
22816W        W38625   7.021   1.670  15.944 -0.2093  0.1357 -0.1069
22817W        W38626  14.790  12.974  11.479 -0.0854 -0.1337 -0.0767
22818W        W38627   6.500   8.050   1.456 -0.1044 -0.0164  0.2524
22819W        W38628  14.550   0.517   4.015  0.2939  0.0810  0.3043
22820W        W38629  15.542   8.719   3.791  0.1386  0.0541  0.0117
22821W        W38630  12.041   4.732   0.331 -0.1686  0.1596 -0.1495
22822W        W38631   0.681   0.343  12.083  0.0197 -0.0634  0.1746
22823W        W38632   1.978   2.597  13.724 -0.0928 -0.0751  0.0256
22824W        W38633  14.201  17.241   5.140  0.2126 -0.0153  0.3483
22825W        W38634   9.158   8.866   1.954 -0.2629 -0.0756  0.2003
22826W        W38635  11.811  12.262   2.269 -0.0786 -0.4024  0.0513
22827W        W38636   2.275   1.830  13.665  0.0534  0.2259  0.1253
22828W        W38637   4.510   7.733  11.127  0.0412 -0.0859 -0.5350
22829W        W38638  10.134   9.415  12.708  0.0707 -0.0724 -0.1603
22830W        W38639   3.108   2.046   3.521  0.0439  0.0819  0.0560
22831W        W38640  14.737  10.504   3.012  0.4190 -0.0348  0.1917
22832W        W38641   2.455   7.670   1.795 -0.0227 -0.1128  0.2160
22833W        W38642  17.675  10.575   2.983 -0.0395  0.1989  0.0743
22834W        W38643  17.281   0.669  14.414 -0.3533 -0.2755  0.2045
22835W        W38644   9.246   1.748   2.928 -0.0254 -0.3018  0.1035
22836W        W38645  12.494   2.260   1.566 -0.0765 -0.0541 -0.1321
22837W        W38646  11.036   1.301  16.122  0.1650  0.0121  0.3263
22838W        W38647   2.529  12.572  14.840 -0.0984 -0.1587  0.0291
22839W        W38648   2.218   0.305   6.511 -0.1386  0.2089 -0.3857
22840W        W38649  13.739   4.937  14.965 -0.0019  0.1204 -0.1654
22841W        W38650   9.498  16.052   5.679 -0.0411  0.2277 -0.0171
22842W        W38651   0.267   4.469   2.006  0.2001  0.0508 -0.1996
22843W        W38652   6.320   0.392  16.198  0.2659  0.0796 -0.0802
22844W        W38653   0.749   7.857  16.014 -0.1574  0.0018 -0.0186
22845W        W38654   4.770  17.698   2.040  0.1039 -0.1058  0.1571
22846W        W38655   3.569  17.298  11.705 -0.0224 -0.0070  0.3359
22847W        W38656  16.036   7.088   4.239  0.1152 -0.0578  0.1622
22848W        W38657   9.606   3.191  15.765  0.1236 -0.3750 -0.0207
22849W        W38658   7.955  11.584   3.971 -0.2130 -0.1946  0.0844
22850W        W38659  10.989   3.439  16.661  0.0282  0.1532 -0.3332
22851W        W38660  14.973  10.651  16.829 -0.0939 -0.1479  0.1371
22852W        W38661   8.105   7.814   3.844 -0.1430 -0.2886  0.2260
22853W        W38662   2.139   7.948  12.074  0.2225  0.1137 -0.3260
22854W        W38663  15.807   6.913  16.747 -0.0629 -0.4135 -0.1180
22855W        W38664  14.860   9.771   1.894  0.0741  0.1920 -0.1924
22856W        W38665  10.129  16.939   3.276 -0.0698  0.3261 -0.0220
22857W        W38666   4.775   1.349   0.950  0.0558 -0.2149  0.0433
22858W        W38667   4.352   2.639  13.525 -0.0954  0.1460  0.0399
22859W        W38668   0.740   9.804  13.601  0.0319 -0.0737 -0.1588
22860W        W38669  12.813   1.287  15.563  0.3374  0.0214  0.0196
22861W        W38670  14.762   5.910  12.335  0.0294 -0.0170 -0.0181
22862W        W38671   3.098   5.878  16.757 -0.3303  0.3273 -0.0346
22863W        W38672  13.510  14.595   5.456 -0.4847  0.0339  0.1248
22864W        W38673   9.048   7.488   0.138  0.0125 -0.0873 -0.1528
22865W        W38674  15.222   0.780  13.877  0.2722 -0.0622 -0.1011
22866W        W38675   6.079   4.186   5.048 -0.0883 -0.1673 -0.0939
22867W        W38676   3.533   2.730   4.956  0.2766  0.1157  0.3052
22868W        W38677  16.456  13.921   4.407 -0.2093  0.1743 -0.2020
22869W        W38678   6.964   3.109   0.651 -0.0728  0.2223  0.1359
22870W        W38679   9.620   8.926  12.989 -0.1469  0.0678 -0.1803
22871W        W38680   5.711   8.841   1.194 -0.2435 -0.0051  0.4225
22872W        W38681   1.553   4.813  16.447 -0.2440 -0.1547 -0.0877
22873W        W38682   1.809  10.869   3.786 -0.1574  0.1492 -0.0560
22874W        W38683   5.747   1.192  13.255 -0.0123  0.0682  0.2242
22875W        W38684   8.458   6.210   4.257 -0.0345  0.1926 -0.0882
22876W        W38685  15.285  10.954   3.663  0.0985 -0.0742 -0.1604
22877W        W38686   8.265  12.073  10.854 -0.2315  0.1523 -0.1125
22878W        W38687  16.486  14.225   3.548  0.1817 -0.0599 -0.2699
22879W        W38688   9.818   4.352   4.380 -0.0798  0.1531 -0.3023
22880W        W38689   2.948   1.631  16.878  0.0963  0.3806  0.1609
22881W        W38690   6.478   1.864   0.615  0.3099 -0.1308 -0.0515
22882W        W38691  16.957   9.109  15.729  0.1036 -0.0378  0.2450
22883W        W38692  17.152  14.473   0.799 -0.1055  0.0176 -0.0467
22884W        W38693   9.363   7.843   4.325 -0.1161 -0.0571  0.0760
22885W        W38694   2.154   1.615  16.710 -0.1856  0.1747 -0.0044
22886W        W38695  15.152   4.452  11.138  0.1101  0.1923 -0.2155
22887W        W38696   8.243  16.009   3.635  0.2203  0.1086  0.0993
22888W        W38697   0.349  15.098   3.844  0.1537  0.0269 -0.2105
22889W        W38698   2.880  16.782   0.822 -0.0809  0.3219  0.3504
22890W        W38699  17.234   1.863  13.917  0.2176  0.1861  0.0847
22891W        W38700  15.250  16.256   0.465 -0.0655 -0.0266 -0.1202
22892W        W38701  17.045  16.657   2.019 -0.2135  0.0819  0.0109
22893W        W38702   0.605   8.331  16.175 -0.3038 -0.1341 -0.0156
22894W        W38703   7.213  15.307   0.979 -0.0577  0.2725 -0.0018
22895W        W38704   9.808  10.513   4.477  0.0513 -0.1552 -0.2352
22896W        W38705  16.764   4.110   2.014 -0.0732  0.1564 -0.1630
22897W        W38706  17.158   7.749  15.710  0.5500  0.2919 -0.2554
22898W        W38707   5.455  17.004  15.113  0.0219 -0.0774  0.3157
22899W        W38708   8.001  13.041  11.642 -0.2765  0.1057 -0.0281
22900W        W38709  15.326   0.859  15.142  0.0208  0.1298 -0.3148
22901W        W38710   3.844  11.660  11.811  0.1858 -0.2181 -0.2126
22902W        W38711   3.612   6.089  16.379 -0.2543 -0.3270 -0.0949
22903W        W38712   8.679  11.745   2.294 -0.0694 -0.1323  0.1298
22904W        W38713   2.349   1.514  16.199  0.0841  0.2623 -0.0334
22905W        W38714   5.895   2.751  14.275  0.1183  0.1772 -0.1271
22906W        W38715  10.149  17.218  14.492 -0.0588 -0.1783  0.2679
22907W        W38716   1.331   4.072  14.833 -0.0551  0.0652 -0.2302
22908W        W38717   0.321   0.052  13.230  0.1493 -0.0806 -0.2126
22909W        W38718   5.628   0.309  15.495 -0.0257  0.0183  0.0365
22910W        W38719  10.830   5.812   2.484  0.0447 -0.1227  0.0609
22911W        W38720   2.355   6.402  12.926 -0.3255 -0.2592  0.2688
22912W        W38721  10.365   6.189   3.164 -0.0541  0.0353  0.3060
22913W        W38722  13.963  15.156   4.870  0.1416 -0.0607 -0.1402
22914W        W38723  16.828  11.363  15.788  0.1351  0.1381 -0.0236
22915W        W38724   3.452   3.964  12.052 -0.0164  0.1930  0.3632
22916W        W38725   4.662  12.544  11.387 -0.0194  0.0634 -0.2999
22917W        W38726   6.642  17.710   2.871 -0.1131  0.2468 -0.0736
22918W        W38727  17.399   4.139  10.928 -0.2677 -0.3029 -0.1306
22919W        W38728   0.245  14.774  15.935 -0.0295 -0.0106  0.1884
22920W        W38729   3.537  15.156   2.178  0.1331  0.2469 -0.0962
22921W        W38730  14.978   8.645  15.419 -0.0054 -0.1055  0.2052
22922W        W38731  17.479  15.776  16.512  0.0970  0.1736  0.0859
22923W        W38732   8.919   4.997   2.131  0.1047  0.3993 -0.1241
22924W        W38733   4.055  15.777   2.154  0.1652  0.0370  0.0023
22925W        W38734  13.450   6.439   2.878 -0.0225 -0.0954 -0.1922
22926W        W38735   4.131   9.439  15.228 -0.1211 -0.1609 -0.0195
22927W        W38736  10.832  11.960   3.282 -0.0140 -0.2010 -0.1934
22928W        W38737  10.241  14.748  14.255  0.2358 -0.1048  0.2157
22929W        W38738  17.070  11.743  14.408 -0.2229 -0.2514 -0.3955
22930W        W38739   2.415   8.464   3.119 -0.3434 -0.0536  0.0438
22931W        W38740   2.098   7.727  15.770  0.2752 -0.0036  0.0683
22932W        W38741   2.277  16.569  13.367 -0.1818 -0.1023  0.2336
22933W        W38742  17.520  16.450   0.697  0.1654 -0.2586  0.2137
22934W        W38743   2.291  10.881   3.486 -0.0104 -0.1246  0.0288
22935W        W38744   4.938  15.437   1.723  0.1647  0.0474 -0.0902
22936W        W38745   7.074   9.223   1.822 -0.1604 -0.1464 -0.0422
22937W        W38746  14.472  13.430  15.034  0.0376  0.0007  0.0159
22938W        W38747  11.022   0.590  15.122 -0.0616 -0.3235 -0.2824
22939W        W38748   9.859  16.087  15.299  0.0368 -0.2696  0.1738
22940W        W38749   4.754  14.627   1.527 -0.2148  0.1090 -0.0384
22941W        W38750   7.218  16.090  12.416  0.0138 -0.1276 -0.3183
22942W        W38751   6.791   8.105   4.650  0.1916 -0.3606  0.2231
22943W        W38752  12.692   5.601   5.208  0.0249  0.0204  0.1733
22944W        W38753   0.946   7.925   4.274  0.3257 -0.1342  0.0468
22945W        W38754  17.396  14.241   3.886  0.1704 -0.2273 -0.1270
22946W        W38755  17.211   6.450   1.786  0.0911  0.1771 -0.0258
22947W        W38756   6.869   6.294  12.605  0.0135  0.0881  0.1291
22948W        W38757  14.177   5.555  16.857 -0.3022 -0.1398 -0.0299
22949W        W38758   0.870  16.767  11.472  0.1568  0.1055 -0.1924
22950W        W38759  14.746  11.210  12.664  0.0092 -0.0087  0.2157
22951W        W38760  15.595   5.004   0.905  0.0232  0.1718  0.1058
22952W        W38761  13.920   1.570   1.579 -0.1467  0.1081 -0.1746
22953W        W38762   2.200   7.934   4.589  0.1401 -0.0531 -0.0397
22954W        W38763   0.390  14.655  11.849 -0.2465  0.2617 -0.1038
22955W        W38764  11.730   1.630  11.837 -0.3298 -0.3957  0.2678
22956W        W38765   7.193   3.489   1.294 -0.0397 -0.0813 -0.1247
22957W        W38766   1.665   7.546   3.750 -0.0403  0.0999  0.0705
22958W        W38767  16.159  10.004  14.997  0.0330  0.0102  0.2290
22959W        W38768   6.096   5.920  13.480 -0.1261 -0.2639 -0.3222
22960W        W38769  11.368  14.029  15.032  0.1893  0.2701  0.1351
22961W        W38770   3.696   7.217   5.674 -0.1963 -0.0688 -0.1281
22962W        W38771   6.444  13.899   4.023  0.0816  0.0583 -0.0392
22963W        W38772   1.842  16.185  16.122  0.0739 -0.0493 -0.1044
22964W        W38773  11.542   7.392   2.912  0.0125 -0.4580 -0.1062
22965W        W38774   5.132   7.313  13.366 -0.1009 -0.2083  0.0888
22966W        W38775   1.478   5.324   4.221  0.0231  0.0768  0.1403
22967W        W38776   4.080   4.942  16.574  0.0931 -0.1024 -0.0439
22968W        W38777   1.929  17.176   1.305  0.1019  0.0945  0.0032
22969W        W38778  14.022   8.983  11.614 -0.0100  0.2595  0.1410
22970W        W38779  14.187  17.196  15.816 -0.2938  0.0433  0.1519
22971W        W38780   4.191   4.315   2.091  0.0364  0.0662  0.0955
22972W        W38781   0.195   8.230  16.933  0.1475 -0.0282 -0.0142
22973W        W38782  15.233  14.077   1.592  0.1739  0.0199 -0.1270
22974W        W38783  11.515   6.139  16.772 -0.2969  0.2451  0.0210
22975W        W38784  15.739   5.953   4.273  0.1731  0.2239 -0.0641
22976W        W38785   8.826  14.283   2.200 -0.1059 -0.2847  0.0453
22977W        W38786  10.762   7.839   3.487 -0.3190  0.1545 -0.1537
22978W        W38787   5.948  12.506   2.292  0.3594  0.1283 -0.1008
22979W        W38788  10.702  11.347  15.619  0.1603 -0.1191 -0.0706
22980W        W38789  13.994  10.984   3.079  0.1884 -0.0762 -0.1262
22981W        W38790  17.705   6.750   5.042 -0.0220  0.0734 -0.2232
22982W        W38791   7.874  13.494  15.558  0.0235  0.1782  0.0791
22983W        W38792   4.151  14.230  13.425 -0.0573 -0.1370 -0.1362
22984W        W38793   1.741   2.539   5.272  0.1282  0.0432  0.1889
22985W        W38794   9.604   4.542   3.024 -0.2647 -0.0313  0.3224
22986W        W38795   9.605   8.276  15.081  0.5564  0.0199 -0.0217
22987W        W38796  14.997   1.090  14.264  0.1619 -0.0701  0.1328
22988W        W38797   0.062  12.915   2.190 -0.2340  0.0582  0.1007
22989W        W38798   9.417   3.761  15.226  0.2896  0.1631 -0.1651
22990W        W38799  13.462  16.533   2.419 -0.0200  0.1458  0.1408
22991W        W38800   8.923   2.104  15.849 -0.0136  0.2442 -0.3781
22992W        W38801   4.219  10.402  12.266  0.1690  0.0090 -0.1725
22993W        W38802  11.512   6.520  16.407  0.0043  0.1737 -0.1847
22994W        W38803  10.876   3.930   1.526  0.0915 -0.0011  0.2448
22995W        W38804  14.584   2.125  14.842  0.2628  0.1963 -0.3558
22996W        W38805  13.140  15.005  13.373 -0.0062  0.1540  0.3630
22997W        W38806  17.167   6.744   3.842  0.2004 -0.2441  0.0621
22998W        W38807  13.305   7.763   4.256  0.1831  0.2489  0.0368
22999W        W38808  16.318   2.265  15.894 -0.0484 -0.2083  0.0564
23000W        W38809   0.590  11.570   2.767 -0.2119 -0.0617 -0.0545
23001W        W38810   5.617  14.872  11.768  0.0324  0.1012  0.0419
23002W        W38811   4.965   2.188   2.402 -0.2254 -0.4798 -0.1248
23003W        W38812   3.495   8.803   3.660 -0.0846 -0.0339 -0.2010
23004W        W38813  16.834  13.913   2.546  0.4056 -0.0207  0.1832
23005W        W38814   1.554  15.733  15.597 -0.0667 -0.2275  0.1502
23006W        W38815  10.867  14.909  10.857 -0.0317 -0.1114  0.1901
23007W        W38816   9.369  14.523  12.224 -0.0719 -0.0654  0.1857
23008W        W38817  14.479  14.307   1.592  0.1044 -0.0822 -0.2111
23009W        W38818   1.669   0.083   5.777 -0.2481 -0.0763 -0.0832
23010W        W38819  13.815   5.347   3.176  0.2172 -0.1106 -0.2414
23011W        W38820  12.963  10.374  14.007  0.1254 -0.2254  0.1332
23012W        W38821  15.633   9.785  15.066 -0.0699  0.0055 -0.2936
23013W        W38822   9.238   7.257  13.725 -0.1910  0.0589 -0.0550
23014W        W38823  14.093   1.938   3.674  0.0639 -0.1421 -0.3337
23015W        W38824   2.748  17.395   0.173  0.0660 -0.1783 -0.0735
23016W        W38825  15.769  11.630   3.291 -0.2599  0.1145 -0.1325
23017W        W38826   7.747   6.820  15.576 -0.1520  0.1702  0.1361
23018W        W38827   6.623   5.616  16.060  0.1428 -0.0322 -0.2547
23019W        W38828  17.055  13.628  15.367 -0.1840 -0.3189  0.2173
23020W        W38829   2.873   3.340  14.809  0.0123  0.1463  0.1912
23021W        W38830   4.683   3.936  11.742 -0.1399 -0.1364 -0.1052
23022W        W38831   7.957   1.910  11.702  0.0268  0.3545 -0.2493
23023W        W38832   7.207   9.796   3.873  0.0797 -0.1681  0.0837
23024W        W38833   4.015  10.803   3.105 -0.0268 -0.0336 -0.0902
23025W        W38834   7.464   7.352   0.069 -0.1059  0.2829 -0.1220
23026W        W38835   8.030  11.330   0.728 -0.0357 -0.0647  0.0068
23027W        W38836  13.722   8.681   5.285  0.1746 -0.0288  0.0108
23028W        W38837  17.313  15.097  12.020 -0.0426 -0.1311 -0.2124
23029W        W38838   7.895   4.786  13.481 -0.2008  0.2190 -0.1951
23030W        W38839  16.157  15.259   4.115 -0.0972 -0.1547 -0.0154
23031W        W38840  10.156   7.110   4.613  0.1969 -0.4637 -0.0579
23032W        W38841  16.878   9.622   4.182  0.0520  0.0200 -0.2214
23033W        W38842   9.842  11.800  13.770  0.0034  0.0034 -0.1688
23034W        W38843   6.015   5.797   1.507  0.1440  0.1502  0.0863
23035W        W38844   5.166   5.479  12.936 -0.0042 -0.0222 -0.0369
23036W        W38845  11.151  14.236  13.742 -0.0966 -0.4758 -0.3762
23037W        W38846   8.045   6.500  16.904  0.1683  0.3345  0.0380
23038W        W38847   3.138   7.256   0.278 -0.1722  0.1808  0.2334
23039W        W38848  10.999   5.766   1.463  0.1655 -0.1579  0.3052
23040W        W38849   4.767  16.379   5.784  0.0790 -0.0604  0.1112
23041W        W38850   7.793   3.740  12.644 -0.1013 -0.0860 -0.2582
23042W        W38851  11.440  14.439  16.795  0.0848 -0.0740 -0.2076
23043W        W38852   1.395   7.707  12.811 -0.2192 -0.1099  0.1101
23044W        W38853   0.536   2.485  14.948  0.1326  0.2383 -0.1636
23045W        W38854  17.490   2.828   1.191  0.1734  0.1449 -0.0452
23046W        W38855  16.583   9.609  13.106 -0.0551  0.1675  0.1341
23047W        W38856  15.491   7.649   3.724 -0.0577  0.1088 -0.1206
23048W        W38857   2.329  10.645  11.947  0.1638 -0.1320 -0.1308
23049W        W38858   1.665   9.012   2.982 -0.0666 -0.0129  0.1020
23050W        W38859   2.647  11.900  11.823  0.0058 -0.3012 -0.3148
23051W        W38860  11.614   9.070  14.051  0.3484 -0.0445 -0.0774
23052W        W38861  10.621  14.144   0.189 -0.1987  0.0396 -0.1084
23053W        W38862   5.621  10.700  12.138 -0.2088  0.1225  0.2540
23054W        W38863   3.465   9.335   3.564 -0.0978  0.1977  0.2728
23055W        W38864   8.688   1.684  12.868  0.1140  0.3212 -0.0694
23056W        W38865  12.764   9.640   5.579  0.1087  0.0517 -0.1777
23057W        W38866   9.205  12.879  13.825 -0.2650  0.3763 -0.2738
23058W        W38867  13.598   0.149   4.415  0.0069  0.0218  0.0538
23059W        W38868   2.934   3.890   5.567  0.1724 -0.1851 -0.0277
23060W        W38869   1.384   5.818  16.312 -0.1866 -0.0226  0.2036
23061W        W38870   0.316  16.221  12.197 -0.2011  0.2713  0.3598
23062W        W38871  13.982   1.493  14.763 -0.0337 -0.1090  0.0718
23063W        W38872   8.627  10.063   1.812 -0.3247 -0.0377 -0.1568
23064W        W38873  15.973  13.210   0.794  0.0618 -0.3716  0.3064
23065W        W38874   0.725  11.770   3.748 -0.0409  0.0296  0.1330
23066W        W38875  16.168   5.388  12.817  0.0980 -0.1787  0.2511
23067W        W38876   1.284   6.317   1.538 -0.1759 -0.0573 -0.2048
23068W        W38877   7.149   3.042   4.065 -0.0120 -0.0443 -0.0172
23069W        W38878  13.825   5.029   2.196  0.1578  0.0812  0.1086
23070W        W38879   3.933   5.049   2.830 -0.1959 -0.0090  0.0277
23071W        W38880   6.329  13.007   0.898  0.0859 -0.2201 -0.4225
23072W        W38881   4.253  16.030   1.817  0.0969 -0.2507  0.1385
23073W        W38882  10.578  14.234   1.078  0.2482  0.0005 -0.3655
23074W        W38883  12.100  15.389   4.838  0.0471 -0.1539 -0.2140
23075W        W38884  10.233   6.386  12.971 -0.1918 -0.0871  0.0160
23076W        W38885   1.714   9.696  13.161 -0.1064  0.1981 -0.0107
23077W        W38886  11.306   4.472  12.069 -0.2387  0.0126  0.1520
23078W        W38887   6.288   1.276  13.162  0.0388 -0.0392  0.0780
23079W        W38888   2.209   3.425  12.979 -0.3846 -0.0433  0.0041
23080W        W38889   6.228  10.718  11.428  0.0007  0.1080  0.1678
23081W        W38890   6.553  12.675  14.503 -0.2630 -0.1518 -0.1466
23082W        W38891   2.068   1.144  13.311 -0.1081  0.0176  0.0563
23083W        W38892   6.347  12.090   4.246  0.4514 -0.0401 -0.2705
23084W        W38893  13.624  17.274  15.839  0.1956 -0.1232  0.0894
23085W        W38894  10.087  12.772   2.161 -0.0204 -0.2186  0.2655
23086W        W38895  10.742   2.866   1.393 -0.2002 -0.0739 -0.1643
23087W        W38896  13.329   5.730  14.004 -0.1668 -0.1800  0.3072
23088W        W38897  15.739  14.632  14.253  0.0428 -0.1852  0.1128
23089W        W38898   7.036   8.724   0.394  0.0453 -0.3202  0.0312
23090W        W38899  12.830   7.726  12.359 -0.2200  0.0818  0.2801
23091W        W38900  16.718   6.426   5.037 -0.3743 -0.0086  0.2033
23092W        W38901   8.773  15.484  11.997  0.1652 -0.1293 -0.1449
23093W        W38902   3.787   5.049   0.415 -0.2490  0.1185 -0.0592
23094W        W38903  13.479   5.915   5.666 -0.1043 -0.0615  0.1471
23095W        W38904   8.840  16.525  11.058 -0.1505  0.0584 -0.1104
23096W        W38905   8.057   1.499  15.847 -0.3319  0.0934  0.1345
23097W        W38906   2.953  13.048  12.668 -0.2406 -0.0356 -0.3163
23098W        W38907   2.234   2.317  15.191 -0.0991  0.1320  0.2707
23099W        W38908   6.556  11.810  11.950 -0.2477  0.0360 -0.0480
23100W        W38909   4.092  11.027   2.631  0.1855 -0.2456  0.3394
23101W        W38910  10.030  17.286  15.856  0.0839 -0.0731 -0.2252
23102W        W38911   7.354  13.720   2.470 -0.1182 -0.0115  0.0478
23103W        W38912  12.551  16.456   0.073  0.3899  0.1734  0.0405
23104W        W38913   0.618   4.449   1.185  0.0794  0.1718 -0.0386
23105W        W38914   3.897   0.160  12.917 -0.0888  0.1324  0.1574
23106W        W38915   7.300   2.967  15.680  0.0357 -0.2620 -0.2852
23107W        W38916  13.909   1.995  12.182 -0.1570 -0.1086 -0.1096
23108W        W38917  14.203   7.665  16.261 -0.3201 -0.0818 -0.6090
23109W        W38918  11.319   3.302   0.021  0.2600 -0.1685  0.1833
23110W        W38919   1.726   5.347   3.628 -0.0900  0.0108 -0.3584
23111W        W38920   8.562   2.514   3.189  0.0982 -0.1194  0.1394
23112W        W38921  10.126   2.453  11.864 -0.1766 -0.1663 -0.2406
23113W        W38922  10.803  16.312   4.659  0.0228  0.0027  0.1254
23114W        W38923   3.479  15.296  10.595  0.1106 -0.1586  0.1771
23115W        W38924   3.728   4.398   3.440 -0.5781  0.1991 -0.0986
23116W        W38925   4.948  11.879   1.242 -0.1249  0.2856  0.1308
23117W        W38926   6.760   7.438   1.467  0.1504  0.1490 -0.1748
23118W        W38927   8.594   6.930   5.768 -0.0440 -0.2147  0.1211
23119W        W38928   6.033  14.470   0.445  0.2062 -0.1332 -0.1414
23120W        W38929   4.430  11.856   3.673 -0.2820 -0.1954  0.0645
23121W        W38930  13.622  11.874   3.242  0.0020 -0.2850 -0.0234
23122W        W38931   2.938  11.243  16.154  0.1769 -0.0971 -0.2752
23123W        W38932  15.336   3.094   4.417  0.1594  0.2692  0.1368
23124W        W38933   7.825   2.170  13.564  0.3729  0.0988  0.0689
23125W        W38934  15.744   0.962   5.605 -0.0621 -0.1648 -0.1150
23126W        W38935   6.040   0.212   0.728 -0.1241  0.1031 -0.1158
23127W        W38936   5.594   9.040   5.241  0.2165 -0.0778  0.1553
23128W        W38937   4.555  12.809  14.864 -0.0404  0.2111 -0.0168
23129W        W38938  10.222   2.301  15.797 -0.1075  0.2202 -0.1678
23130W        W38939  14.758  14.292   3.237 -0.0701 -0.3750  0.0052
23131W        W38940  17.098  12.159  15.511  0.0496 -0.1826 -0.1505
23132W        W38941   2.505   0.409   4.100 -0.1062 -0.0812 -0.1789
23133W        W38942   7.406  15.579  14.193 -0.2433 -0.1134  0.0174
23134W        W38943   3.798   2.802  14.320  0.0555  0.0376  0.3008
23135W        W38944  17.255   2.019   0.796 -0.1379  0.0164  0.0243
23136W        W38945   5.527  10.794   2.613 -0.2760  0.1293  0.0718
23137W        W38946   3.329  15.449  13.648  0.2038 -0.1217  0.2326
23138W        W38947   9.381   4.080   0.339  0.0907  0.0168 -0.4258
23139W        W38948   8.835   3.896  14.561 -0.0121  0.1712  0.0960
23140W        W38949   0.957   8.873   1.728  0.0975  0.2858 -0.0320
23141W        W38950   3.729   9.709   3.347  0.2370 -0.0995  0.3657
23142W        W38951   5.111   5.513  12.194 -0.0232  0.1244 -0.0073
23143W        W38952   5.594  16.849  13.415  0.2382  0.2716 -0.1884
23144W        W38953   4.037  13.608   1.011 -0.0063 -0.0325 -0.2071
23145W        W38954   7.792  12.750  15.887  0.2362 -0.1267 -0.1104
23146W        W38955   1.649   0.766   1.580 -0.0109 -0.1281  0.0901
23147W        W38956   7.406   3.954   3.489  0.1105 -0.1952 -0.0766
23148W        W38957  12.462   9.733  14.241 -0.0885  0.0067  0.0194
23149W        W38958  14.424   2.130   0.755 -0.0104  0.3429  0.0792
23150W        W38959  15.186  14.676  14.079 -0.0862 -0.0525 -0.2836
23151W        W38960   2.770  10.693   3.644 -0.1891  0.0299  0.2522
23152W        W38961   1.150  13.144   3.833  0.4043 -0.2484 -0.2470
23153W        W38962   6.073   0.415   0.137 -0.1442  0.1146 -0.0659
23154W        W38963  14.658  17.401  13.408  0.1036  0.2832  0.1895
23155W        W38964  11.899   4.097   1.539 -0.3381  0.0906  0.0938
23156W        W38965   0.160   0.889   5.028  0.4243 -0.0774 -0.0483
23157W        W38966  14.231   9.627   4.184 -0.1059 -0.2004 -0.1642
23158W        W38967  11.135  15.136   3.458 -0.1994 -0.1308 -0.0159
23159W        W38968  11.878  12.753   2.026  0.4014 -0.1421 -0.0269
23160W        W38969  11.566   7.102   1.029  0.0654  0.0889  0.0602
23161W        W38970  11.197   9.196  13.536 -0.0363  0.1615  0.0467
23162W        W38971   6.794   0.618   5.883 -0.1597  0.1781 -0.1327
23163W        W38972  16.830   4.173  14.994 -0.0227  0.2612 -0.2647
23164W        W38973   4.518   9.254  16.816 -0.1739  0.0714 -0.1354
23165W        W38974   6.226   9.378  14.658  0.1951 -0.0746 -0.2321
23166W        W38975   9.504   8.861   0.489 -0.1527 -0.1260  0.0895
23167W        W38976  11.225  10.715   3.044 -0.2754  0.1286 -0.1915
23168W        W38977   8.330   0.234   4.440  0.0090  0.0903 -0.0768
23169W        W38978   8.724  12.681   4.696  0.3550  0.2872  0.1013
23170W        W38979   6.382  12.956  11.874  0.2842 -0.1489 -0.1224
23171W        W38980  15.780   4.483   0.924  0.4441  0.0154  0.4117
23172W        W38981   0.151  11.897   1.277 -0.0966  0.0762  0.3349
23173W        W38982  12.186  12.429   1.334 -0.1357 -0.0851 -0.2486
23174W        W38983  16.803  11.513   0.786  0.1556  0.2475 -0.0285
23175W        W38984   6.471   6.449  13.389  0.1077  0.0685  0.0903
23176W        W38985  13.774   8.441   3.758  0.1213 -0.0597  0.2036
23177W        W38986   8.839  14.826   4.795 -0.0138  0.3713  0.0153
23178W        W38987   1.865   1.656  13.511  0.1383  0.0768 -0.0242
23179W        W38988  13.258  14.811   2.085  0.0236 -0.0939 -0.1373
23180W        W38989  17.390   3.173  11.182  0.0531  0.2347 -0.0084
23181W        W38990   9.228  11.088   1.788  0.0244 -0.2396  0.2552
23182W        W38991   4.891  14.553  16.137 -0.5943  0.0167  0.0429
23183W        W38992   1.791  13.111  14.475  0.0477  0.1641 -0.3033
23184W        W38993  13.394   0.364  11.576 -0.4470  0.0099 -0.1074
23185W        W38994  10.679   7.768   0.790 -0.3485 -0.0524  0.1524
23186W        W38995  15.014   4.635   4.248  0.1017  0.1719  0.2601
23187W        W38996  16.806  13.428  11.625 -0.0755 -0.2150 -0.1298
23188W        W38997   5.440  12.356  13.866  0.1874 -0.0141  0.1002
23189W        W38998  13.035  15.909  13.525  0.1676 -0.1250  0.1492
23190W        W38999   8.365   9.770  11.459  0.2291  0.2764 -0.3137
23191W        W39000  10.847  12.850   3.185  0.1263 -0.4231  0.0130
23192W        W39001   7.402   9.671  16.119  0.1503  0.3166  0.0888
23193W        W39002   0.695  13.553  16.548  0.1576 -0.4713  0.2095
23194W        W39003   8.293   5.276   4.772 -0.2212 -0.3766 -0.1941
23195W        W39004  16.898   4.547  14.742  0.1682  0.2265  0.0184
23196W        W39005  11.876   9.743   2.622 -0.1540 -0.0087  0.1018
23197W        W39006   7.472   9.563   5.377  0.1536 -0.1370 -0.1646
23198W        W39007   5.295  12.447   3.192 -0.1888  0.0013  0.0805
23199W        W39008   4.372  10.720   1.409  0.1717 -0.0027 -0.2364
23200W        W39009   1.178   7.798   1.208  0.1448  0.1682 -0.2368
23201W        W39010   9.972  15.735   1.443  0.1743  0.1440 -0.3352
23202W        W39011   4.107  15.062   3.333  0.2715  0.0811  0.1549
23203W        W39012   3.549  11.667   3.189 -0.1634  0.0480  0.0866
23204W        W39013  10.816  13.627   1.821 -0.1832  0.1149 -0.0330
23205W        W39014   9.647   0.837  12.890 -0.1264 -0.2231 -0.2771
23206W        W39015  17.547   6.787  12.648  0.0212 -0.2599  0.1768
23207W        W39016  17.548  12.098  11.894 -0.2368 -0.1784 -0.1468
23208W        W39017  14.010  11.387   4.001  0.1538  0.3052 -0.1206
23209W        W39018   3.574  15.396   4.185  0.0418  0.2203 -0.0132
23210W        W39019  14.810   8.389   4.701 -0.1387 -0.0165  0.0739
23211W        W39020  13.533   9.834   1.759  0.0193 -0.1104  0.2555
23212W        W39021  12.563  13.222  14.797 -0.0439 -0.1858 -0.3085
23213W        W39022   5.697  15.575   0.639 -0.0284 -0.1300  0.2200
23214W        W39023   9.424   7.878  14.098  0.1793  0.1195  0.0905
23215W        W39024  13.704  11.727  14.773  0.2088  0.3091  0.3404
23216W        W39025  17.022   7.982   1.927 -0.0464 -0.1515 -0.2979
23217W        W39026  16.702   7.164   3.539 -0.0011 -0.0268 -0.0744
23218W        W39027   8.507  17.413  11.867 -0.0683  0.1839  0.1174
23219W        W39028   3.422  10.944  13.119  0.1579 -0.0424  0.2316
23220W        W39029   4.529   5.204  16.846 -0.1213 -0.1762 -0.1026
23221W        W39030  12.549  15.975   0.463 -0.2102  0.0816 -0.1407
23222W        W39031  15.431   8.215   3.131 -0.0572  0.0245  0.0811
23223W        W39032   8.860   0.940  12.318 -0.0542  0.0075 -0.2823
23224W        W39033  10.668  13.212   0.175  0.1159  0.2931 -0.3701
23225W        W39034  10.668   3.185   6.177  0.0436  0.0268 -0.1617
23226W        W39035  16.636   9.820  13.594 -0.0706 -0.0619  0.0067
23227W        W39036   3.270   4.557   3.416  0.0335 -0.1059  0.4701
23228W        W39037  16.185   6.877  13.395  0.0324 -0.1569 -0.2766
23229W        W39038   1.497  15.207  15.078  0.0360  0.0564  0.0681
23230W        W39039   4.551   3.579   0.861  0.1223 -0.1941 -0.2153
23231W        W39040   6.692   6.942  16.441  0.0634  0.0483 -0.0733
23232W        W39041   1.622  16.056   5.640 -0.1617 -0.0192 -0.2113
23233W        W39042  11.550  15.311  14.571  0.0697  0.1431 -0.0495
23234W        W39043  13.091  17.370   2.032  0.0466 -0.1608 -0.0341
23235W        W39044   6.902   3.973   3.468  0.0719  0.1535  0.2307
23236W        W39045   4.000   9.076  11.779  0.0397 -0.1385  0.0636
23237W        W39046  16.307   7.619   2.611  0.3055 -0.2995  0.2454
23238W        W39047   1.842  13.121  13.582 -0.1203  0.1296 -0.1840
23239W        W39048  11.267  16.130  15.682 -0.1913  0.0697  0.3566
23240W        W39049   9.965  13.900  12.440  0.2138 -0.1334  0.1774
23241W        W39050   9.895   7.271   4.140  0.0153 -0.1908  0.3089
23242W        W39051  17.379   5.152  13.531 -0.2029  0.2161 -0.0585
23243W        W39052   1.985   7.106   5.032  0.3594  0.0170 -0.2925
23244W        W39053  12.079   9.446   5.705  0.1365  0.2623 -0.1310
23245W        W39054  16.696   7.086  14.535  0.2477  0.2298  0.2643
23246W        W39055   1.823  15.238  11.472  0.1935 -0.1822  0.2450
23247W        W39056   7.009  10.779  16.150  0.0621 -0.1909 -0.2568
23248W        W39057  15.970   4.224  15.512  0.0893  0.1052 -0.2985
23249W        W39058  14.843   6.629   4.860 -0.2557  0.4630 -0.3952
23250W        W39059  16.151  12.786  16.583 -0.0609 -0.0342  0.1976
23251W        W39060  14.469  11.279   2.196  0.0459  0.0358 -0.0763
23252W        W39061  16.373  13.490   0.820 -0.0156 -0.0313 -0.0734
23253W        W39062  17.547   2.691   5.351  0.1195 -0.1076 -0.1011
23254W        W39063   6.496  15.774   0.566 -0.0267  0.1370 -0.0073
23255W        W39064   4.066  10.473   4.446  0.0262 -0.0720  0.0494
23256W        W39065   9.953   3.920  16.145 -0.1860  0.0264  0.0093
23257W        W39066  17.454   4.965  15.284  0.1220  0.2066  0.0306
23258W        W39067  13.394  10.165  16.046  0.1284  0.2849 -0.0074
23259W        W39068  15.043  10.605  14.463 -0.1690 -0.1963  0.0303
23260W        W39069   9.885  15.585  16.663  0.0986 -0.0449  0.0699
23261W        W39070   3.459   9.828   5.074 -0.1689 -0.3448  0.0690
23262W        W39071   3.375   6.856   3.420  0.1056  0.0738  0.3347
23263W        W39072   7.406  17.641  15.434 -0.1323  0.1674  0.1474
23264W        W39073  11.437   1.995   3.562  0.0424  0.0816 -0.0030
23265W        W39074   4.687  16.984   3.068 -0.0750 -0.0046 -0.0679
23266W        W39075  13.435  13.926   0.307 -0.1531  0.2370 -0.2073
23267W        W39076  13.563  14.856   0.446  0.0066  0.0997  0.1106
23268W        W39077   0.341   2.102   6.250  0.0938  0.0350 -0.0926
23269W        W39078  11.825  16.763  15.937 -0.2438 -0.1240  0.0615
23270W        W39079  10.681   6.129   1.663 -0.0804  0.0636  0.2936
23271W        W39080   2.102   3.535   1.343  0.0353  0.0240 -0.3412
23272W        W39081   9.748  13.616   3.587  0.0713  0.1568  0.2040
23273W        W39082   6.489  13.215   2.637  0.1603  0.0352 -0.0206
23274W        W39083  11.277  17.436   1.920  0.1724 -0.1750 -0.0734
23275W        W39084   1.547   8.528   2.109  0.2671 -0.1118 -0.1840
23276W        W39085  11.599   2.992   1.477 -0.0623 -0.0462  0.1880
23277W        W39086  16.398   2.979   0.052 -0.1381  0.1716 -0.3627
23278W        W39087  11.260   5.095   4.373 -0.1085 -0.0284 -0.0884
23279W        W39088   5.845  15.211  15.831 -0.1122  0.1110  0.0502
23280W        W39089   6.622  12.154   0.266  0.2363  0.0677  0.1920
23281W        W39090  11.605  10.605  16.440 -0.0399 -0.2168 -0.0290
23282W        W39091  12.944   3.583   1.665 -0.2574 -0.0576 -0.1165
23283W        W39092   2.597  17.167   3.340 -0.1484 -0.0013 -0.1240
23284W        W39093   3.914   6.562   1.315  0.1123 -0.0342  0.0090
23285W        W39094   1.541   8.680  16.917  0.0255  0.0230 -0.1772
23286W        W39095   1.632  16.529   2.591 -0.4889  0.3034 -0.3187
23287W        W39096   2.040   6.484  13.269  0.0926 -0.0960 -0.2863
23288W        W39097   4.652   6.570  15.019  0.1871 -0.0291 -0.1342
23289W        W39098  11.232  14.282   5.083 -0.2694  0.2342  0.2208
23290W        W39099   3.180   9.721   4.149  0.3480 -0.0949  0.0295
23291W        W39100  16.703   5.600   6.600  0.1073  0.0886  0.0950
23292W        W39101   4.624   4.355   2.372 -0.1072  0.2899  0.0267
23293W        W39102   4.073  16.878   1.055 -0.1273 -0.3151  0.3160
23294W        W39103   4.688   1.034  15.232  0.1947 -0.1624 -0.0858
23295W        W39104  12.982  11.935  13.634 -0.0196 -0.1020  0.1218
23296W        W39105   7.154  12.011   4.479 -0.2050  0.0801 -0.1928
23297W        W39106   1.631   2.528  16.780  0.3336  0.1050  0.1226
23298W        W39107   4.371  14.661  15.994  0.2330 -0.0273  0.2235
23299W        W39108   1.756  10.299   6.069 -0.1150 -0.1486  0.1800
23300W        W39109   9.837   7.924  13.113  0.0057 -0.0232 -0.2487
23301W        W39110   1.250  16.463  11.560  0.3718 -0.4166  0.0411
23302W        W39111   4.956   5.759   5.110  0.1831 -0.0268  0.2565
23303W        W39112  10.477  14.809  16.284  0.0327 -0.0260  0.0153
23304W        W39113  12.783   4.344  14.759  0.2038  0.0721  0.3933
23305W        W39114  10.567  10.685  13.154 -0.0927 -0.0241 -0.2156
23306W        W39115  11.608   0.020  14.448 -0.0434  0.0095  0.0778
23307W        W39116  16.390   0.948   2.102  0.1434  0.1555  0.0842
23308W        W39117  16.186   9.936   1.216  0.1269 -0.1750  0.2000
23309W        W39118  11.195   0.097   4.756  0.1482 -0.1687 -0.0701
23310W        W39119   9.989  15.249  13.030  0.3556 -0.1201  0.2307
23311W        W39120  13.164  12.867  12.419 -0.3304 -0.2566  0.1819
23312W        W39121  12.708  14.653  15.363  0.1518 -0.1763  0.1995
23313W        W39122   9.896  12.696   0.022  0.0240 -0.0080  0.1858
23314W        W39123  10.170  16.040  12.625  0.1310 -0.1862  0.0439
23315W        W39124  11.074   3.378  14.658 -0.3426  0.0425 -0.1335
23316W        W39125  16.026  15.347  12.365  0.0624  0.1627  0.2429
23317W        W39126   5.250  17.445   2.908  0.0230 -0.2324  0.1100
23318W        W39127   7.339   5.226  16.210 -0.0590  0.0511  0.3193
23319W        W39128   8.870   7.818  16.765 -0.3272  0.0430 -0.0512
23320W        W39129   3.866  15.291  15.844 -0.2302 -0.2095 -0.0979
23321W        W39130   2.305   8.473  13.895 -0.0390  0.0341  0.3047
23322W        W39131   7.152   2.237  12.319  0.0809 -0.2740 -0.0169
23323W        W39132  14.207   2.252  12.643 -0.1817 -0.0344 -0.0503
23324W        W39133   0.173  16.865   1.775 -0.1972 -0.0736  0.0442
23325W        W39134   9.172  11.128   1.251  0.0122  0.1087 -0.1443
23326W        W39135   3.649   6.425   2.562 -0.2137 -0.1260  0.4006
23327W        W39136   8.682   6.663  15.752  0.2451 -0.0263 -0.1743
23328W        W39137  11.174   9.833   3.300 -0.1445 -0.0932  0.0988
23329W        W39138   2.839  17.738   1.695 -0.0717 -0.0010  0.2923
23330W        W39139   5.935  11.002  15.150 -0.0939 -0.1341 -0.2282
23331W        W39140  15.464   1.948   5.458 -0.0180 -0.0696  0.1737
23332W        W39141   5.593   4.389   4.554 -0.0073 -0.0366  0.0294
23333W        W39142   4.022   5.863  13.483 -0.0027  0.0631 -0.0392
23334W        W39143   3.799   7.040  16.774  0.1257 -0.2969  0.1233
23335W        W39144  10.897   1.071   3.142 -0.0367  0.0018  0.2624
23336W        W39145  12.819  16.575  16.638  0.0360  0.0435  0.0936
23337W        W39146   8.264  14.706  11.405 -0.1530  0.0922  0.1363
23338W        W39147  16.682   8.192  13.017 -0.0495 -0.1453  0.3194
23339W        W39148   0.766   9.583   3.525 -0.4653 -0.3389 -0.0491
23340W        W39149   6.966   7.023   0.504 -0.1099  0.2722 -0.1928
23341W        W39150  15.635  10.907  12.922  0.0018  0.0312  0.2670
23342W        W39151   6.934  13.124   0.894 -0.1988 -0.1057 -0.1772
23343W        W39152   9.662  16.207  16.581 -0.0173 -0.1343 -0.2281
23344W        W39153   7.146   7.071   3.279 -0.4497  0.1694  0.0072
23345W        W39154  10.770   2.054   5.083  0.1742 -0.1939 -0.0582
23346W        W39155   9.811   4.528   3.478  0.3345  0.0243  0.1973
23347W        W39156  10.566  16.936   1.866  0.1366 -0.0905 -0.0686
23348W        W39157   2.674  14.177  13.624 -0.0493 -0.0651 -0.0446
23349W        W39158   2.841  15.831   3.759  0.3313 -0.2343 -0.0771
23350W        W39159   9.829  17.122  14.966  0.2102 -0.1270 -0.1125
23351W        W39160  13.139   5.865   5.251 -0.2993 -0.2318 -0.0601
23352W        W39161  12.001   2.107  11.881 -0.0552  0.2137 -0.0432
23353W        W39162   0.164  11.521  12.828 -0.1358  0.4365  0.1389
23354W        W39163  16.453  12.544   1.087  0.2803  0.0325 -0.0172
23355W        W39164   2.768  14.534  12.659  0.0677 -0.1598  0.1448
23356W        W39165   4.148   7.513   0.969  0.1337  0.0728  0.1063
23357W        W39166  13.432   5.289  15.144 -0.0999  0.0586  0.0175
23358W        W39167   4.087  10.026   4.699 -0.1408 -0.1589 -0.0106
23359W        W39168   7.721  16.481   1.728 -0.2113  0.0647 -0.2357
23360W        W39169  11.747   4.756   3.727 -0.2834 -0.3827 -0.0417
23361W        W39170   0.209   3.661   1.596  0.0006 -0.0589  0.3553
23362W        W39171   2.213  14.549   0.579  0.4444 -0.1357 -0.0468
23363W        W39172   0.034  13.656  14.749  0.0154  0.1877 -0.0123
23364W        W39173  13.051  11.958   2.809 -0.0976 -0.0314 -0.0930
23365W        W39174  16.483  16.338   3.797  0.2520  0.1354  0.1040
23366W        W39175   7.225   2.389   0.614 -0.0422 -0.1420  0.1853
23367W        W39176   2.478   7.186   5.992  0.1865 -0.0600  0.1878
23368W        W39177   5.964   2.543  12.873  0.1585  0.1657  0.0637
23369W        W39178  13.292   6.581  11.865  0.2257 -0.1641 -0.0005
23370W        W39179   5.506  14.367  11.821  0.0984 -0.0884  0.0418
23371W        W39180  11.496  11.563  12.072 -0.1798  0.1906 -0.0314
23372W        W39181  15.341  16.743   6.122  0.1731 -0.1375  0.1095
23373W        W39182   0.762  10.405   2.364 -0.1253  0.0642  0.0073
23374W        W39183  15.177  15.810   0.818 -0.0604  0.1136 -0.0224
23375W        W39184  17.484  15.338   0.728  0.0648  0.2137  0.1033
23376W        W39185  17.652   3.172   4.439 -0.2265 -0.3035  0.1209
23377W        W39186  15.661   0.486  14.844  0.2666  0.3465  0.1495
23378W        W39187   4.737  13.822   2.522 -0.0308  0.1765 -0.0557
23379W        W39188   8.456  14.315  11.864 -0.3699  0.1249  0.0813
23380W        W39189   8.060   8.361   4.756 -0.0415 -0.1694  0.1232
23381W        W39190   6.109  17.682  16.873  0.2008  0.2163 -0.2108
23382W        W39191   0.486  15.197  12.168  0.0991 -0.0577  0.0471
23383W        W39192   6.555  13.351  11.657  0.0759  0.2069  0.0697
23384W        W39193   8.557  10.615  14.176 -0.1883 -0.1016  0.2592
23385W        W39194   6.838   3.145   1.128 -0.1790 -0.0106 -0.0339
23386W        W39195  14.812  13.849   0.060 -0.1525 -0.0895  0.3136
23387W        W39196   6.622  14.604   3.292 -0.2004  0.0181 -0.0061
23388W        W39197  14.202  14.928   5.208  0.1911 -0.2385 -0.1248
23389W        W39198  15.040  16.745  11.194  0.0753  0.3097 -0.0281
23390W        W39199   1.550  15.452  16.672 -0.0641  0.1958  0.0867
23391W        W39200  12.227  15.370  16.140 -0.0120 -0.0922 -0.0539
23392W        W39201  11.528   5.000   3.321 -0.0237  0.0085  0.2659
23393W        W39202   9.223  15.689  10.316  0.0529  0.0360  0.2666
23394W        W39203   9.764  10.588   3.935  0.0745 -0.0409  0.1898
23395W        W39204  12.299  14.947   4.688  0.1479 -0.1433 -0.1509
23396W        W39205  13.267   0.769   4.874 -0.2480 -0.1152 -0.0409
23397W        W39206   6.436   6.068  15.797  0.0002  0.0955  0.0690
23398W        W39207   6.417   9.791  14.911 -0.1466 -0.2113 -0.0735
23399W        W39208   1.772  17.216  13.875  0.0339 -0.3050 -0.3028
23400W        W39209  10.771  12.910   2.666 -0.0875  0.0808  0.3199
23401W        W39210   1.468  16.013   3.502 -0.0987  0.2864 -0.1610
23402W        W39211   1.643   1.116   3.040 -0.0962  0.1241 -0.0421
23403W        W39212  12.778  14.620   6.144 -0.3097  0.0709 -0.2948
23404W        W39213  13.516  10.904   0.973  0.2352  0.3783  0.0344
23405W        W39214  12.343   3.077   4.820  0.0157 -0.0564 -0.0502
23406W        W39215   8.187  11.271  12.997 -0.1531  0.0139 -0.2235
23407W        W39216  12.869   3.631   5.149 -0.1677  0.1600 -0.1932
23408W        W39217   2.147  16.364  16.883  0.0761  0.1457 -0.2072
23409W        W39218   8.605  14.020  15.907 -0.0978 -0.0538  0.1404
23410W        W39219   1.727  10.446  12.919 -0.0508 -0.0701 -0.0325
23411W        W39220   9.437  11.251  16.950 -0.0312 -0.0551  0.0873
23412W        W39221   3.865   3.258   3.045  0.2756 -0.1574  0.0062
23413W        W39222  13.492   0.330  12.041 -0.2022 -0.0654  0.4297
23414W        W39223   1.828   0.268  12.974  0.0567 -0.2107 -0.3089
23415W        W39224   1.366   5.862  15.027  0.3337 -0.2123  0.2286
23416W        W39225   2.167   9.095   0.834 -0.0638 -0.0509 -0.2803
23417W        W39226  11.371  15.878   2.562 -0.1191 -0.0011 -0.0082
23418W        W39227   9.579   0.747  14.730 -0.0720  0.3510  0.0597
23419W        W39228  12.081   4.520  12.620 -0.1616 -0.1231  0.1833
23420W        W39229  11.219   1.829   4.031  0.1567  0.1964  0.2628
23421W        W39230   7.629   7.660  12.862  0.0151 -0.1318  0.0244
23422W        W39231  12.365  14.891  13.072  0.2047 -0.2013 -0.2408
23423W        W39232   9.939  15.950  10.705  0.1422 -0.1050  0.2042
23424W        W39233  14.635  12.635  13.151 -0.0003  0.1920 -0.3679
23425W        W39234   7.326  16.976  12.500 -0.0172  0.0160 -0.0867
23426W        W39235  10.516  14.964  13.910 -0.0540 -0.2738 -0.0169
23427W        W39236   8.004  12.492   5.346  0.1002 -0.3170 -0.1973
23428W        W39237   1.509  17.468   6.067 -0.0946  0.0778 -0.0910
23429W        W39238   4.223  13.290  11.594  0.0573 -0.0351 -0.1079
23430W        W39239   3.876   8.813   4.927  0.0763 -0.2048  0.0968
23431W        W39240   3.467   4.903   0.752  0.4488  0.0709  0.2025
23432W        W39241   9.930  11.385   2.958  0.3613  0.0673 -0.1171
23433W        W39242  11.052  10.907  11.863 -0.0800  0.1115 -0.2280
23434W        W39243  12.899  11.095   1.905 -0.1807  0.0270  0.0919
23435W        W39244   3.716   5.162   1.809 -0.1527  0.1189 -0.0692
23436W        W39245  16.138   6.341   5.102 -0.1382 -0.0923  0.0049
23437W        W39246   8.013   1.931   2.338 -0.0277 -0.0627 -0.0453
23438W        W39247   5.952   1.721   0.783 -0.1462  0.0245  0.1018
23439W        W39248  12.029  11.476   5.163  0.1143  0.0742  0.2673
23440W        W39249  13.520  10.565   0.217 -0.0167  0.0638 -0.4675
23441W        W39250   5.548   0.796  15.953 -0.5818  0.3670  0.0450
23442W        W39251   9.143   8.094   1.049 -0.1992 -0.1858 -0.0440
23443W        W39252  12.026   6.700   3.249 -0.0500 -0.2028 -0.2677
23444W        W39253   0.483   5.391   4.571  0.2632 -0.0536  0.4006
23445W        W39254   4.913   5.125  12.459 -0.0088  0.0916  0.4102
23446W        W39255   6.313   8.856   4.317  0.1230  0.0142 -0.1129
23447W        W39256  12.058  10.364   1.056  0.1664  0.4071  0.1211
23448W        W39257   0.420   3.642   5.203 -0.0506 -0.2028  0.1599
23449W        W39258  17.486   9.919  13.347 -0.1689 -0.2111  0.0941
23450W        W39259   4.217  16.873   3.866  0.0786  0.0824  0.0243
23451W        W39260  15.216   3.294  16.779  0.0269 -0.0813 -0.0228
23452W        W39261   2.204   7.096  12.481 -0.0910  0.3361 -0.0404
23453W        W39262  12.311   1.976  16.130 -0.4353  0.2091  0.2329
23454W        W39263  15.903   3.610  15.978 -0.0711 -0.1790  0.0791
23455W        W39264   9.255   3.691  13.406 -0.0194  0.1583 -0.1312
23456W        W39265   8.860   2.588  12.370 -0.0600 -0.0308 -0.0024
23457W        W39266   6.557   2.194   0.270 -0.1403  0.1528 -0.2763
23458W        W39267   1.478   2.085   2.254  0.0082  0.0041 -0.0578
23459W        W39268  12.956   0.176  11.799 -0.4011 -0.3672 -0.1698
23460W        W39269  17.430   5.447  13.058  0.0118  0.2800 -0.3944
23461W        W39270   7.928   6.140   1.198 -0.0281 -0.2153 -0.0416
23462W        W39271   5.289  15.246  14.951 -0.2227 -0.1043  0.1561
23463W        W39272   0.317   6.034   1.132 -0.1622  0.1701 -0.4507
23464W        W39273  16.547   7.263  13.093  0.0230 -0.0154 -0.1440
23465W        W39274  13.095  14.359   1.697  0.2139  0.2169  0.1346
23466W        W39275  11.646   4.616   2.995 -0.4478 -0.0104 -0.2481
23467W        W39276  17.705  14.487   0.089 -0.1102 -0.1610 -0.1659
23468W        W39277  17.187   6.062  13.090 -0.5796 -0.0495 -0.0335
23469W        W39278   2.138  14.276   1.051 -0.2978  0.1690  0.1701
23470W        W39279  12.757   3.536   2.704 -0.2079  0.2157  0.1571
23471W        W39280   2.705  12.069  13.262 -0.1373 -0.0801  0.3401
23472W        W39281  10.565  15.233   0.326  0.0628  0.0533 -0.0273
23473W        W39282   3.676   9.115   6.170 -0.1121 -0.0432 -0.1050
23474W        W39283   5.425   1.571  12.768 -0.1175 -0.0440  0.0822
23475W        W39284   0.006   5.654   1.365 -0.1290  0.0615 -0.1008
23476W        W39285   4.677  15.676  11.857 -0.1560  0.1528  0.0047
23477W        W39286   0.468   8.864   0.805  0.2564  0.2212  0.1405
23478W        W39287   9.170   1.392   1.963 -0.0313  0.1602 -0.1489
23479W        W39288   2.755  12.937  13.307 -0.0384 -0.0963  0.0262
23480W        W39289   9.734   0.234  14.839  0.2002 -0.2255  0.0442
23481W        W39290  12.032  13.591  14.465 -0.0302 -0.1996  0.1165
23482W        W39291   3.138   0.254  15.436  0.1084  0.2907  0.1596
23483W        W39292   3.326   8.604  15.962  0.1110 -0.1355  0.1831
23484W        W39293  17.497  11.870  15.233 -0.2721 -0.3031 -0.2093
23485W        W39294   1.497   4.696   1.568  0.2600  0.0407 -0.0889
23486W        W39295  11.262  13.069  16.695 -0.1901  0.3465  0.3953
23487W        W39296   5.880   2.743   3.682  0.2554  0.0605  0.1813
23488W        W39297   7.249  10.966  16.629  0.0358  0.1678 -0.0057
23489W        W39298   4.731   0.983  14.404  0.1976  0.0153 -0.1681
23490W        W39299   3.502   7.992  16.739  0.1664 -0.3313 -0.4519
23491W        W39300   9.493  11.133  15.394 -0.0549 -0.1164 -0.1149
23492W        W39301   6.886  12.623  10.888  0.1338  0.1723 -0.0151
23493W        W39302   5.080   4.396   5.324 -0.0237 -0.2408 -0.2283
23494W        W39303  11.347   2.549  14.477 -0.2899  0.1220 -0.5055
23495W        W39304  12.304   0.246   4.029  0.0366 -0.2602  0.1570
23496W        W39305   8.982  15.361   1.444  0.1495  0.0378  0.0358
23497W        W39306   3.509   1.927  13.069  0.0268 -0.0782 -0.4312
23498W        W39307   4.201  17.034   5.101  0.0323  0.0402  0.1853
23499W        W39308  13.288  12.034   3.667  0.0791 -0.2113  0.3833
23500W        W39309   5.191   4.353  15.066  0.0509 -0.1022  0.1696
23501W        W39310   4.321  17.335   5.500 -0.0346  0.0514 -0.1098
23502W        W39311   4.663   4.919  13.383 -0.2621 -0.3447 -0.2037
23503W        W39312   6.828  13.755   5.092  0.1455  0.3380  0.2303
23504W        W39313   7.839   2.206   1.289 -0.0074  0.0902 -0.2997
23505W        W39314  10.729  13.367  14.879  0.0098 -0.2215 -0.0643
23506W        W39315  10.546   0.323   2.561 -0.1953 -0.2226 -0.1651
23507W        W39316   7.259  10.738   2.226 -0.1143 -0.0333  0.0381
23508W        W39317   7.085   9.874  16.501 -0.2132  0.1072  0.1317
23509W        W39318   0.181  12.518  14.151  0.0330  0.2184 -0.0071
23510W        W39319   4.761   8.901  11.966  0.1860  0.1241  0.0612
23511W        W39320   6.176   4.876  16.093  0.1194 -0.0451 -0.0756
23512W        W39321   6.759   7.952   5.700  0.0386 -0.1214  0.0626
23513W        W39322   9.577   9.725   2.322  0.0062 -0.3037  0.0245
23514W        W39323   0.733   3.808   5.570  0.1966 -0.0877 -0.2989
23515W        W39324   2.835  10.403   4.889  0.2063 -0.0334  0.7069
23516W        W39325   1.991  16.751  14.691  0.0141  0.0492  0.2414
23517W        W39326   5.547   8.409  15.709  0.0629 -0.3607 -0.1825
23518W        W39327   5.654  10.091   3.124  0.5417 -0.0419  0.2083
23519W        W39328  16.160  13.606   0.371  0.2159 -0.1886 -0.1766
23520W        W39329   8.122  13.815  13.726  0.0483  0.2015 -0.1133
23521W        W39330   9.552  17.004  16.435 -0.1490  0.2445 -0.0233
23522W        W39331   1.325   2.124  16.828 -0.0947  0.2150 -0.1266
23523W        W39332  12.917  16.558   2.654 -0.3011  0.0538  0.1333
23524W        W39333   7.638   2.532  12.765 -0.1249 -0.1401  0.1270
23525W        W39334  12.462   6.065   4.892 -0.0184  0.0072  0.1906
23526W        W39335   4.126  14.741   3.757  0.3087  0.0720  0.3266
23527W        W39336   4.971   7.396   6.003 -0.0434 -0.2634  0.0457
23528W        W39337   9.869  12.170   0.124 -0.1473 -0.4267  0.0884
23529W        W39338  13.714  10.506   2.930  0.1000  0.1165  0.1455
23530W        W39339  16.343  13.561  13.634  0.1313  0.2570  0.1434
23531W        W39340  10.750   2.168  15.844  0.1154 -0.0532  0.2187
23532W        W39341   8.495  15.613  14.605 -0.0193 -0.2538 -0.0654
23533W        W39342  10.536   2.536   1.700  0.0483 -0.0141 -0.0461
23534W        W39343  16.298   7.341  14.700 -0.0802 -0.1077  0.0247
23535W        W39344   3.441   2.946  14.006 -0.1467 -0.2746 -0.0598
23536W        W39345  13.487   5.183  12.633  0.0490 -0.1136 -0.2225
23537W        W39346   3.057  10.590   4.453  0.0356  0.1704 -0.1365
23538W        W39347  16.440   0.424  16.870 -0.1798 -0.0617  0.2877
23539W        W39348   3.260  12.408   2.833 -0.0485 -0.1573 -0.0275
23540W        W39349   4.010  12.975  16.356 -0.1640  0.1483  0.0354
23541W        W39350   7.815  13.096   1.334  0.0576  0.0639 -0.1783
23542W        W39351  12.282   1.804   1.689  0.1269  0.1436  0.1468
23543W        W39352  13.015   4.219   1.357 -0.2946  0.0662 -0.0425
23544W        W39353  16.827   1.931   3.861 -0.0874 -0.1626  0.0203
23545W        W39354  15.845  11.625   2.806 -0.0729  0.0557  0.1133
23546W        W39355  17.032   0.259   1.267  0.2184 -0.1913  0.1622
23547W        W39356   8.193   2.895   1.179 -0.0556 -0.0491 -0.2892
23548W        W39357  15.482   2.119  14.086 -0.2496  0.0866 -0.0723
23549W        W39358   4.508   2.163   2.671  0.1890  0.0933  0.0108
23550W        W39359  15.881   8.071   3.021 -0.1196 -0.1514 -0.0410
23551W        W39360  15.236  11.877   1.868  0.0538 -0.0609  0.1734
23552W        W39361   2.842  15.282  13.476  0.1141 -0.2502  0.1041
23553W        W39362   6.282  14.160   3.475  0.1775 -0.4400  0.1624
23554W        W39363   5.440  15.033  13.516 -0.1186  0.1482  0.0327
23555W        W39364   2.241   7.605   0.360 -0.3418 -0.3577  0.0583
23556W        W39365   5.824   8.945   5.702  0.1283  0.1720  0.0037
23557W        W39366   1.179  12.244   1.323  0.2609 -0.0485 -0.0333
23558W        W39367   7.596   2.550   4.779 -0.0375 -0.1815 -0.1636
23559W        W39368   9.957   1.739   4.082  0.1932  0.2016 -0.0824
23560W        W39369   5.117  15.922  13.382  0.1763  0.1499 -0.0638
23561W        W39370  17.059  13.445   2.661 -0.0482 -0.2521 -0.2138
23562W        W39371   8.713   4.748   1.239  0.2296  0.1656 -0.3236
23563W        W39372  15.268   2.346  11.955  0.0541  0.2971 -0.3559
23564W        W39373   9.464   8.046   4.848 -0.0376  0.3988  0.0165
23565W        W39374   6.959  14.136  12.717 -0.0413  0.0852 -0.4490
23566W        W39375   1.948  16.596  15.889  0.3302 -0.1669 -0.0112
23567W        W39376   0.818   0.458  16.778 -0.0371  0.1154  0.1652
23568W        W39377  16.941  16.277   3.166 -0.0619  0.3954 -0.0182
23569W        W39378   7.423   1.075   5.699 -0.0006 -0.2917  0.4471
23570W        W39379   8.351   2.788   0.548  0.0890 -0.2919 -0.0166
23571W        W39380  12.698  13.146  15.766 -0.3352  0.0637  0.1308
23572W        W39381  10.548   0.921  14.881 -0.1805 -0.2921 -0.1940
23573W        W39382   4.687  12.918   1.416  0.1399 -0.3688  0.0184
23574W        W39383  12.767   1.575   2.993  0.1828  0.1181  0.3645
23575W        W39384   1.192   6.134  12.246  0.0151 -0.1066 -0.0725
23576W        W39385   8.922   6.923  11.634 -0.3877  0.0981 -0.0230
23577W        W39386   5.262   8.905  12.169 -0.1935  0.0092 -0.1806
23578W        W39387   5.566   4.260   5.138 -0.0979 -0.0212  0.3109
23579W        W39388   7.961   4.789  16.854  0.1033  0.0844  0.0886
23580W        W39389  10.639   1.445   2.596  0.1010 -0.0477 -0.0926
23581W        W39390  16.040   8.410  11.632  0.0444  0.3042  0.2372
23582W        W39391  14.174   9.883   1.083 -0.1219 -0.0551  0.0250
23583W        W39392   5.983   9.476  13.165 -0.2631  0.1657 -0.1316
23584W        W39393   2.118  10.716   5.974 -0.0330 -0.3000  0.0955
23585W        W39394  13.505  14.401  13.674 -0.1189  0.0520  0.3664
23586W        W39395  16.742   1.160   4.405  0.2497 -0.2953 -0.1386
23587W        W39396  12.629  16.914  14.851 -0.1145 -0.2349  0.0859
23588W        W39397   2.117  17.164   3.379 -0.0133  0.1548  0.0717
23589W        W39398  10.743   7.856  14.242 -0.3947  0.0204  0.0460
23590W        W39399  17.577   4.971   4.014  0.1465 -0.2504  0.0933
23591W        W39400  17.647  17.424  15.128  0.1080  0.0727  0.2355
23592W        W39401   2.467   4.148  12.452 -0.1598  0.1881  0.0043
23593W        W39402  11.843   1.378  14.090  0.3022 -0.1911 -0.2020
23594W        W39403  17.128  15.202  11.552  0.0095  0.0423  0.0464
23595W        W39404   0.581   1.017   1.821 -0.1707 -0.1849 -0.0829
23596W        W39405   5.192   0.026   5.694  0.2077  0.1377 -0.0607
23597W        W39406  13.707  17.034  14.253 -0.5194 -0.3775  0.1061
23598W        W39407   0.844   3.416  12.993 -0.0456  0.1397 -0.3253
23599W        W39408  13.767   8.249   4.248 -0.0519  0.0375  0.1299
23600W        W39409   3.408   0.264   5.799 -0.1298  0.0602 -0.0998
23601W        W39410   0.510   0.934  16.018 -0.0726 -0.0272  0.0644
23602W        W39411   0.730   4.593  13.828  0.3836 -0.0628 -0.0210
23603W        W39412   2.573  10.141  16.959  0.1888 -0.1927  0.2432
23604W        W39413   9.409  14.571   3.198  0.3530  0.5488  0.0677
23605W        W39414   5.858  12.762   3.199  0.1814 -0.1013 -0.2037
23606W        W39415  12.726   6.920   1.621  0.0170  0.1166  0.0454
23607W        W39416   7.749   7.037  16.082 -0.0622 -0.0233 -0.0999
23608W        W39417   3.472  12.954   0.800 -0.2187  0.1746  0.0093
23609W        W39418   5.769  16.457   5.918 -0.2251  0.0759 -0.0247
23610W        W39419   1.117   0.535  13.461  0.3658  0.1689 -0.1774
23611W        W39420   4.853  11.343  13.355  0.1294 -0.0022 -0.0995
23612W        W39421   7.175   8.987  15.277 -0.2379  0.0140  0.1496
23613W        W39422   6.959  12.994  12.531 -0.0554 -0.0858 -0.2052
23614W        W39423   0.013   0.077   5.494 -0.1775  0.0270 -0.1600
23615W        W39424   6.858  15.687   0.856 -0.2147 -0.2708  0.1743
23616W        W39425  14.074   4.419  17.002  0.0272  0.2539 -0.2348
23617W        W39426   1.540  12.764  15.991 -0.0114 -0.3087 -0.0607
23618W        W39427  10.999   3.138  12.102  0.1786 -0.1556 -0.1284
23619W        W39428  13.233   3.259  14.027  0.1117  0.0343  0.0304
23620W        W39429   4.174   9.414   3.438  0.0110  0.0266 -0.0127
23621W        W39430  17.419  15.515  14.797  0.1382 -0.0857 -0.0007
23622W        W39431  17.126   7.009   3.380  0.0541  0.1872  0.0426
23623W        W39432   4.763   4.813  14.387  0.2188  0.2499  0.3376
23624W        W39433   7.944   9.916   5.586  0.1477 -0.3340 -0.0399
23625W        W39434  10.472   1.017   3.320  0.0572 -0.0005 -0.1965
23626W        W39435  16.117  10.797   3.483  0.0546 -0.1248  0.2013
23627W        W39436   4.469   5.392   1.577  0.0348  0.3349  0.0396
23628W        W39437   8.743  12.753  11.905 -0.3711  0.0269  0.2828
23629W        W39438  11.427  10.409   3.814  0.0287  0.1736  0.0892
23630W        W39439   9.133  16.514  13.912  0.0911 -0.0591  0.2204
23631W        W39440  11.850  10.448  11.513  0.0528 -0.0490  0.2717
23632W        W39441   1.404  11.026  15.469 -0.1222  0.0390  0.4864
23633W        W39442   6.319   3.044   2.449 -0.0433 -0.0213 -0.1083
23634W        W39443   4.979  17.100  15.618  0.0655  0.0744 -0.0927
23635W        W39444   3.007   7.422   3.733 -0.1550  0.0844  0.0650
23636W        W39445   9.854   5.564  14.189  0.0053 -0.0145 -0.4959
23637W        W39446  14.517   7.963   3.028 -0.0644  0.0280  0.3017
23638W        W39447  16.579   9.781  11.766  0.1859  0.1806  0.2590
23639W        W39448  16.659  16.663   1.694  0.0605 -0.0444  0.0459
23640W        W39449   2.309  16.058   0.747  0.0668  0.0425 -0.0053
23641W        W39450  17.649   9.029   4.613 -0.1286 -0.2478  0.0880
23642W        W39451   8.721  17.211   2.231 -0.1346 -0.0819  0.1055
23643W        W39452   2.672   0.299  15.838 -0.0880 -0.1513 -0.0718
23644W        W39453   3.148   0.389  12.116 -0.2050 -0.0191 -0.0074
23645W        W39454   9.778   6.540   1.107 -0.2369 -0.0801  0.3162
23646W        W39455  10.123   5.418   3.096 -0.1082  0.0256  0.0360
23647W        W39456  10.747   3.157  15.848  0.0396 -0.6082  0.0939
23648W        W39457   0.700  11.135  16.466 -0.1925  0.3227  0.2222
23649W        W39458   6.390  17.484   4.764  0.1197 -0.3301 -0.0840
23650W        W39459   8.163  17.301  16.260  0.0933  0.0892 -0.0647
23651W        W39460   9.799  11.554  12.613  0.0634  0.1647  0.0969
23652W        W39461  17.054   0.333   3.536  0.1857 -0.0527  0.4216
23653W        W39462  11.523  15.274  12.062 -0.5043  0.2289  0.2049
23654W        W39463  13.224   5.701   0.955  0.0318  0.2190 -0.3177
23655W        W39464   4.561   4.576   0.740  0.0985  0.1877 -0.0142
23656W        W39465   5.236   4.375  12.768  0.0266 -0.1315  0.0482
23657W        W39466   4.978   7.673  13.866 -0.1136  0.0044 -0.1395
23658W        W39467   7.270   7.950   6.432 -0.0261  0.0572 -0.2558
23659W        W39468   2.907   2.555  16.151 -0.1159  0.1375 -0.0800
23660W        W39469  12.805  12.026  14.469 -0.0942 -0.0114 -0.1067
23661W        W39470  11.122   4.936  16.941 -0.1087 -0.1092  0.0344
23662W        W39471  14.110  13.119  16.529  0.0272 -0.1775 -0.3335
23663W        W39472   9.590  10.025   0.056  0.0924 -0.1067 -0.2099
23664W        W39473  13.753  13.355  12.513  0.0640  0.3269  0.2413
23665W        W39474   0.750  16.734   4.318 -0.2230  0.1119 -0.2711
23666W        W39475   9.673  13.202  13.031  0.2975 -0.0540  0.2929
23667W        W39476   0.744   0.235   1.781 -0.1043  0.0203  0.3077
23668W        W39477   2.138   5.480  14.207 -0.0832  0.0436 -0.2416
23669W        W39478   7.657   0.484   4.884  0.3733  0.2659 -0.0548
23670W        W39479   2.753   2.397   4.047  0.0850 -0.0396 -0.0466
23671W        W39480   8.282   2.791   5.332 -0.3085  0.1394  0.0330
23672W        W39481  15.586   2.448   4.951 -0.0727 -0.1360 -0.2651
23673W        W39482  10.245   1.249   2.926 -0.3945 -0.0277  0.2504
23674W        W39483   4.968  13.536   4.510 -0.0460  0.1267  0.2466
23675W        W39484  13.118  16.870   5.351  0.1002 -0.2905 -0.1229
23676W        W39485   1.164   5.760   4.748 -0.0826  0.2530  0.1098
23677W        W39486  11.357   0.098  14.911  0.0103 -0.1393  0.0549
23678W        W39487  13.225  11.905  12.041 -0.0590 -0.2105  0.2920
23679W        W39488   2.134  15.138   1.024  0.2362  0.0682  0.0896
23680W        W39489   3.266   7.824  13.417  0.4423 -0.1948 -0.1859
23681W        W39490  16.615   2.579   2.162 -0.0469 -0.0301  0.2741
23682W        W39491  10.410   7.904   4.875 -0.1631  0.1074  0.0429
23683W        W39492   7.293   9.658  13.133 -0.3992 -0.0060  0.0583
23684W        W39493  12.566   0.851  12.788 -0.2065  0.0485 -0.0425
23685W        W39494   6.854  11.109  15.790  0.1350 -0.2776 -0.0218
23686W        W39495   0.953   0.958  12.719 -0.0962  0.0789 -0.1113
23687W        W39496   2.996  13.465  16.213  0.0917 -0.0696  0.2639
23688W        W39497   9.613  12.433  15.108 -0.0027  0.0126 -0.0171
23689W        W39498   1.457  12.757   3.902 -0.0991 -0.3322 -0.1823
23690W        W39499   1.230  16.843   4.582  0.2535  0.4744  0.3362
23691W        W39500   6.893   6.461  12.089 -0.1803  0.2170 -0.2232
23692W        W39501   8.501   4.008  15.847 -0.0829  0.1389 -0.1945
23693W        W39502  12.799  12.428  13.577 -0.0712 -0.0339 -0.5670
23694W        W39503   1.641   5.612  14.526  0.2737  0.0751  0.0151
23695W        W39504   8.378  14.677  14.276 -0.0824  0.2237  0.0503
23696W        W39505   5.155  14.858  15.294  0.0793  0.2764  0.0245
23697W        W39506   4.464   4.293  14.852 -0.1338  0.2368  0.0295
23698W        W39507  11.765   7.868  12.373 -0.1104  0.0291  0.0961
23699W        W39508  10.190   3.807   5.107  0.0536  0.2322  0.3289
23700W        W39509  16.380  14.835  13.481 -0.0303 -0.1566  0.1750
23701W        W39510   8.142   5.043  14.450 -0.0810  0.1250 -0.1872
23702W        W39511  14.408  11.400  13.631 -0.0799 -0.1763 -0.0823
23703W        W39512   5.118   2.709   2.531 -0.1004 -0.1313  0.1167
23704W        W39513   6.016  10.913   0.622 -0.0386 -0.0435  0.1471
23705W        W39514   4.042  16.158   4.001  0.1702 -0.0762 -0.1128
23706W        W39515   6.412   8.975   6.792  0.2418  0.1716  0.3186
23707W        W39516  14.582  14.304   5.329  0.0104  0.0253 -0.2306
23708W        W39517  16.011  13.665   4.880  0.0182  0.0257  0.1119
23709W        W39518  10.297   9.822   1.290  0.2197  0.2717 -0.0133
23710W        W39519   8.023  13.108  15.229  0.0622  0.0361  0.2661
23711W        W39520   4.082  16.380   5.677 -0.0299  0.0050  0.0439
23712W        W39521   1.665   5.896   5.064  0.3280 -0.1661 -0.2960
23713W        W39522  17.377  12.333   0.170  0.0754 -0.1107  0.0236
23714W        W39523  14.526   6.327   3.856 -0.0586  0.0439  0.3511
23715W        W39524   0.674  10.751   4.048 -0.0118 -0.2248  0.3753
23716W        W39525  15.114   5.209  12.874  0.2442 -0.2281 -0.4251
23717W        W39526  14.821  11.038  16.510  0.0937  0.1345  0.0771
23718W        W39527   0.350   3.213  13.105  0.0077  0.0769  0.1019
23719W        W39528   5.928   3.545   1.392  0.1135 -0.0867  0.4478
23720W        W39529  14.165   3.925  14.298  0.1691 -0.3447  0.0692
23721W        W39530   0.196   6.652   4.587  0.0936 -0.2597  0.0718
23722W        W39531  11.790  15.071  16.606  0.4194 -0.1505 -0.1363
23723W        W39532  17.134   9.713   1.252  0.0274  0.0515  0.0663
23724W        W39533  16.393   4.896  14.286  0.0456  0.1164 -0.0097
23725W        W39534   7.720   0.647   1.701  0.2034 -0.0104 -0.1917
23726W        W39535  13.349   0.522   0.412 -0.2012  0.1755  0.1226
23727W        W39536  12.353   6.115   2.023 -0.0790 -0.3417  0.2047
23728W        W39537   4.321   1.627  15.149 -0.1282  0.1395  0.0549
23729W        W39538  16.968   7.056  13.365 -0.0548 -0.0899  0.0714
23730W        W39539  11.871   9.661   4.976 -0.2620  0.0798 -0.1779
23731W        W39540  11.012  12.928   0.571 -0.0989  0.0464  0.1315
23732W        W39541  16.185   3.026  12.406 -0.3505  0.1693 -0.2176
23733W        W39542   6.511  11.272  16.879 -0.0542  0.1125 -0.0928
23734W        W39543  11.480  10.525  12.890  0.1561  0.1481  0.0552
23735W        W39544   2.768   7.261   1.930 -0.0262  0.0791  0.1247
23736W        W39545   5.064   3.094   0.989 -0.1613 -0.2075  0.0775
23737W        W39546   1.175  16.221  15.035 -0.4473  0.5207  0.1996
23738W        W39547  12.747  15.098   3.483 -0.0910 -0.0117  0.0401
23739W        W39548   8.164  13.296   4.807  0.1019 -0.1506 -0.0881
23740W        W39549   6.075   6.272  13.090 -0.2667  0.0373 -0.0168
23741W        W39550  17.382  13.327  12.342 -0.0499  0.1632 -0.0818
23742W        W39551   9.253  13.686   1.173  0.2334  0.2343 -0.1174
23743W        W39552   1.329   5.593   6.413 -0.0210  0.0647  0.0411
23744W        W39553   3.575   4.308   4.932  0.2160  0.1423 -0.3256
23745W        W39554  12.604   3.232   3.171 -0.2775  0.1228  0.2004
23746W        W39555   9.374  10.884  14.968 -0.0584 -0.0268  0.5619
23747W        W39556  16.170  13.358   5.762 -0.2865  0.1118 -0.0743
23748W        W39557   4.579   2.548  14.193 -0.0113 -0.3197 -0.0418
23749W        W39558   7.372   0.132  13.350 -0.1362 -0.1351 -0.1387
23750W        W39559   6.196   4.951   4.962 -0.1156  0.1721 -0.0474
23751W        W39560   0.366   4.329   3.756 -0.1064  0.0782 -0.1477
23752W        W39561  13.701  11.816   2.766 -0.0446  0.2743 -0.1001
23753W        W39562  12.677  11.321   0.244 -0.0247 -0.1075 -0.0087
23754W        W39563   6.050  11.068   3.933  0.3281 -0.0488 -0.2225
23755W        W39564   6.971  11.662  16.634 -0.0100  0.0429  0.2575
23756W        W39565   5.121  12.305   4.330  0.0009  0.3294  0.3564
23757W        W39566   4.131   1.785   6.640 -0.1461 -0.1963  0.0820
23758W        W39567   7.140   6.090  16.672 -0.2348  0.0375 -0.0228
23759W        W39568  13.013   1.624  15.199  0.2016 -0.1592  0.2138
23760W        W39569   9.849  12.331  16.453  0.0624  0.0888 -0.0915
23761W        W39570   8.139  14.320  16.562 -0.0978 -0.1112 -0.0496
23762W        W39571   1.002  15.683   0.377  0.0285 -0.2141  0.0178
23763W        W39572  11.407   2.593   5.098  0.0962 -0.0478  0.2206
23764W        W39573  13.544  15.114   2.532  0.3534 -0.1553  0.2125
23765W        W39574  16.865   5.720   1.519 -0.0007 -0.0724 -0.1230
23766W        W39575   8.553  12.762  16.775  0.1179  0.1692 -0.0054
23767W        W39576   8.970   6.756  12.512  0.0713  0.1539  0.3539
23768W        W39577  12.976  12.103   1.956 -0.3018 -0.0271 -0.0877
23769W        W39578  14.787   2.660   3.134  0.1101 -0.0175  0.0625
23770W        W39579   7.704   1.671  13.415 -0.2715  0.0458 -0.0113
23771W        W39580  14.037   7.805  12.039 -0.1178 -0.1024  0.0602
23772W        W39581  13.805  15.291   3.530 -0.0657  0.1894  0.0971
23773W        W39582   0.460   9.503   2.800  0.2534  0.0523  0.2435
23774W        W39583   2.432   3.357  13.535 -0.3363  0.1982  0.3507
23775W        W39584   6.253   1.615   4.485 -0.2828 -0.0621 -0.0854
23776W        W39585   8.616   4.611   0.722  0.2676  0.3645  0.1765
23777W        W39586   9.800   1.404   3.739  0.1052  0.1540 -0.1375
23778W        W39587  12.231  17.562   3.765  0.0885  0.0341 -0.0327
23779W        W39588   2.748  12.721  13.776  0.2274 -0.1613 -0.0867
23780W        W39589   7.810   2.980   5.567 -0.4565 -0.0195  0.0478
23781W        W39590   9.984  11.452   5.138 -0.0861  0.0779 -0.1183
23782W        W39591  17.448   7.920   3.477  0.1144  0.0484  0.0615
23783W        W39592  15.484  13.431  13.892  0.0029  0.0374 -0.0971
23784W        W39593  14.766   8.034  14.156  0.2584  0.1274 -0.0063
23785W        W39594   3.178   2.182   4.047  0.0588  0.0362 -0.0744
23786W        W39595   8.156   8.782  13.812  0.0719  0.1136 -0.1409
23787W        W39596  17.387   7.810  14.168 -0.0414 -0.3395 -0.0742
23788W        W39597   0.462   0.414   4.188  0.2723  0.1604 -0.1657
23789W        W39598  11.446  11.956  14.787 -0.0539 -0.1944 -0.0065
23790W        W39599  10.423   5.154   4.572  0.2388 -0.2151  0.1683
23791W        W39600   2.923  14.872   5.271 -0.1822  0.0354 -0.0837
23792W        W39601   6.749   1.289  15.748 -0.1989 -0.1302  0.0796
23793W        W39602  15.217   0.208  16.915  0.2086 -0.2064  0.0908
23794W        W39603   0.142   2.840   4.946 -0.0868  0.1186  0.2432
23795W        W39604  13.923   5.653   2.289 -0.2527  0.1156  0.1424
23796W        W39605  16.784   6.337   0.335 -0.1402 -0.1663 -0.1182
23797W        W39606   9.022  14.816  12.479 -0.0640  0.1143  0.1349
23798W        W39607  11.136  17.341  12.133  0.1306 -0.0178  0.0803
23799W        W39608   3.761   4.186   3.866 -0.0053 -0.2953  0.2601
23800W        W39609   7.492  11.041  14.545 -0.2346 -0.1181  0.1199
23801W        W39610   5.206  15.699   3.835 -0.2555 -0.0014 -0.2345
23802W        W39611   6.484   7.593   2.837  0.1163  0.0095  0.0673
23803W        W39612   1.258  11.749  15.960 -0.1657  0.2579  0.0516
23804W        W39613  12.246   0.764  16.730 -0.0897  0.0035  0.1019
23805W        W39614   6.779   8.742   5.889  0.0910  0.0285 -0.1506
23806W        W39615  12.554  16.909   2.533  0.0534 -0.2514 -0.0968
23807W        W39616  13.650   8.153   2.151 -0.0734 -0.0906 -0.2831
23808W        W39617   4.211  12.304  13.940  0.0876  0.0668 -0.4163
23809W        W39618  13.704   5.022   6.225  0.0158 -0.0021 -0.4032
23810W        W39619   5.254   9.081   1.291  0.0967 -0.1346  0.0363
23811W        W39620   9.172   2.458  14.016 -0.0423  0.1323 -0.3302
23812W        W39621  16.163   9.374   2.029 -0.1886 -0.0955 -0.0174
23813W        W39622  16.845   7.751   3.869 -0.3376  0.2191 -0.2352
23814W        W39623  16.512   7.896   2.978 -0.0492 -0.1726 -0.0514
23815W        W39624   7.679  15.456  12.809  0.0811 -0.0238  0.0348
23816W        W39625   7.991  16.940  12.976 -0.2603 -0.0724 -0.1001
23817W        W39626  16.865   8.844  14.701 -0.0900  0.1942  0.1912
23818W        W39627  17.605   3.191   3.542  0.0801  0.1451 -0.0461
23819W        W39628   5.848   6.998  12.713  0.1565  0.0911 -0.1054
23820W        W39629  11.526   0.694  13.500 -0.1786  0.2388  0.1280
23821W        W39630  16.857  11.590   4.233 -0.0469  0.0227  0.2517
23822W        W39631   2.343   9.520   0.572 -0.1627 -0.1347 -0.1103
23823W        W39632   6.894  12.513  15.588  0.0630  0.0266 -0.2793
23824W        W39633   0.112   8.893   5.511  0.0919 -0.2321 -0.0295
23825W        W39634  11.413   0.621  15.445 -0.2457 -0.1846 -0.3413
23826W        W39635   9.207  12.823  12.149  0.1603 -0.1863  0.1297
23827W        W39636   7.919   6.839  16.520  0.0963  0.3413  0.0563
23828W        W39637  10.427  13.227   1.855 -0.0972 -0.1472 -0.3092
23829W        W39638   5.505  13.583  11.682 -0.1008  0.0086  0.0689
23830W        W39639  16.334   8.134   3.741  0.0552 -0.1912 -0.2664
23831W        W39640   8.104  14.796  15.909  0.0923 -0.0284  0.2854
23832W        W39641   3.661   2.686   4.062  0.1958 -0.1206  0.4896
23833W        W39642  16.747   1.482  13.545 -0.1609 -0.0979  0.1080
23834W        W39643   5.629  15.287   3.358  0.0166  0.0766  0.0113
23835W        W39644  10.114   1.478  16.227  0.1038 -0.0224  0.1088
23836W        W39645   1.265   6.784   2.891 -0.2303 -0.1583  0.0931
23837W        W39646   4.403   7.893   2.796 -0.3714 -0.1238 -0.0776
23838W        W39647   8.146   6.617   3.060  0.1344 -0.0314  0.0654
23839W        W39648   0.316  13.733  14.256  0.0622  0.1563  0.1808
23840W        W39649   1.846   0.839  15.467  0.2353 -0.0751  0.0219
23841W        W39650  10.197   7.750  14.503  0.0737  0.0677 -0.1299
23842W        W39651  11.196   2.589  16.485  0.2077 -0.0635 -0.0403
23843W        W39652   2.978   1.472  12.436 -0.3011  0.0691 -0.0984
23844W        W39653  16.910   5.552   6.077  0.0768  0.2533 -0.0120
23845W        W39654   7.223   4.692  15.214  0.0780 -0.3134 -0.0004
23846W        W39655  12.908  15.072  13.802  0.4185  0.1191  0.2870
23847W        W39656  17.066   8.801  12.893  0.1935  0.0129 -0.2056
23848W        W39657  11.039   4.718  14.834 -0.1198  0.2363  0.1525
23849W        W39658  14.560   1.751   2.845 -0.1222 -0.2619 -0.2189
23850W        W39659  13.648  11.798  15.274  0.1143  0.2908  0.1137
23851W        W39660  14.387   1.387  12.878 -0.0469  0.1386 -0.0430
23852W        W39661  12.724  15.500  15.323 -0.0285  0.0042  0.0016
23853W        W39662   3.220  11.659  16.200 -0.1546 -0.2271  0.0951
23854W        W39663   2.296   9.363   1.976  0.0270 -0.1529  0.4864
23855W        W39664   3.317  11.832   5.846  0.0246 -0.1476  0.0571
23856W        W39665  12.228   3.669  12.719  0.2477  0.0189 -0.1028
23857W        W39666   7.711   6.371  12.125  0.0243  0.0951 -0.3038
23858W        W39667   8.273  12.792  12.170  0.0939 -0.1108 -0.1043
23859W        W39668  13.841   5.631   4.121  0.0223 -0.0316 -0.0383
23860W        W39669  10.280   7.604   5.924  0.0451  0.0669 -0.0502
23861W        W39670  10.316  12.959   0.402  0.0087 -0.3722  0.2316
23862W        W39671  16.111  16.497   4.083 -0.1681  0.3043 -0.2132
23863W        W39672   3.232   9.896  16.270  0.0518 -0.0657 -0.1655
23864W        W39673  10.709   0.642  11.553  0.3284 -0.4290  0.0180
23865W        W39674  16.482   7.517   4.418 -0.2980  0.1691  0.0457
23866W        W39675   6.076  11.838  14.699  0.1657  0.2230 -0.3073
23867W        W39676  10.388  12.361   2.046  0.1532 -0.2625  0.0320
23868W        W39677   4.565  15.688   4.331 -0.0893  0.0765  0.0195
23869W        W39678  12.074  14.884   4.077  0.2314  0.4841 -0.0000
23870W        W39679   3.357  15.114  14.458  0.0263 -0.2714  0.0832
23871W        W39680   5.191  17.127  13.709  0.2001 -0.0116 -0.2652
23872W        W39681   4.927  15.170  12.448 -0.0560  0.0710  0.0542
23873W        W39682   1.523  17.218   3.343 -0.2345  0.2878  0.0956
23874W        W39683  10.985  12.070  13.677 -0.1235 -0.2725 -0.1176
23875W        W39684  17.350   3.091  12.453  0.0989  0.0586 -0.0713
23876W        W39685   8.198   9.538   5.224 -0.1033  0.2967 -0.1180
23877W        W39686  16.560  11.291   3.947  0.1065 -0.2858  0.1715
23878W        W39687   9.478  10.505  16.336  0.1662  0.1791 -0.0303
23879W        W39688  10.483  13.004  16.242 -0.1024  0.1456 -0.3526
23880W        W39689  10.859   9.226  15.524 -0.0416 -0.2240 -0.1556
23881W        W39690   9.371   7.891   1.780 -0.0790 -0.1408  0.2750
23882W        W39691   0.474   4.140   5.209  0.0693 -0.0142  0.2905
23883W        W39692   9.512  13.448  11.672  0.1061 -0.2061 -0.3629
23884W        W39693  16.458  15.885   3.574 -0.2300  0.0490  0.2826
23885W        W39694  15.147   6.192  12.622  0.0746  0.1713 -0.1814
23886W        W39695   9.862   7.652   0.137 -0.2195 -0.2342 -0.0315
23887W        W39696  12.094  11.202  12.545  0.1311 -0.0523  0.0616
23888W        W39697  16.736  11.294   3.453  0.1406 -0.0194 -0.0378
23889W        W39698   5.803   3.871   0.666  0.2794  0.0809  0.0025
23890W        W39699   0.681  17.334   0.600  0.0418 -0.1239 -0.0168
23891W        W39700   1.573  15.068   4.238 -0.0268  0.1241 -0.1843
23892W        W39701   9.559   0.120   1.667  0.1407  0.1688 -0.0162
23893W        W39702   3.671  12.740   2.840 -0.1223  0.1187  0.2611
23894W        W39703  11.136   1.780   3.199  0.0013 -0.2572  0.1064
23895W        W39704  15.805   4.621  14.978  0.0421  0.1524  0.3562
23896W        W39705  13.329   1.101   4.450 -0.0112  0.2761 -0.1588
23897W        W39706   5.580   7.423   3.952 -0.2697 -0.2010  0.1025
23898W        W39707  11.780  12.734  11.964  0.0791  0.2264  0.3466
23899W        W39708   6.143   6.793  14.030 -0.0565  0.3526  0.2412
23900W        W39709   1.064   9.787   3.997  0.2087  0.1545  0.0014
23901W        W39710  12.997   0.090  14.013  0.0878  0.0700  0.0916
23902W        W39711   9.528  14.131  16.120  0.0788 -0.0842 -0.0282
23903W        W39712   8.229   5.242   2.032 -0.0722 -0.1247  0.1381
23904W        W39713   4.015  14.423   2.689 -0.1516  0.0069  0.1204
23905W        W39714   7.530  10.010  15.828  0.1552 -0.1219 -0.1815
23906W        W39715   6.679  16.142  13.829  0.2966  0.0750 -0.0635
23907W        W39716   1.942  14.229   2.311  0.1520 -0.0782  0.1846
23908W        W39717  17.535   7.328  14.161  0.1221  0.1619  0.1084
23909W        W39718   2.922  16.635   4.332 -0.2374  0.0064 -0.0064
23910W        W39719  12.208   7.688   2.973  0.1030  0.2613  0.2039
23911W        W39720  11.652   1.306   4.319  0.2156  0.0873  0.2515
23912W        W39721  16.477  14.989   0.854  0.1466  0.0584 -0.0283
23913W        W39722  13.144  14.679   3.712  0.0878 -0.1540 -0.0841
23914W        W39723  11.738  15.104   3.681 -0.0835  0.0311 -0.0298
23915W        W39724   5.171   2.319  14.558  0.0277 -0.1463 -0.1172
23916W        W39725   3.952  10.295   2.899 -0.2084 -0.0438 -0.1822
23917W        W39726   5.621  11.926   1.479 -0.1824 -0.2793  0.1933
23918W        W39727   5.068  14.066   6.390 -0.2836 -0.2466  0.1285
23919W        W39728   0.800   6.571   1.858 -0.0214  0.0051 -0.1853
23920W        W39729  10.196  10.540  11.634  0.0226 -0.0893 -0.1750
23921W        W39730   9.077  13.357  16.976  0.1802  0.2727  0.0029
23922W        W39731  16.080   0.169  13.978  0.2499  0.2934 -0.0356
23923W        W39732   6.636  14.471  16.720 -0.1662  0.0110 -0.2725
23924W        W39733  13.870   3.495  14.471  0.3616 -0.2529  0.0462
23925W        W39734   4.641   3.554   3.662  0.2763 -0.2038 -0.0243
23926W        W39735  13.354  11.927   1.580  0.0442 -0.0271 -0.1957
23927W        W39736   2.978  12.354  12.043  0.0833 -0.0029 -0.1913
23928W        W39737   8.901  11.389   2.047 -0.0582 -0.2314  0.2421
23929W        W39738  15.332  16.320  11.237  0.3613  0.2091 -0.1057
23930W        W39739  14.356  14.437   4.163 -0.0820 -0.2236  0.1600
23931W        W39740   9.476   4.174   0.837  0.0494 -0.3853  0.1230
23932W        W39741  13.171  13.305  11.140 -0.0943 -0.0798 -0.0135
23933W        W39742   2.599   2.910  15.912  0.1711  0.1981 -0.0159
23934W        W39743   7.607  12.129   4.545  0.1036  0.3366  0.0185
23935W        W39744  11.893  12.040  13.015  0.1790 -0.1105  0.0439
23936W        W39745   8.895   7.616   1.123  0.1014  0.3626  0.1100
23937W        W39746  15.743  13.696  14.791 -0.1802 -0.0314  0.1271
23938W        W39747   0.453  11.524  15.374 -0.2758  0.3202 -0.0837
23939W        W39748  13.106   6.799  14.247 -0.3907 -0.1789 -0.0465
23940W        W39749   5.941   3.056  14.633 -0.0928  0.0896  0.2248
23941W        W39750   2.653   6.620   4.088  0.0598 -0.3634  0.1241
23942W        W39751   4.076  14.081  12.213 -0.0818  0.0922  0.1025
23943W        W39752  10.929   9.979   2.587  0.0285  0.2939 -0.0818
23944W        W39753  16.921  11.348   4.681  0.3701 -0.2374  0.0820
23945W        W39754   6.987  17.179   0.777 -0.1316 -0.1930  0.0636
23946W        W39755   3.143   2.706   4.092 -0.1190 -0.2546  0.0392
23947W        W39756   8.658  14.472  16.041 -0.0165  0.1594 -0.0192
23948W        W39757  16.382   0.405   1.193 -0.2261 -0.0799 -0.0251
23949W        W39758  11.749   3.902   2.085  0.1790 -0.1591 -0.1423
23950W        W39759  13.746   3.611  12.148  0.3000 -0.0593  0.1108
23951W        W39760  11.370   1.116   5.123  0.0109 -0.0211 -0.2616
23952W        W39761  15.485   6.975   0.993  0.2747  0.1838 -0.1111
23953W        W39762  10.789   5.229   0.750 -0.2812 -0.0405 -0.1415
23954W        W39763   6.591   5.591  12.037 -0.0687  0.0060  0.2204
23955W        W39764   2.154  12.570  12.877  0.0717  0.0997 -0.1970
23956W        W39765  13.478   7.319   5.099  0.2216  0.0827  0.1555
23957W        W39766   7.399   4.488   4.490 -0.0462  0.0128  0.0488
23958W        W39767   6.028  17.334   4.227 -0.0243  0.2953  0.0736
23959W        W39768  12.406   0.700   1.484  0.3789 -0.1915  0.3165
23960W        W39769   3.611  17.628  16.171 -0.0446  0.1518  0.1201
23961W        W39770   8.501  12.678   4.208  0.0360 -0.3845 -0.4639
23962W        W39771  10.298   1.539  12.519  0.1522  0.3423  0.4570
23963W        W39772   2.457   5.715   4.284 -0.0819  0.4661 -0.1507
23964W        W39773   3.457  14.064  15.667 -0.0222 -0.1319 -0.1905
23965W        W39774  13.041  13.739  12.823  0.2284 -0.1373 -0.1227
23966W        W39775   1.378  13.383   0.571  0.0273 -0.1842 -0.2373
23967W        W39776  14.489  12.108   2.690 -0.0951  0.1826 -0.0697
23968W        W39777   1.254  10.637   4.368 -0.1832 -0.0814 -0.3152
23969W        W39778  11.361   4.889   5.154  0.1466  0.3449 -0.3564
23970W        W39779   4.946  12.454  12.798  0.1440  0.0417  0.1140
23971W        W39780  10.253   9.173   1.887  0.0280  0.1843 -0.3349
23972W        W39781  13.972  16.799   2.267 -0.0886 -0.0699 -0.4331
23973W        W39782   2.190  11.086  14.162 -0.0271  0.0379  0.1647
23974W        W39783   9.867   4.703  14.371 -0.2185 -0.1521 -0.1469
23975W        W39784  17.227   9.742  12.899  0.1468 -0.3332  0.0003
23976W        W39785  14.053  12.611   4.462  0.0654  0.4405 -0.1124
23977W        W39786   5.063  14.284  13.539  0.0887 -0.0366 -0.1031
23978W        W39787   0.126   9.118  16.758 -0.0521  0.1128  0.0680
23979W        W39788  12.855  16.067   3.608 -0.1978  0.2326  0.1852
23980W        W39789  14.941   6.991   6.294  0.3289  0.0634  0.0032
23981W        W39790   9.807  12.960  15.222  0.1311 -0.2347 -0.1901
23982W        W39791   5.697  12.296  15.468  0.3410 -0.1209 -0.1865
23983W        W39792  15.824   3.134   1.372  0.3207 -0.0573 -0.2408
23984W        W39793  10.064  16.929   1.419 -0.0184 -0.2367  0.2118
23985W        W39794   2.570  10.430  12.371  0.3160  0.1553 -0.0412
23986W        W39795   1.294   6.340   5.953 -0.0858 -0.0864 -0.0334
23987W        W39796   3.324  10.205   4.771 -0.1884  0.1785  0.0458
23988W        W39797  11.119   8.416   1.779  0.1134 -0.3882 -0.1838
23989W        W39798   8.070  11.430   4.460 -0.0846 -0.1370  0.2450
23990W        W39799  16.633  12.566  16.771  0.2953  0.0413 -0.0751
23991W        W39800   2.640   0.040  14.083 -0.2425 -0.0235  0.2159
23992W        W39801   2.157  15.834  12.121 -0.0826  0.0863  0.1140
23993W        W39802  12.675   4.369   1.033  0.0544 -0.2002  0.1293
23994W        W39803  13.805  14.292  14.525  0.1797 -0.1848 -0.0125
23995W        W39804  12.193  16.612  11.893 -0.0906 -0.0620 -0.1980
23996W        W39805   9.843   9.411  13.145 -0.0182  0.0898 -0.2148
23997W        W39806  13.681  11.808  13.387  0.1331  0.1101 -0.0230
23998W        W39807  14.736   7.424   1.486 -0.0558 -0.2044  0.3305
23999W        W39808  13.963  13.797   5.036  0.1824 -0.1935 -0.1287
24000W        W39809   4.509  14.289   3.426  0.0341 -0.0910  0.0485
24001W        W39810   0.052  10.605  13.105  0.0120 -0.0133  0.2083
24002W        W39811   6.695   0.309  15.090 -0.1901 -0.0581 -0.1353
24003W        W39812   3.513   9.087   2.675 -0.0469  0.1592 -0.2830
24004W        W39813  10.543   9.662  16.599 -0.0189 -0.1268  0.3482
24005W        W39814   7.204  17.696  12.883 -0.0735  0.4119  0.2003
24006W        W39815   4.480  12.793   2.078  0.3568  0.0633  0.2768
24007W        W39816  10.278   3.575  15.421 -0.3142  0.2986 -0.0600
24008W        W39817  14.644  17.012   1.354  0.1313 -0.2803  0.1589
24009W        W39818  10.236   4.519  11.430 -0.0615  0.0288 -0.0716
24010W        W39819   1.929   0.364   0.315 -0.1034  0.2210  0.0269
24011W        W39820  11.561  16.714  14.272 -0.2521 -0.1222 -0.0060
24012W        W39821  13.926   6.791   1.466 -0.2853 -0.0511 -0.1136
24013W        W39822  11.857   3.969  16.845  0.2110 -0.1007  0.1483
24014W        W39823  11.385  14.654   3.478 -0.0281 -0.0129 -0.1721
24015W        W39824   7.321  10.464  15.917 -0.0533 -0.0979  0.2020
24016W        W39825   2.102   7.987   2.087 -0.1572 -0.2370 -0.1067
24017W        W39826  17.357  14.831   4.382  0.0672  0.1935 -0.2812
24018W        W39827   6.055   7.911   0.937  0.0930  0.3372  0.4915
24019W        W39828   9.210  15.779  14.711  0.0687  0.3008 -0.1809
24020W        W39829   9.347   2.928   3.571  0.0400  0.1335  0.1646
24021W        W39830   9.015  17.690   4.981  0.2563  0.0656 -0.1431
24022W        W39831   0.658   8.073  13.394  0.0308  0.3705 -0.1326
24023W        W39832   6.871   9.887  13.278 -0.0557 -0.0460 -0.3778
24024W        W39833   7.962   1.152  14.002  0.0059  0.4083 -0.2621
24025W        W39834   6.690  16.479  11.967 -0.0613  0.4099 -0.0070
24026W        W39835   6.555  11.316  15.443  0.1935 -0.3105  0.0002
24027W        W39836   6.316  10.566   3.183  0.1299 -0.0707 -0.1518
24028W        W39837   9.440   0.428  15.190  0.0616 -0.1402 -0.1251
24029W        W39838   4.774  15.660   4.768 -0.1612 -0.0094  0.1099
24030W        W39839   4.853  10.621   4.661  0.0916 -0.1934 -0.0548
24031W        W39840   3.125  14.540  14.590 -0.0159 -0.2963 -0.1924
24032W        W39841   3.900   7.410   4.708 -0.0986 -0.1686  0.1258
24033W        W39842  16.432   5.010  12.920 -0.0143  0.3085 -0.0646
24034W        W39843   5.471   7.584  13.636  0.2882  0.2120  0.2619
24035W        W39844   8.596  16.219  15.861  0.3088 -0.0891  0.0980
24036W        W39845   9.438  17.535   5.254  0.2397  0.0099 -0.2042
24037W        W39846   8.475   6.009  11.922 -0.0462 -0.1634  0.1982
24038W        W39847   9.140   0.146  14.866  0.0948 -0.1464 -0.1032
24039W        W39848   6.243   9.581  16.722  0.1480  0.3676  0.2241
24040W        W39849   5.824  15.358  14.703  0.0750  0.0023  0.0921
24041W        W39850   7.155  16.156  11.537 -0.0178 -0.1500  0.0396
24042W        W39851   7.694   8.953  11.632  0.1535  0.0520 -0.1157
24043W        W39852   7.973  16.454   3.477 -0.0772 -0.2414 -0.4883
24044W        W39853  17.219  17.185   0.239  0.2578 -0.0500  0.0708
24045W        W39854  15.067  16.877  12.061 -0.0184  0.1892 -0.0567
24046W        W39855  14.616  16.815  15.967  0.1478  0.2367  0.0742
24047W        W39856   9.933   8.571   0.715  0.1956 -0.2502  0.0833
24048W        W39857  16.231   5.463   5.244 -0.1407 -0.4962 -0.0072
24049W        W39858   4.189   6.822  15.744 -0.1918 -0.1559 -0.1515
24050W        W39859   1.690  12.752  16.872 -0.3141  0.4108  0.1139
24051W        W39860   7.775   0.582   1.230 -0.0837  0.2697 -0.0625
24052W        W39861  15.922  12.742  14.101 -0.0143  0.2522 -0.1702
24053W        W39862   5.600   1.045   4.387 -0.2307  0.1587  0.1032
24054W        W39863  15.652   2.836   5.304  0.0974  0.4078  0.0420
24055W        W39864   9.181   1.101  13.978 -0.2696  0.0428  0.0304
24056W        W39865  12.362   2.816   5.280  0.1965 -0.1492  0.1427
24057W        W39866  11.975  10.929  16.569  0.0581  0.0849  0.0201
24058W        W39867  16.661   4.970  16.941 -0.1288  0.0826 -0.1150
24059W        W39868  10.233  15.157   4.405  0.2971 -0.1386  0.0469
24060W        W39869   2.749   5.248  16.175  0.1533  0.0644  0.1151
24061W        W39870   7.831  16.911  12.251  0.0176 -0.1788 -0.0732
24062W        W39871  15.371   4.743  15.964  0.1039 -0.0190 -0.1119
24063W        W39872  16.424   9.031   1.217  0.0222  0.0061  0.1118
24064W        W39873   7.527  12.229   0.869  0.1110 -0.1869 -0.3348
24065W        W39874  15.034   9.893  15.038  0.3057 -0.3197  0.1496
24066W        W39875   4.274  12.046  16.842  0.2846 -0.0695 -0.3355
24067W        W39876  13.664   9.266   0.487 -0.2549  0.0913 -0.1005
24068W        W39877  14.299   0.757  12.415  0.2125  0.0319 -0.1444
24069W        W39878   2.052  12.910   2.489 -0.1677 -0.0158 -0.1735
24070W        W39879  16.374  10.575  16.728  0.1628  0.0396 -0.2268
24071W        W39880   8.198  17.724   0.487 -0.0600  0.0648  0.0716
24072W        W39881   1.910   2.389   0.704  0.1158  0.2662  0.1072
24073W        W39882  10.005   0.745  10.974 -0.1142  0.1369 -0.0878
24074W        W39883  13.018   2.954   3.370  0.1101 -0.1403  0.1406
24075W        W39884   7.594   7.758  13.731  0.1583  0.1376 -0.1400
24076W        W39885  12.438   0.760  13.665 -0.0418  0.3135 -0.2374
24077W        W39886  17.215   9.459   3.372 -0.3323  0.1142 -0.1976
24078W        W39887  10.694   1.952  16.623 -0.0737 -0.2142 -0.1145
24079W        W39888   2.904   9.473   1.677 -0.0839 -0.0987 -0.2796
24080W        W39889   6.535   0.872  15.993  0.4186  0.1183  0.0908
24081W        W39890  15.199  15.990  16.753  0.2559  0.0871  0.1367
24082W        W39891   1.744  15.074   1.445 -0.1113 -0.2736 -0.3331
24083W        W39892   6.022  15.953   0.782 -0.0849 -0.0737 -0.1457
24084W        W39893  13.148   6.887   1.285 -0.1861  0.1394  0.0557
24085W        W39894  11.983   5.593   2.361  0.1656  0.3602  0.1530
24086W        W39895   8.602   5.799   4.859 -0.1883 -0.0664 -0.2434
24087W        W39896   3.596  14.378  11.556  0.0137 -0.1814 -0.3561
24088W        W39897   5.083  17.435   2.323  0.1740 -0.1516 -0.2991
24089W        W39898   7.209   6.411  13.871 -0.0551  0.2021  0.3178
24090W        W39899   1.862   5.039   1.268 -0.1686  0.0250  0.1098
24091W        W39900  10.636   2.389   0.561 -0.1059 -0.0393 -0.0289
24092W        W39901   7.187   8.269   0.565 -0.0875 -0.1176 -0.0475
24093W        W39902  11.879   0.650   1.514 -0.0870 -0.0400  0.1731
24094W        W39903   8.365   5.609  16.336 -0.1953  0.0790 -0.4408
24095W        W39904   4.877   0.473  16.398 -0.0301  0.0742 -0.4380
24096W        W39905   4.807  16.880  16.027 -0.2031  0.0527 -0.1452
24097W        W39906   1.093   5.018   4.098  0.1650  0.0680 -0.4437
24098W        W39907  15.387  16.537  15.545 -0.0251 -0.0476  0.1500
24099W        W39908   9.598  14.043  14.145 -0.1616 -0.0173 -0.0663
24100W        W39909   8.247   1.605  15.380 -0.0776  0.0618 -0.1727
24101W        W39910  10.665   9.778  12.131 -0.1254  0.2310 -0.3329
24102W        W39911   3.551   9.603  14.448 -0.1673 -0.1771 -0.0404
24103W        W39912   2.714   3.466  15.744 -0.1739 -0.1793  0.2540
24104W        W39913   4.915   8.742   0.494 -0.3103 -0.0561 -0.1255
24105W        W39914  14.596  13.955  16.631  0.2594 -0.2570  0.0603
24106W        W39915   4.116   1.853  12.452  0.1262 -0.6335  0.0785
24107W        W39916   9.876  17.509   5.644  0.2617 -0.0860  0.3414
24108W        W39917  12.200  13.684   6.070 -0.0605 -0.0779  0.2365
24109W        W39918  10.550   4.717   4.787 -0.1429  0.0717  0.0505
24110W        W39919  12.568   2.867   1.284 -0.0413 -0.2781 -0.2247
24111W        W39920  10.212   8.892  15.364 -0.3250 -0.0192  0.0844
24112W        W39921  17.434   6.299  15.748  0.0941  0.1283  0.0475
24113W        W39922  13.168  15.723  15.534 -0.1506 -0.0515  0.3280
24114W        W39923  17.131   0.198   1.754 -0.1034  0.0987  0.1623
24115W        W39924  14.375   0.122  14.153  0.2128  0.0149 -0.0204
24116W        W39925   2.244   6.405   0.167 -0.3368 -0.1175  0.0700
24117W        W39926   7.099   0.864  13.576  0.1400  0.2381  0.1912
24118W        W39927  10.127  12.003   4.052 -0.0208  0.1598  0.0191
24119W        W39928   8.480  16.530   0.272 -0.2925 -0.0263  0.1820
24120W        W39929  15.266   7.461  14.620 -0.1293 -0.1949 -0.0024
24121W        W39930  10.064  12.585   1.306 -0.1221 -0.2339 -0.1759
24122W        W39931  12.483   6.768   3.044 -0.0403  0.0622  0.1657
24123W        W39932  13.405   9.098   3.962 -0.1569  0.0051  0.1347
24124W        W39933   1.069   5.574  15.388 -0.1148 -0.0264  0.1460
24125W        W39934   6.001  12.048   2.664  0.0274  0.1517 -0.1341
24126W        W39935   6.633   8.531  15.978 -0.0041 -0.0794  0.1021
24127W        W39936   8.980   2.823  11.942 -0.1097 -0.0141  0.0136
24128W        W39937  13.132   7.720   0.431  0.0932  0.1906 -0.1662
24129W        W39938   4.057  12.026  14.880  0.2382  0.3552  0.2359
24130W        W39939  12.153   9.592   0.978  0.1686  0.0004 -0.0354
24131W        W39940  15.834  15.995   3.094 -0.1162 -0.0154  0.2186
24132W        W39941  15.730   8.800  12.726  0.2214 -0.2745  0.1805
24133W        W39942  15.040   8.181  15.472 -0.0492  0.2658  0.1670
24134W        W39943  15.943   7.943  12.402  0.5570 -0.2008 -0.3885
24135W        W39944   7.304   3.445  12.503  0.2942  0.3175  0.1990
24136W        W39945   8.504  13.484  10.901 -0.1631 -0.0125  0.1158
24137W        W39946   2.559   4.197  15.221  0.2340  0.2406 -0.1960
24138W        W39947   5.406   8.691   4.088 -0.0330  0.2720 -0.0759
24139W        W39948  13.434  15.859   4.704  0.2810  0.1161  0.1764
24140W        W39949  10.319  17.080  14.903 -0.1104  0.2532 -0.2082
24141W        W39950   2.397  10.270   4.318  0.3082 -0.2753 -0.3071
24142W        W39951  14.956  14.258   4.927  0.1817  0.2439 -0.1420
24143W        W39952  13.472   6.631  15.768  0.1049 -0.1328  0.3587
24144W        W39953  16.702   1.328   2.774 -0.0582  0.0229  0.0582
24145W        W39954  14.870   0.385   5.541 -0.0441 -0.2491 -0.0301
24146W        W39955   3.669  12.202   1.974 -0.3332 -0.2458  0.5513
24147W        W39956   6.976  15.109   1.378  0.5960 -0.0519  0.1527
24148W        W39957   0.634   9.680  14.641 -0.0049  0.3672  0.0074
24149W        W39958   5.141   4.064  11.930  0.1963 -0.0030 -0.3009
24150W        W39959  15.545   4.599  15.462  0.1417  0.3688 -0.3186
24151W        W39960   1.496  11.798   2.760  0.0682 -0.1717  0.0271
24152W        W39961  11.894  15.272  15.743  0.2024  0.0892 -0.2998
24153W        W39962  10.177   9.422  14.823 -0.2254  0.0821 -0.0031
24154W        W39963   1.657   8.531   0.964  0.1475  0.2068  0.0443
24155W        W39964   9.323   6.913  15.201 -0.3310 -0.1333 -0.3277
24156W        W39965   8.066  14.993   0.202  0.1855 -0.0021 -0.2544
24157W        W39966   4.901   7.830   5.736  0.0231  0.2735 -0.1752
24158W        W39967   8.859   9.139  14.470  0.0885  0.0075 -0.1129
24159W        W39968   6.143   7.607   0.388  0.0481  0.0123 -0.0432
24160W        W39969  13.295   0.463   1.326  0.0688  0.1186  0.3355
24161W        W39970  15.608   5.594   3.967  0.1232  0.1843  0.2812
24162W        W39971  11.625   1.658   2.169 -0.1122  0.0332  0.1674
24163W        W39972  14.892  14.625  15.262 -0.0918  0.0750  0.1008
24164W        W39973  14.977  15.187  16.195  0.0281  0.2021  0.1911
24165W        W39974  16.551   5.533   5.594  0.0574  0.0818 -0.1152
24166W        W39975  15.136   5.675  16.024 -0.2255 -0.1512 -0.1062
24167W        W39976  11.808  14.168  14.490 -0.2692 -0.0243 -0.0447
24168W        W39977   4.838  10.612  14.846 -0.2420  0.3925 -0.2303
24169W        W39978   6.306  10.264   3.955  0.1444  0.2137  0.3499
24170W        W39979   2.050   7.995   1.026 -0.1334 -0.0355 -0.2900
24171W        W39980  12.811   9.245   5.134 -0.1190  0.0609  0.0494
24172W        W39981  10.678  14.893  14.390  0.2083  0.1506 -0.0459
24173W        W39982  14.380   9.648   1.942  0.2283 -0.1490 -0.2074
24174W        W39983   1.969   8.079  13.853 -0.2316  0.3598  0.2187
24175W        W39984   5.307   6.694   1.417 -0.1676 -0.1707 -0.1308
24176W        W39985   7.820  12.742  14.064  0.0928 -0.0284  0.2355
24177W        W39986  14.498   7.248  10.794  0.1106 -0.2053 -0.0131
24178W        W39987   9.024  12.790   0.857  0.1521  0.0660  0.1021
24179W        W39988   9.759   1.353   2.146 -0.2318  0.0888 -0.2356
24180W        W39989  17.051   9.919   4.725  0.0392  0.0133 -0.1581
24181W        W39990   9.587  16.759  13.793 -0.2045 -0.0587  0.0931
24182W        W39991   8.541  13.881  12.591 -0.0171  0.1349  0.0529
24183W        W39992   3.025  13.134  13.676 -0.0455  0.2484 -0.1302
24184W        W39993  11.260  17.224  11.341 -0.3241 -0.1524  0.1014
24185W        W39994   9.107   5.938   5.620  0.2324 -0.3977  0.0328
24186W        W39995   1.970  17.297  14.728 -0.1931 -0.1447  0.0620
24187W        W39996   6.295   9.785   2.050 -0.0737 -0.0369 -0.4387
24188W        W39997   0.264   4.691   1.565  0.1689  0.2253  0.1438
24189W        W39998  15.942   4.089  16.030 -0.1215 -0.1794 -0.1792
24190W        W39999  14.324  11.215   2.740  0.0314 -0.0183 -0.2248
24191W        W40000  16.620  16.489  15.071 -0.1543  0.0713  0.1724
24192W        W40001   1.411  15.000   1.044 -0.0709  0.0843  0.1433
24193W        W40002   1.695  16.134   4.293  0.0429 -0.1293 -0.0576
24194W        W40003   2.940   7.185  12.280  0.4002  0.1016  0.1349
24195W        W40004  14.823   3.448   1.399 -0.2468 -0.0485  0.0901
24196W        W40005   6.708  13.095  16.680  0.0154  0.2080 -0.0585
24197W        W40006  16.392   6.087   5.484  0.0145  0.5760 -0.1857
24198W        W40007  13.356   8.948   0.772 -0.3478 -0.2914 -0.2297
24199W        W40008  17.606   2.641  13.432 -0.2976 -0.3136 -0.0822
24200W        W40009  15.749  10.209   2.825 -0.1525 -0.1391 -0.3785
24201W        W40010  15.199  14.407   1.986  0.0063  0.1554  0.2130
24202W        W40011  16.699   6.515   4.213  0.0342  0.1489 -0.2378
24203W        W40012   6.065  13.449  15.453 -0.1334  0.2727 -0.0427
24204W        W40013  16.973  16.768  16.070 -0.1736 -0.2213 -0.2967
24205W        W40014   3.081  16.338  12.386 -0.0542  0.1246  0.0066
24206W        W40015   1.614   2.750  13.304 -0.0224 -0.1992  0.0454
24207W        W40016  14.730   0.642  14.023  0.0146  0.1539  0.2102
24208W        W40017   2.410  12.556   3.211  0.0387 -0.0789  0.1136
24209W        W40018  13.068   7.184  13.631 -0.2784 -0.2786 -0.2076
24210W        W40019   0.834   7.956  15.253 -0.3613  0.1855 -0.2208
24211W        W40020   1.746   9.037   4.704  0.2882  0.3202  0.2642
24212W        W40021   7.685   4.741  14.453 -0.1335 -0.0809 -0.1118
24213W        W40022   9.384   7.758  15.806 -0.0239  0.0024 -0.4044
24214W        W40023   0.938  14.304   3.222 -0.2718 -0.0629  0.2898
24215W        W40024   1.626  17.305   2.180  0.1756  0.2843 -0.2435
24216W        W40025  16.064  12.295  15.246  0.4869  0.1928  0.0507
24217W        W40026  13.073  16.415   3.962 -0.0911  0.1862 -0.4098
24218W        W40027  15.768   7.660  13.956  0.3292  0.1304 -0.1054
24219W        W40028   7.453   2.421  16.354  0.1974  0.1225  0.3253
24220W        W40029   7.417  13.718   1.689  0.0459  0.0598  0.1195
24221W        W40030  16.495   3.461  14.604 -0.1495 -0.3716  0.3493
24222W        W40031   7.669   0.840   4.053 -0.2909  0.4031 -0.3449
24223W        W40032   9.442   0.066  11.265  0.0159  0.3287 -0.2097
24224W        W40033   9.848   6.631  16.344  0.1145 -0.1659 -0.0275
24225W        W40034  10.344  16.104   2.035 -0.0786 -0.0219 -0.1096
24226W        W40035   4.911   9.460  16.065  0.3477 -0.0593 -0.0502
24227W        W40036   0.913   5.040  13.961 -0.1517 -0.1277  0.3978
24228W        W40037  13.617  14.117  15.057  0.2909  0.1870 -0.1495
24229W        W40038  17.515   2.224   1.158  0.0604  0.0586 -0.2506
24230W        W40039   1.177  14.207  15.275  0.1434  0.1120 -0.2535
24231W        W40040   3.960   5.003   6.641  0.1024  0.2301  0.0486
24232W        W40041   2.296   2.160   0.904  0.1389  0.0419  0.2972
24233W        W40042  16.005   7.553  16.044  0.1770  0.2220  0.0509
24234W        W40043   1.233  11.294   0.758 -0.2630  0.1985  0.0074
24235W        W40044   4.079   1.120   2.467 -0.1100  0.1752  0.1273
24236W        W40045   8.371   9.735  16.140  0.1115  0.0673  0.0100
24237W        W40046  14.590  17.388   5.891 -0.0300 -0.3168  0.2581
24238W        W40047   0.933  12.753  14.622 -0.2360 -0.1423  0.3923
24239W        W40048  13.326   2.210  13.905  0.3186  0.1773  0.1081
24240W        W40049  11.447   7.175   1.962  0.3999 -0.1784  0.0851
24241W        W40050  10.906   3.800  13.198 -0.1387 -0.4707  0.2840
24242W        W40051   9.870   2.534   4.270 -0.0200  0.1833 -0.1257
24243W        W40052  16.717  16.980   4.462  0.1213 -0.1802  0.0366
24244W        W40053  15.193   0.430  14.796 -0.2548  0.0744 -0.0128
24245W        W40054   9.726  11.889   4.327  0.1283 -0.2238 -0.0062
24246W        W40055   6.010  17.251   5.860  0.2054 -0.1249 -0.0267
24247W        W40056  11.046   1.133   2.457 -0.3055 -0.1519 -0.0553
24248W        W40057   7.045  12.727  15.133 -0.0821 -0.1454 -0.0581
24249W        W40058   3.299  12.248  15.447  0.0170 -0.3499 -0.0992
24250W        W40059   0.791  11.073  14.677  0.4048  0.2069 -0.2255
24251W        W40060   2.907   6.175  14.100 -0.0751  0.0375  0.1140
24252W        W40061   3.782   7.622   1.372  0.2524 -0.2295 -0.0216
24253W        W40062   5.469  11.616   5.106 -0.2580 -0.1516  0.0503
24254W        W40063  12.929   4.674   2.202 -0.0184  0.0856 -0.1241
24255W        W40064  13.543   3.164   6.197 -0.1096  0.1905  0.0023
24256W        W40065   5.737  16.191   3.387  0.1870 -0.4013  0.2272
24257W        W40066  12.486   0.100   2.648  0.0513 -0.0032 -0.0324
24258W        W40067  12.866   7.993  16.657 -0.2639 -0.0234  0.0144
24259W        W40068  11.623  15.622  12.372  0.0043 -0.3400  0.0721
24260W        W40069   4.294   3.467   4.010  0.2746  0.0706  0.1201
24261W        W40070   1.373  11.192  11.400  0.0150  0.0636  0.3294
24262W        W40071   6.014   2.985   0.081 -0.0601  0.2700 -0.0526
24263W        W40072  15.060  14.871   4.933 -0.2187  0.1246 -0.1264
24264W        W40073  17.198  12.131  13.981 -0.0298  0.1259 -0.0393
24265W        W40074  10.441  14.446  14.613 -0.0049 -0.2302  0.2523
24266W        W40075  16.295   2.650  13.293  0.3079 -0.1009 -0.0420
24267W        W40076   0.591  12.644  12.613  0.1517  0.1389  0.2502
24268W        W40077   7.700   7.995   4.086  0.0105  0.0663  0.0283
24269W        W40078   0.898  14.729  16.821  0.0087  0.1396  0.1329
24270W        W40079   8.945   6.380  12.817  0.2074  0.0361 -0.1452
24271W        W40080  13.722   4.716  15.875  0.2321 -0.3559  0.0099
24272W        W40081   3.107   0.634  15.765  0.0216  0.0898  0.3099
24273W        W40082  15.262   4.894  11.432 -0.1997  0.0394  0.0994
24274W        W40083  12.968  13.238   1.355 -0.1617 -0.1261  0.0104
24275W        W40084   0.157   8.530  16.019  0.4338 -0.1252 -0.2059
24276W        W40085  17.274  12.471  14.982 -0.1202  0.0400  0.0653
24277W        W40086  11.016  14.062  12.022 -0.2650 -0.0501 -0.0465
24278W        W40087  13.267   5.340  15.750  0.1427  0.0616  0.0940
24279W        W40088  17.198   7.962  16.733  0.2519  0.1377 -0.0337
24280W        W40089  15.691   1.156   0.652 -0.1490 -0.0624 -0.2501
24281W        W40090  11.953  10.956   3.214  0.1592  0.0750 -0.1156
24282W        W40091  12.912   0.057  15.276 -0.0365 -0.0975 -0.1153
24283W        W40092   2.664   5.548   4.759 -0.0367 -0.3389  0.1930
24284W        W40093  15.536   1.158   1.460 -0.1049  0.2448  0.3784
24285W        W40094   7.937   8.560  12.614  0.0670 -0.0947  0.0365
24286W        W40095   9.563   5.593  15.480  0.3597  0.3061  0.2914
24287W        W40096   6.249  15.331   4.402 -0.2264  0.3813 -0.4418
24288W        W40097  12.391   0.280  15.823  0.0676 -0.1306  0.0573
24289W        W40098  11.812  15.431  12.796 -0.0192  0.1041  0.2018
24290W        W40099  15.197   1.726   5.965 -0.0939  0.0392  0.0554
24291W        W40100  11.235  15.452   4.517  0.0226 -0.0371 -0.0695
24292W        W40101  16.870  11.323   5.244 -0.0813 -0.0730 -0.4487
24293W        W40102  12.956   8.080   3.653  0.0121 -0.1413  0.0330
24294W        W40103   6.308   9.334   3.406 -0.0322 -0.0578 -0.1650
24295W        W40104  10.917  17.608  11.399 -0.0606  0.3331 -0.0132
24296W        W40105  16.292   8.928   5.611 -0.1834  0.2003  0.0281
24297W        W40106   6.294   8.663   5.657 -0.5250  0.0443 -0.4123
24298W        W40107  14.754  14.880  15.798 -0.1281 -0.2282  0.0636
24299W        W40108   0.502   9.377   0.631  0.0892  0.1032  0.0087
24300W        W40109   0.115   1.276  12.393  0.0972  0.0838 -0.4263
24301W        W40110   4.326  13.242  14.581  0.1442  0.2101 -0.1566
24302W        W40111  12.272  14.617  16.883  0.0064  0.0619  0.3249
24303W        W40112   7.020   2.973   5.606  0.0800  0.0700  0.0837
24304W        W40113   1.847  10.818  13.910 -0.0889 -0.1977  0.3737
24305W        W40114   3.648  17.249   4.706 -0.0505 -0.1495 -0.1217
24306W        W40115  15.913  11.696  16.041  0.1396 -0.1091 -0.2445
24307W        W40116   1.900   2.099  13.867 -0.0014  0.0707 -0.3133
24308W        W40117  15.093  10.281  11.680  0.0498 -0.0336  0.0563
24309W        W40118  14.998   1.364   4.819 -0.0030 -0.0794 -0.0975
24310W        W40119  11.668   0.110  12.105  0.0548  0.0078 -0.0237
24311W        W40120  17.549   6.311  11.777 -0.1976  0.1344 -0.0666
24312W        W40121   0.114   0.455  12.926  0.0817 -0.0612 -0.0560
24313W        W40122  16.335  13.494   5.183  0.0768  0.2667 -0.0174
24314W        W40123   5.925   3.171   2.131  0.2638  0.2202  0.0455
24315W        W40124  12.061  11.210   2.831 -0.1138 -0.0223 -0.1385
24316W        W40125  16.438   3.714   6.292  0.0377  0.1405 -0.1013
24317W        W40126   8.620  15.032   0.224 -0.0553  0.0424 -0.2297
24318W        W40127   8.911  17.060  15.934  0.0678  0.1611  0.0720
24319W        W40128  16.056   3.830   1.751 -0.0816 -0.0756 -0.1596
24320W        W40129   1.500  16.393  16.877  0.0757 -0.0950 -0.1166
24321W        W40130  12.438  10.229  14.031 -0.2832  0.0693  0.1483
24322W        W40131  14.585  10.934  13.661 -0.2276  0.1047  0.0145
24323W        W40132   7.684   3.060   3.646 -0.0298 -0.1403 -0.1234
24324W        W40133   7.848   0.975   2.367  0.2038  0.1064 -0.0230
24325W        W40134   7.467  12.531  15.359 -0.0348 -0.0791  0.0153
24326W        W40135  11.241  10.373   5.076  0.0649  0.0565 -0.2152
24327W        W40136  13.084   1.689   3.919  0.0572 -0.0264  0.0435
24328W        W40137   4.911  15.193  11.926 -0.0603 -0.1936 -0.2828
24329W        W40138  15.088   2.119   1.660  0.0765  0.3298 -0.1356
24330W        W40139   5.201   4.908  12.788  0.1176  0.0070  0.1808
24331W        W40140   2.072   1.407  13.941 -0.2327  0.1790 -0.0240
24332W        W40141   0.401  13.006   1.770 -0.2599 -0.1310  0.2899
24333W        W40142   8.237  12.160  15.323 -0.0750 -0.0584 -0.0223
24334W        W40143  16.319  15.430   2.235  0.2338  0.3918  0.0085
24335W        W40144   3.904  12.707   4.550  0.4382  0.1509 -0.0264
24336W        W40145   1.877   2.480   4.065 -0.0889  0.2891  0.0404
24337W        W40146   1.697   2.571   3.025  0.0380 -0.1690  0.4376
24338W        W40147  15.483  14.395   5.026  0.0521  0.0154 -0.2012
24339W        W40148  12.021   2.630   0.047 -0.1145  0.1299  0.1122
24340W        W40149  12.601  17.093   1.462 -0.1413  0.0615 -0.1831
24341W        W40150   3.003   1.449   0.827  0.1727 -0.0919 -0.0457
24342W        W40151  17.029  15.626  12.411 -0.0828  0.2106  0.1451
24343W        W40152  10.691  17.280  15.271  0.2809 -0.0023  0.2235
24344W        W40153  14.880  11.018  12.177  0.1225 -0.2412  0.0252
24345W        W40154   6.869   0.101   1.188 -0.1446  0.1882 -0.1681
24346W        W40155   7.364   8.768   1.737  0.2035  0.2066  0.2341
24347W        W40156   8.165   9.505   0.210  0.2948 -0.2544 -0.1076
24348W        W40157  17.421   3.901   4.093 -0.1076  0.1694  0.2187
24349W        W40158  11.162  13.148  12.729 -0.1011 -0.1766 -0.0089
24350W        W40159   6.397   0.684  14.403 -0.2173 -0.0635  0.1216
24351W        W40160  11.216   5.602  16.082  0.2888  0.0737 -0.4337
24352W        W40161  14.369  16.427   1.740  0.3190 -0.1715 -0.2502
24353W        W40162  16.106  13.895  12.561  0.4018 -0.0125 -0.1426
24354W        W40163  12.442   0.818  16.190 -0.1077 -0.0537  0.2038
24355W        W40164   0.035   5.579  16.977 -0.1926  0.1341  0.3337
24356W        W40165  16.700   4.159  16.672 -0.1730 -0.1251  0.0521
24357W        W40166  10.718  17.464  16.576  0.0759  0.0139  0.0821
24358W        W40167  16.197   9.239   2.875  0.3545  0.0408  0.1336
24359W        W40168   6.828  17.431   0.292  0.0223 -0.0224 -0.0273
24360W        W40169  11.485   8.765  15.884  0.0978  0.0592 -0.3257
24361W        W40170   7.016   6.465  14.328 -0.1607  0.2627  0.1193
24362W        W40171  12.428  15.266  12.109  0.0320  0.0466  0.1001
24363W        W40172  10.469  10.818  12.422  0.0507 -0.2463  0.1110
24364W        W40173  14.745  15.175   0.085  0.0308 -0.0014 -0.1859
24365W        W40174  10.788   7.863  16.661  0.1194 -0.0193 -0.2138
24366W        W40175  15.176   8.119  11.716  0.0106  0.3163  0.0767
24367W        W40176  11.169  12.990  14.829 -0.2076 -0.1479  0.1816
24368W        W40177  10.788  10.135  10.612  0.1246  0.0897 -0.0932
24369W        W40178   1.916   3.475   1.769  0.2066 -0.2290 -0.1022
24370W        W40179   9.523   0.099  14.097 -0.0201 -0.0756  0.0562
24371W        W40180   0.487   9.973   0.021 -0.0441 -0.0589 -0.0473
24372W        W40181   2.407  14.320  12.112  0.0960 -0.0507 -0.0762
24373W        W40182  11.089  15.695  12.331  0.2589 -0.0993 -0.0223
24374W        W40183  14.139   2.157  13.513  0.0531 -0.0158  0.0951
24375W        W40184   3.692  14.799   3.148  0.4137  0.2554 -0.0520
24376W        W40185  15.119   5.830   1.116  0.0449 -0.1744  0.0925
24377W        W40186  13.450  15.352  15.642 -0.2406  0.0192 -0.3837
24378W        W40187  17.562  17.668  13.597 -0.1638 -0.0023  0.1705
24379W        W40188   7.685  15.898   2.357  0.0842  0.1280  0.0782
24380W        W40189  10.590   9.400   5.499  0.3816 -0.1866  0.2626
24381W        W40190  11.485   5.977   6.063 -0.1163  0.1856 -0.0502
24382W        W40191  15.163  11.104  16.831 -0.2731  0.0499 -0.0398
24383W        W40192   0.195  17.698   0.671 -0.0107 -0.1518 -0.2799
24384W        W40193   9.019  12.504   2.976 -0.1007 -0.2298 -0.2827
24385W        W40194   0.147  10.789  13.614  0.2051 -0.0494  0.1411
24386W        W40195   4.517  15.297  12.175  0.3235 -0.0873 -0.1469
24387W        W40196   9.803   6.366   4.604  0.2439  0.0501  0.0744
24388W        W40197   4.870   3.692  12.173 -0.0558 -0.1206 -0.0157
24389W        W40198  17.438   7.702   3.997  0.0594  0.1210 -0.0118
24390W        W40199   4.936   2.188  15.979 -0.0352  0.0976 -0.0141
24391W        W40200   7.925   1.742  12.266  0.2568  0.1571  0.3044
24392W        W40201   4.629   3.513  14.289 -0.2451 -0.2299  0.0681
24393W        W40202   7.320  10.272   2.867  0.1591  0.1807  0.1203
24394W        W40203   5.740  14.520  14.637  0.1085  0.0755 -0.1261
24395W        W40204   9.216   0.716  12.587 -0.2845  0.0249 -0.3238
24396W        W40205   4.435   4.909  14.768  0.2302  0.3113 -0.1096
24397W        W40206  10.675  11.223   6.060 -0.1589 -0.0408 -0.2133
24398W        W40207  12.601   5.008  16.779  0.1625  0.0648  0.0542
24399W        W40208   9.960   4.840   1.801 -0.0088  0.0652  0.1263
24400W        W40209  15.877   8.294  15.457 -0.0692  0.2595 -0.5563
24401W        W40210  13.934   1.980   5.659  0.1102 -0.0301  0.0547
24402W        W40211   8.929  12.337   5.061 -0.1356 -0.2668 -0.2866
24403W        W40212   9.215  15.653  15.244  0.2425 -0.0892 -0.0232
24404W        W40213  14.940   0.975   0.910 -0.0833  0.1066 -0.1483
24405W        W40214  16.198   4.404  12.221  0.1143  0.1747  0.1697
24406W        W40215  11.428  13.916   3.838  0.1243 -0.0331 -0.2077
24407W        W40216   5.529   7.454  14.925  0.3672  0.3315  0.0496
24408W        W40217  13.154  10.105  16.541 -0.1449 -0.0095  0.1268
24409W        W40218   5.865   3.664  15.441 -0.0178 -0.0066 -0.1542
24410W        W40219   4.918  16.607   2.756  0.1819 -0.5614  0.2383
24411W        W40220   1.375   2.089  15.513  0.0150 -0.0983  0.0050
24412W        W40221   2.698  17.638  13.239 -0.1983 -0.0609 -0.2027
24413W        W40222   3.394  10.392   0.170 -0.1620  0.0971  0.3864
24414W        W40223  16.126  17.492  11.684  0.1167  0.0085 -0.1172
24415W        W40224  10.824   3.555   4.862  0.0040 -0.0963 -0.2073
24416W        W40225  10.201   7.165  13.390  0.1338  0.2304 -0.0071
24417W        W40226   7.282   3.060   2.769 -0.1100  0.0261  0.0468
24418W        W40227   9.747  12.799  16.169  0.1927 -0.0347  0.0370
24419W        W40228  14.542  12.068  15.400 -0.0224  0.2591  0.2466
24420W        W40229   9.246   7.197   1.069 -0.0563  0.2623 -0.1670
24421W        W40230  16.547  12.269  11.575 -0.1760  0.0398  0.1250
24422W        W40231   2.585   1.714  12.088  0.1567  0.0106  0.0293
24423W        W40232  11.452   7.145  12.353 -0.2033  0.1285 -0.0353
24424W        W40233  16.821  17.699   3.237  0.0811  0.2943  0.1469
24425W        W40234   9.901   2.709   5.635 -0.1022 -0.2422 -0.1122
24426W        W40235   7.956   2.677   4.445  0.1936 -0.2949  0.0508
24427W        W40236   2.178   6.779   1.098 -0.4343  0.0663  0.1722
24428W        W40237   1.777   3.927   1.260  0.1799  0.0339  0.1582
24429W        W40238   6.617   8.360   3.978  0.0342 -0.2400 -0.2217
24430W        W40239   6.608  15.628  13.936 -0.2111  0.0035 -0.1371
24431W        W40240  17.041  13.998   0.561  0.1232  0.0966  0.1031
24432W        W40241   2.749   6.041  12.804 -0.0854 -0.2302  0.0502
24433W        W40242  10.951   7.550   0.395 -0.0165  0.1134 -0.1982
24434W        W40243   1.336   8.460  12.226  0.4850 -0.0620 -0.1678
24435W        W40244   0.407   1.403  13.570 -0.0112 -0.3210 -0.2463
24436W        W40245   6.140   9.646  15.354  0.1021 -0.0661  0.3349
24437W        W40246  16.100  16.945  13.493  0.3269  0.0049  0.1443
24438W        W40247   4.546   3.327   1.732  0.1311  0.0956  0.3351
24439W        W40248   0.529  15.703   1.348  0.0682  0.1662  0.1372
24440W        W40249  12.497   6.373   5.783 -0.0971  0.0624  0.0334
24441W        W40250  12.819   9.477   3.876  0.4449  0.1817  0.1377
24442W        W40251   4.709  15.198   4.450 -0.0786  0.1762 -0.1505
24443W        W40252   7.376   9.659  11.034  0.1225 -0.0966 -0.0157
24444W        W40253   9.799   3.752  14.687 -0.0704  0.0816 -0.1802
24445W        W40254   9.896   7.852   5.765 -0.0160  0.1123 -0.1157
24446W        W40255   6.988  14.310  16.248 -0.4261  0.0413  0.0438
24447W        W40256  16.877   9.540  15.995  0.3158 -0.0659 -0.0520
24448W        W40257  10.228  11.222   4.750 -0.0952 -0.1115  0.2286
24449W        W40258   7.327  14.771   3.532 -0.0111 -0.1182  0.0803
24450W        W40259   4.991   9.332  11.928 -0.2693  0.0328  0.0564
24451W        W40260   7.099  16.760  15.022  0.2021  0.1179  0.0478
24452W        W40261   9.627   8.984  15.230  0.0315 -0.0112  0.1048
24453W        W40262  15.618   4.194  15.125 -0.0031 -0.1151 -0.1535
24454W        W40263   1.945   0.088  12.358 -0.0033  0.0516 -0.2086
24455W        W40264  15.492   3.538  12.464 -0.3872 -0.1424 -0.1689
24456W        W40265   7.633   4.286  16.966  0.0781 -0.2160 -0.4309
24457W        W40266  16.596  15.929  15.103  0.0595 -0.0015  0.0428
24458W        W40267  10.121  12.589   0.796 -0.0898 -0.0000  0.0014
24459W        W40268  10.385   4.237  16.214  0.0494  0.0428 -0.1230
24460W        W40269  13.540  14.159   5.133 -0.0569 -0.0593 -0.0968
24461W        W40270   7.526   9.038   0.179 -0.0318  0.0535  0.0931
24462W        W40271  12.950   6.057  13.691 -0.1602  0.1076 -0.0279
24463W        W40272  16.787   2.168   4.271 -0.0013 -0.1162  0.0302
24464W        W40273  14.626   7.598   4.364  0.1899 -0.2505  0.1171
24465W        W40274  11.419   4.772   1.342  0.0185 -0.2613 -0.2247
24466W        W40275  16.856   2.188   4.767  0.2877  0.0964  0.2344
24467W        W40276   0.224   7.271   1.361 -0.2367 -0.4248  0.1983
24468W        W40277  10.029   0.532  15.242  0.1814  0.0298 -0.0747
24469W        W40278  16.222   4.826   3.942 -0.0739 -0.0581  0.1888
24470W        W40279  13.057   4.377  14.233 -0.0362  0.2075 -0.3361
24471W        W40280  14.965   8.043   3.358 -0.2827  0.0269  0.0562
24472W        W40281  17.714   8.169  15.027  0.0027 -0.0033  0.2984
24473W        W40282  12.317   4.476  13.131 -0.0714 -0.1505 -0.1724
24474W        W40283   5.139   9.551  15.570  0.0013 -0.3312 -0.0421
24475W        W40284   7.780   0.206  13.713 -0.0490  0.1702  0.2508
24476W        W40285  12.345   7.516   2.433 -0.0557 -0.0679 -0.1169
24477W        W40286  13.233  13.759   5.123 -0.1163 -0.0009  0.1595
24478W        W40287  16.838   8.955   1.562 -0.2838 -0.0035  0.0819
24479W        W40288  10.991   9.315   0.119  0.1738 -0.0119  0.0665
24480W        W40289   4.997  11.861   5.631 -0.1423  0.0317  0.1476
24481W        W40290  10.106  14.307   0.911  0.4860  0.0110 -0.2060
24482W        W40291  12.334   9.345   3.940  0.1430 -0.0324  0.0974
24483W        W40292  14.935  12.946  12.903 -0.0929  0.0509 -0.0689
24484W        W40293  17.649   0.821  15.406  0.0658  0.0073 -0.1273
24485W        W40294   8.628   6.736   1.685  0.2380  0.3162 -0.0818
24486W        W40295  17.491   8.984  13.008 -0.0224 -0.0865 -0.3744
24487W        W40296   4.076  15.881  13.404 -0.2256 -0.2172 -0.1200
24488W        W40297   6.293  12.356  13.552  0.0814 -0.2138 -0.3730
24489W        W40298  16.223   3.433   1.313  0.0256 -0.0862 -0.2468
24490W        W40299   8.757  12.949  12.889  0.2994 -0.2786  0.1309
24491W        W40300  10.391   7.437  16.462  0.2568 -0.0486  0.0818
24492W        W40301  12.840   6.919  12.459 -0.0091  0.1062 -0.1475
24493W        W40302  12.136  10.022  14.504 -0.1361 -0.1400  0.3606
24494W        W40303  11.196   0.585   4.523  0.1099 -0.0965  0.0807
24495W        W40304  14.102   1.498   4.937  0.1745  0.1327 -0.2271
24496W        W40305   2.962   1.940   5.092  0.3382 -0.0903  0.0442
24497W        W40306   3.982  17.295  12.137  0.4160  0.0323 -0.0557
24498W        W40307   4.532  12.260   2.062 -0.2076 -0.0458 -0.0943
24499W        W40308  15.809  15.167   2.041 -0.1146  0.1557  0.0154
24500W        W40309  14.115  16.841   5.382 -0.0313  0.0038  0.1100
24501W        W40310   6.855   6.183   5.112 -0.0309 -0.0367 -0.1442
24502W        W40311  11.696   9.463  12.988  0.3103  0.0724  0.2367
24503W        W40312   1.766   9.479  14.566 -0.0212 -0.0781  0.3986
24504W        W40313  12.555  14.052  12.553 -0.3206 -0.0525  0.0249
24505W        W40314  10.785   1.303  14.346  0.0904 -0.4065  0.1861
24506W        W40315   3.815  13.497  14.541 -0.2478  0.3195 -0.0697
24507W        W40316   9.750   8.680  12.542 -0.0162 -0.2160  0.1721
24508W        W40317   6.850  10.426   6.082  0.2126 -0.0710  0.1966
24509W        W40318  13.146  15.931  16.424 -0.1717  0.1415 -0.0508
24510W        W40319  15.041   7.892   4.605  0.0726 -0.0811  0.0168
24511W        W40320  15.182  13.625   4.486  0.0649 -0.1882  0.0167
24512W        W40321  16.158  12.880   1.965 -0.0643 -0.1746  0.0204
24513W        W40322  12.139   1.326   2.099  0.0282  0.0645 -0.0593
24514W        W40323  14.152   2.201  16.545  0.0938  0.2716 -0.0494
24515W        W40324   5.659   4.897   4.637 -0.2021 -0.1022 -0.0784
24516W        W40325   9.188   0.036  10.793  0.2988  0.0645  0.0304
24517W        W40326  14.056   4.923  12.303  0.2222 -0.1990 -0.0108
24518W        W40327  11.871   5.865   1.949 -0.0431 -0.5554  0.0381
24519W        W40328   1.750   0.542  12.581 -0.0463  0.2555 -0.2153
24520W        W40329  10.622  11.787   1.847 -0.0953  0.0660  0.2554
24521W        W40330   7.114  14.904  14.529 -0.0294 -0.3930 -0.0019
24522W        W40331   4.891   4.264  14.550 -0.1932 -0.1987  0.2441
24523W        W40332   2.509   3.823  13.807 -0.1872 -0.1297 -0.2276
24524W        W40333   9.344   8.332   6.238  0.1629 -0.0636  0.0256
24525W        W40334  16.824   2.306  15.965 -0.0993 -0.0371  0.3703
24526W        W40335   7.110  16.221   0.890 -0.0089 -0.2724  0.1100
24527W        W40336   5.843   7.453   2.978 -0.0406  0.1175 -0.0715
24528W        W40337  11.447   2.959   4.404  0.0764  0.0311 -0.2527
24529W        W40338   4.262   9.903  15.365  0.1530  0.1320 -0.0996
24530W        W40339  16.803  16.145   4.649 -0.0172 -0.0420  0.3806
24531W        W40340   6.692  13.942  16.077 -0.1746 -0.0574 -0.2010
24532W        W40341   0.131  14.013   3.752  0.0099  0.1477  0.3740
24533W        W40342   4.930   5.579   4.111 -0.2556 -0.4099  0.1142
24534W        W40343   4.724   1.159  11.792  0.0255 -0.0411 -0.1161
24535W        W40344   3.451   5.061   2.664  0.2580  0.0316  0.0128
24536W        W40345   5.799   6.847  11.365 -0.2171 -0.2796  0.1363
24537W        W40346  15.053   5.846  14.087 -0.0686 -0.0111  0.2383
24538W        W40347   4.499  12.954  15.423  0.0412 -0.2882 -0.1994
24539W        W40348  10.714   4.497  15.336 -0.0798 -0.0129 -0.0305
24540W        W40349   2.205   7.624  12.426 -0.2562 -0.1163 -0.1960
24541W        W40350   0.515   1.800  12.562  0.1591 -0.1515  0.1576
24542W        W40351  10.270   1.971   0.514 -0.0579  0.1458  0.0791
24543W        W40352   0.337   6.390   5.010 -0.1391 -0.0363  0.1680
24544W        W40353   2.667  14.468  16.408 -0.0881  0.2068  0.1640
24545W        W40354  10.091   2.595  15.408 -0.0038 -0.0658  0.0327
24546W        W40355   6.906  15.874   2.825 -0.1192  0.0508  0.0533
24547W        W40356   6.839  11.453  14.888  0.0984  0.1456  0.0181
24548W        W40357   8.106  12.324  13.391  0.1584 -0.0315  0.0636
24549W        W40358   5.108   9.572   2.995 -0.0847  0.0348  0.2015
24550W        W40359  16.292  12.322  16.402 -0.1362  0.1053 -0.0325
24551W        W40360   9.791   4.479  16.906  0.2413  0.1318  0.1933
24552W        W40361  14.089  17.156  14.606 -0.0228 -0.0678 -0.1993
24553W        W40362   2.223   5.853  16.697 -0.0340  0.1700  0.1148
24554W        W40363   8.454  12.531  15.547 -0.1078  0.0367  0.0310
24555W        W40364  14.346  11.446   5.703  0.1568  0.0247  0.0162
24556W        W40365  10.650  13.883   0.601 -0.0671 -0.0488  0.0896
24557W        W40366   2.396  10.811   3.965  0.1838  0.0214  0.0507
24558W        W40367  15.440  14.786   1.712 -0.1291 -0.3402  0.0805
24559W        W40368   0.297  17.688  15.694 -0.1872  0.0702  0.1433
24560W        W40369  12.252   1.693   3.324 -0.1712 -0.1147 -0.2859
24561W        W40370   9.797  10.882   0.018  0.1163 -0.2259  0.0778
24562W        W40371  11.922  16.816  12.246 -0.1410  0.0384 -0.0398
24563W        W40372  12.959  16.029  15.890 -0.2020 -0.1273 -0.3205
24564W        W40373  13.820   3.402   2.507 -0.1529 -0.4194 -0.1584
24565W        W40374   7.843   7.741  10.590  0.2061  0.1483  0.1139
24566W        W40375  13.672  14.862  15.808  0.3349  0.1309 -0.1792
24567W        W40376   4.281  16.838   0.126 -0.3641 -0.1303  0.1653
24568W        W40377   5.493  15.176  15.467 -0.3707 -0.2231  0.1053
24569W        W40378   5.152  12.353  15.535  0.0590  0.2534  0.1682
24570W        W40379   7.424   6.383   2.543 -0.1604 -0.2709  0.1348
24571W        W40380  10.266  13.194  16.909 -0.0336 -0.0704 -0.1217
24572W        W40381  11.700   1.729   4.057  0.0402  0.1081 -0.3212
24573W        W40382   4.449  10.349  14.773  0.1889  0.1639 -0.0677
24574W        W40383   6.166   9.083   0.968 -0.1718  0.1436 -0.0142
24575W        W40384   5.457   1.009  11.931  0.2330  0.3299 -0.3443
24576W        W40385  16.593  15.528   4.373 -0.1234  0.0460 -0.0130
24577W        W40386   8.537  15.784  15.584  0.0496 -0.0477  0.2178
24578W        W40387   6.368   1.168  14.630  0.0035  0.0982 -0.2317
24579W        W40388  15.058   6.804   5.664  0.3447  0.0353  0.2358
24580W        W40389   3.444   5.451  15.591 -0.1164 -0.1636 -0.2931
24581W        W40390   5.385  11.020   5.921 -0.3252 -0.2492 -0.3105
24582W        W40391   0.370  11.055   4.290  0.0343 -0.1715 -0.2071
24583W        W40392   8.177   7.862   0.428 -0.1786  0.0206 -0.0608
24584W        W40393  14.323   1.508  14.386  0.2567  0.1002  0.0400
24585W        W40394   1.637  13.649  12.416 -0.0833  0.1014 -0.1152
24586W        W40395   1.600   8.658  13.420 -0.1602  0.0679 -0.0176
24587W        W40396  14.151   6.111   2.365  0.0671 -0.2220  0.2202
24588W        W40397  14.611   1.515   4.083 -0.2090  0.2113 -0.3325
24589W        W40398   4.528   0.858   3.141 -0.1000 -0.3401 -0.3873
24590W        W40399  14.030   0.425   0.714 -0.2944 -0.2138  0.0372
24591W        W40400   0.556  10.826  15.038  0.1234  0.0047  0.6085
24592W        W40401   7.629   4.485  15.422 -0.0479 -0.2051 -0.1097
24593W        W40402  15.091  14.152  15.407 -0.1617  0.1650 -0.0016
24594W        W40403   9.236   2.464  15.654 -0.3225 -0.0441 -0.1976
24595W        W40404   5.964  12.903  15.329 -0.1545  0.1414  0.0800
24596W        W40405  12.459  17.012   4.217 -0.1291  0.0994  0.1908
24597W        W40406   3.980   3.154  14.714  0.1160  0.0816 -0.2471
24598W        W40407   5.208  10.781  15.119  0.0282  0.1634  0.0420
24599W        W40408  17.710   1.125  16.772  0.2887 -0.1191 -0.1875
24600W        W40409   8.600  14.634   5.185 -0.0836 -0.0435 -0.0777
24601W        W40410   3.909  11.184   0.421 -0.1417  0.1163 -0.3186
24602W        W40411   8.376   8.654   1.429  0.0275  0.1027  0.4592
24603W        W40412  14.933  17.183   2.878 -0.1522 -0.1124 -0.0013
24604W        W40413  12.458   1.490   0.793 -0.2805 -0.0998  0.0373
24605W        W40414   9.525   1.979  11.841  0.0533  0.1023 -0.2464
24606W        W40415   2.960  17.027  15.429 -0.0844 -0.0955 -0.1096
24607W        W40416   3.633  15.935   2.568 -0.1079 -0.0549  0.2575
24608W        W40417  13.180  11.051   6.287 -0.1121  0.2659  0.2112
24609W        W40418  12.194   4.921   3.992  0.0165  0.2232 -0.0502
24610W        W40419  17.485  16.360   2.444  0.0135  0.0796  0.1842
24611W        W40420   6.101  10.436   4.808 -0.0372  0.2976  0.2352
24612W        W40421  16.867   8.749   1.057 -0.0423  0.2784  0.2056
24613W        W40422   8.495   9.305  11.810  0.0152  0.0936  0.1099
24614W        W40423  16.784   1.560   0.014 -0.3326  0.1377 -0.0008
24615W        W40424   1.999   2.408   1.219  0.0850 -0.2202 -0.1928
24616W        W40425   5.705  10.223  15.817 -0.0495  0.0400 -0.0246
24617W        W40426  14.807  11.437  16.788 -0.0893  0.0274  0.1041
24618W        W40427  12.201   1.837  13.960  0.1489 -0.2543 -0.4724
24619W        W40428   1.893   8.217  16.593 -0.0615 -0.0041 -0.0415
24620W        W40429   4.454  12.477  16.521 -0.0191 -0.1668  0.4743
24621W        W40430   2.542   0.789  16.646  0.0904 -0.0020  0.1683
24622W        W40431  16.972   7.909   0.577  0.0556  0.0805  0.0245
24623W        W40432  10.268  14.857   5.779  0.0015 -0.0772  0.0066
24624W        W40433   1.537   9.205  16.958  0.3130 -0.0860 -0.3008
24625W        W40434   4.228   5.172  15.796 -0.1433  0.1522 -0.3925
24626W        W40435   4.862   5.648   4.662 -0.0598  0.2393 -0.1365
24627W        W40436   4.365   5.618   2.926 -0.0379 -0.0043  0.0295
24628W        W40437  15.951   0.713   2.735 -0.0727 -0.0061  0.2551
24629W        W40438   7.143  14.354  13.572 -0.2936  0.1246  0.2352
24630W        W40439   3.712   3.773   4.639 -0.2655 -0.2336  0.2347
24631W        W40440  12.338   8.366  16.053  0.0071  0.3013 -0.1448
24632W        W40441  15.202  15.292   0.926  0.1113 -0.1493 -0.0264
24633W        W40442  15.013  17.448  16.852  0.2682  0.1612  0.3437
24634W        W40443   6.815   7.987  16.695 -0.0180  0.0554 -0.1192
24635W        W40444   4.666  11.106  11.880 -0.1785 -0.0700 -0.0601
24636W        W40445  16.965   7.059   0.743 -0.1573 -0.0834 -0.1271
24637W        W40446  12.996   4.293   4.069 -0.4966 -0.0503 -0.2503
24638W        W40447   4.803  11.443   2.607  0.1522  0.0632 -0.2705
24639W        W40448  15.744   6.779   3.689  0.2142 -0.3110  0.1489
24640W        W40449   1.616   7.558  13.233  0.0191  0.1027  0.0753
24641W        W40450   8.564   0.862   0.743  0.0233  0.0872  0.1459
24642W        W40451  14.834   4.708   0.666 -0.1179  0.1348  0.1437
24643W        W40452   6.944  15.283  12.330 -0.0290 -0.1997 -0.3331
24644W        W40453   9.142   6.267   5.237  0.0255 -0.4803  0.0087
24645W        W40454   8.360  10.760  13.043 -0.1024  0.1111  0.1613
24646W        W40455  15.675  12.591  11.407 -0.3323 -0.2936 -0.1468
24647W        W40456  11.718   1.348   4.849 -0.2130  0.1285  0.2011
24648W        W40457  10.762   7.113  12.648  0.1061  0.0892 -0.1369
24649W        W40458  10.862   2.339   2.006 -0.0092 -0.0170 -0.0606
24650W        W40459   5.148  11.545  15.764  0.0839  0.0750 -0.1128
24651W        W40460   2.864  10.940  14.521  0.3388 -0.0490  0.0610
24652W        W40461   1.626   4.012   3.127  0.0209 -0.1745  0.0235
24653W        W40462   2.840  13.855  11.610 -0.1902 -0.0455  0.3901
24654W        W40463   0.678   9.422  13.178  0.0257  0.3063 -0.2184
24655W        W40464  15.311   1.952   4.907 -0.2295  0.3589  0.1656
24656W        W40465   7.328   2.872  15.107  0.1103  0.1142  0.3206
24657W        W40466   9.486  11.288  13.010 -0.0674  0.2650  0.0016
24658W        W40467   8.701   2.744   2.690 -0.1898  0.1973 -0.0846
24659W        W40468  10.773   0.753   5.857 -0.0241  0.1792 -0.1911
24660W        W40469  15.046   8.787   3.977  0.0254  0.1920 -0.1801
24661W        W40470   8.480   9.024  15.550  0.0430  0.0429 -0.1349
24662W        W40471  16.091   9.861  11.810 -0.1147 -0.0239 -0.0623
24663W        W40472  11.609   0.240   1.401 -0.1430 -0.2094 -0.0574
24664W        W40473   6.859   7.248  12.902 -0.0604  0.0080  0.1393
24665W        W40474   0.723   1.307  14.177  0.1129 -0.0137  0.1097
24666W        W40475   1.118   4.972  15.095 -0.1760 -0.2293  0.0343
24667W        W40476   7.894   6.899   0.118 -0.1662 -0.1594  0.0875
24668W        W40477   0.157   4.675  12.810  0.1001 -0.2521 -0.1032
24669W        W40478  17.091   1.428   2.006  0.3137  0.3173  0.1940
24670W        W40479  10.660   2.264   4.584 -0.0987  0.1309 -0.1309
24671W        W40480  11.058  10.707  14.147 -0.0611  0.0292 -0.1392
24672W        W40481   6.143   4.467   1.272 -0.0118  0.1204 -0.2407
24673W        W40482   5.085  14.292  12.248 -0.0356  0.0150  0.0374
24674W        W40483   4.614   3.155  16.545  0.2897 -0.1141 -0.1846
24675W        W40484  10.679  12.574  15.995 -0.4164 -0.0506  0.1537
24676W        W40485   7.419   7.535   2.717 -0.0584 -0.2561 -0.0984
24677W        W40486  10.327   4.142   2.659 -0.0531  0.1973 -0.1021
24678W        W40487  16.816  13.167  13.125  0.5241  0.0901 -0.1853
24679W        W40488  13.039   7.862  11.952  0.5206  0.0684  0.1433
24680W        W40489   2.436   7.718  15.326 -0.0865 -0.2764 -0.1028
24681W        W40490   5.845  10.582   1.844 -0.0701  0.0288  0.0026
24682W        W40491  14.775   3.779   0.428  0.1112  0.0942 -0.0101
24683W        W40492   0.924  12.391  15.293  0.2488 -0.3042 -0.0101
24684W        W40493  11.977   0.303  11.190 -0.0729  0.2255  0.0717
24685W        W40494   1.514   6.023   4.550 -0.0160 -0.1149 -0.0389
24686W        W40495  15.145   1.199   6.300 -0.3993 -0.1948  0.0439
24687W        W40496  11.073  12.558   5.207  0.0138 -0.0697  0.1086
24688W        W40497  16.605   7.164  12.082  0.1923  0.0749 -0.1997
24689W        W40498  10.474  12.882   1.038  0.2693  0.0346 -0.2294
24690W        W40499   6.145   2.747   1.728 -0.0727 -0.1780  0.1212
24691W        W40500  12.173  13.001  15.179  0.4535  0.1670  0.0476
24692W        W40501  15.431  14.471   1.272 -0.0852 -0.2963 -0.2612
24693W        W40502  12.772  17.051  11.829  0.2593  0.1477  0.0164
24694W        W40503   4.235  14.209   0.867 -0.0277 -0.0596  0.1156
24695W        W40504   7.110  13.208  11.554  0.0319  0.2251  0.1401
24696W        W40505   0.680   5.969  16.579  0.2157 -0.1086 -0.1559
24697W        W40506   0.195   9.565   1.069 -0.1322  0.0171 -0.0089
24698W        W40507  16.817   3.758  12.168  0.2362 -0.2026 -0.2004
24699W        W40508  11.284   0.997  15.102 -0.2221 -0.0203 -0.1302
24700W        W40509  14.221   0.924  12.893 -0.1836 -0.0326 -0.1783
24701W        W40510   6.815   2.517  14.598 -0.1083 -0.0272 -0.3193
24702W        W40511   9.686   2.874  12.557  0.1389 -0.0952  0.0092
24703W        W40512   1.955   8.833   0.227 -0.0201 -0.0079  0.0325
24704W        W40513  16.064  11.169   3.954 -0.1088  0.0692 -0.2885
24705W        W40514  17.315   4.032  14.847  0.0690 -0.1018 -0.1752
24706W        W40515  17.237   5.173  11.347 -0.0027 -0.0258  0.3801
24707W        W40516  16.350  10.041   6.383 -0.0460  0.1568 -0.1170
24708W        W40517   9.620   3.089   5.396 -0.1665  0.0692  0.0073
24709W        W40518   2.922   5.047   5.951  0.1058 -0.1119 -0.0300
24710W        W40519   3.575   9.305  16.892 -0.1386 -0.2214  0.1272
24711W        W40520   7.737   5.578   1.998  0.1412 -0.2561  0.0124
24712W        W40521  15.291   9.172   4.051 -0.0404  0.0276 -0.0998
24713W        W40522  12.272   3.222   3.623  0.0840  0.0093  0.0482
24714W        W40523  14.550   2.210   2.551 -0.1784  0.1439  0.1362
24715W        W40524   3.338   9.317  12.426 -0.1262 -0.0374 -0.2619
24716W        W40525   5.896   9.221   4.119  0.2997 -0.2778 -0.2346
24717W        W40526   8.321  12.846   4.971  0.0073  0.0239  0.1863
24718W        W40527   4.547  12.255   4.462 -0.0791 -0.0909 -0.1020
24719W        W40528   9.098  10.714  13.982  0.1400  0.0133  0.1193
24720W        W40529  11.582  16.193  15.238  0.1341  0.0751 -0.0328
24721W        W40530  16.343  15.513  13.448  0.3386  0.2757 -0.0210
24722W        W40531  13.733  15.501  16.798 -0.2593 -0.1863  0.0511
24723W        W40532   5.174   1.430  16.701 -0.3516 -0.2009  0.2541
24724W        W40533   4.129  10.528   1.772  0.1492 -0.1806 -0.0311
24725W        W40534  12.746   7.955  13.208  0.0259 -0.1446 -0.0519
24726W        W40535  10.099   1.205   4.641  0.2021  0.0528 -0.2760
24727W        W40536   9.525  17.661   4.172 -0.1479 -0.1848  0.2451
24728W        W40537  16.288   4.593   4.455  0.0203 -0.2927  0.0264
24729W        W40538   7.857   9.287  14.709  0.1051  0.1296  0.0826
24730W        W40539  11.761  15.536  16.372  0.0162 -0.1297  0.1066
24731W        W40540   8.914   6.448   4.175  0.2587  0.1607 -0.0594
24732W        W40541   3.220   7.624  14.610 -0.0802  0.0709  0.0801
24733W        W40542   4.908  10.098  13.602  0.2913  0.0130 -0.1849
24734W        W40543   5.651  13.648  12.965 -0.1274 -0.1139  0.1937
24735W        W40544   0.136   5.169   1.101 -0.0104  0.0963 -0.1561
24736W        W40545  12.256   2.848  12.476  0.1746 -0.0161  0.1951
24737W        W40546   1.195  17.076  14.443  0.1464 -0.4556  0.0661
24738W        W40547   3.007  10.535  10.695  0.1361 -0.4947 -0.1953
24739W        W40548   0.341   6.931  16.874 -0.0495  0.1940  0.4323
24740W        W40549  16.724  14.057   5.329 -0.1268  0.2953 -0.1605
24741W        W40550  15.801   2.173   0.414 -0.0646  0.0536  0.1790
24742W        W40551  12.224  12.557  16.115 -0.1949  0.2990  0.2138
24743W        W40552  13.070  12.898   5.512 -0.1122 -0.1641 -0.0135
24744W        W40553   7.480   8.471   2.655 -0.2404 -0.1025 -0.0148
24745W        W40554   8.791  14.671  11.523  0.1215  0.1746 -0.1589
24746W        W40555  11.295  16.031  13.748 -0.1085  0.0895 -0.2823
24747W        W40556   2.778  14.329  11.812  0.1250 -0.2275 -0.0470
24748W        W40557   7.970  15.517  14.387  0.0165 -0.0464 -0.0007
24749W        W40558  17.135  12.859  10.522  0.1932  0.2403  0.1928
24750W        W40559  13.993   1.281   2.387 -0.0880  0.3927 -0.0030
24751W        W40560  15.653  17.120  14.619 -0.0393  0.3518  0.0555
24752W        W40561  13.010   7.681   3.328 -0.2617 -0.2355 -0.0764
24753W        W40562  17.573  17.016   3.296  0.0695  0.0826 -0.1771
24754W        W40563   7.033  16.929   2.625  0.0085 -0.1408 -0.2028
24755W        W40564   2.379   9.227  15.138 -0.2032 -0.0038  0.0610
24756W        W40565   2.188   5.489  13.347  0.1954  0.2910 -0.1895
24757W        W40566   7.276  13.060  13.063  0.1414 -0.1114 -0.2172
24758W        W40567   7.645  10.317  14.958 -0.1106 -0.0076  0.0050
24759W        W40568   9.886   1.457   0.235 -0.1061  0.2288 -0.3795
24760W        W40569   9.408   5.403  14.400 -0.1116 -0.0248  0.0796
24761W        W40570  12.952   2.647  13.954  0.0870 -0.1940 -0.0352
24762W        W40571  15.363  13.634   3.391  0.2433  0.3087 -0.3932
24763W        W40572  13.091   8.354  15.223  0.1225  0.4161  0.0308
24764W        W40573   5.121  10.202   4.456  0.0104  0.0736  0.0420
24765W        W40574   6.877  11.061   5.869 -0.1623  0.0520 -0.0278
24766W        W40575  17.234  15.541  13.860  0.1339 -0.0509  0.0190
24767W        W40576  11.718   3.495   1.616 -0.0378 -0.1207 -0.2785
24768W        W40577   5.595   9.580   2.785 -0.0977  0.2967  0.1112
24769W        W40578   7.058   7.310   4.302  0.2047 -0.0156  0.2007
24770W        W40579   1.944   8.557   3.936 -0.2878 -0.0854 -0.1635
24771W        W40580   7.999   1.103   4.455 -0.2131 -0.0405 -0.2231
24772W        W40581   2.595   2.281  16.551  0.0155 -0.0285  0.3455
24773W        W40582   1.189   7.949  14.024 -0.1508 -0.2598 -0.0342
24774W        W40583   9.481   7.637   5.615 -0.2033  0.1153  0.0530
24775W        W40584  13.888  15.255   5.400  0.0233  0.2215  0.1153
24776W        W40585   3.297   4.342   4.418  0.2662  0.0899 -0.1374
24777W        W40586   7.171   4.430  12.167 -0.0194 -0.0387 -0.1235
24778W        W40587  12.607   3.593   3.591  0.0652  0.0198  0.0338
24779W        W40588   0.697   3.739  12.192  0.2315 -0.3724  0.0900
24780W        W40589   2.842  11.097   1.207 -0.2096  0.0770 -0.0524
24781W        W40590   7.475  14.071  14.142 -0.0383  0.0647  0.4877
24782W        W40591   3.339  14.169  14.288 -0.4304 -0.0530  0.0976
24783W        W40592  10.909  12.273  13.229 -0.1081  0.1951  0.0223
24784W        W40593   3.001  11.952  15.017 -0.0958 -0.2016  0.0483
24785W        W40594  15.674  12.552  15.522 -0.1424  0.0375  0.1990
24786W        W40595   4.469  10.883  14.627  0.1660 -0.0958  0.1116
24787W        W40596  17.123   2.663  16.857 -0.1195  0.0072  0.0011
24788W        W40597  10.128  17.064  11.752  0.2434 -0.1436 -0.0514
24789W        W40598  14.116   2.399   5.801 -0.0436 -0.0999 -0.2944
24790W        W40599  13.465   5.159   1.859 -0.1614 -0.0590 -0.4667
24791W        W40600  15.568  15.625  12.565  0.0205 -0.0951  0.0773
24792W        W40601   1.160   4.120  16.050  0.2515 -0.0575 -0.0980
24793W        W40602   0.390   6.045   3.689  0.1507  0.2449 -0.0642
24794W        W40603   6.513   7.167  14.105  0.2194  0.2472  0.1539
24795W        W40604   4.663  11.512  15.529  0.0721 -0.1618  0.1478
24796W        W40605  11.115   8.133   2.602  0.1055 -0.1559 -0.0848
24797W        W40606   9.598   6.692  12.457  0.0964  0.1559  0.2409
24798W        W40607   5.215   9.338   5.318  0.0351  0.3128  0.0484
24799W        W40608   1.578   9.542   0.753 -0.1352  0.1661  0.0436
24800W        W40609  15.359   6.288   4.482 -0.1301  0.3187 -0.2324
24801W        W40610  17.707   0.137  12.557  0.0344  0.0167 -0.0227
24802W        W40611  16.602  15.679  14.603 -0.0736 -0.0377  0.0685
24803W        W40612   7.258  13.334   0.512  0.0063  0.0545 -0.0527
24804W        W40613   2.413  14.337   1.489 -0.1674 -0.0479 -0.1336
24805W        W40614  17.017  17.397   5.320  0.0514 -0.1209  0.0638
24806W        W40615   7.610   5.497   4.937 -0.1513 -0.2373  0.1578
24807W        W40616  15.148  11.448   4.494  0.1192  0.1659  0.1859
24808W        W40617   6.654  16.029  13.327  0.4916  0.3860  0.1643
24809W        W40618  13.118  10.390   1.726 -0.0085  0.1749  0.0124
24810W        W40619  10.867   6.843  15.264  0.1346  0.1621 -0.2305
24811W        W40620   0.648  11.697   0.747 -0.1861  0.0546  0.0816
24812W        W40621  10.914   1.385  12.504  0.0487 -0.0532 -0.1076
24813W        W40622  13.711   9.598  13.715  0.1190  0.0023 -0.0225
24814W        W40623   9.742  17.192   5.088  0.0238  0.0590 -0.1105
24815W        W40624  13.160   2.110   1.229  0.1601  0.0744 -0.0305
24816W        W40625   9.992   6.112   6.069  0.0449  0.1084  0.2001
24817W        W40626  10.310  12.260   3.018  0.0477  0.0828 -0.0457
24818W        W40627  14.932  11.911  12.455  0.0966 -0.1730  0.1201
24819W        W40628   3.804   3.730   2.895 -0.1062 -0.1109  0.2057
24820W        W40629  16.575   8.603   5.360  0.0157 -0.0755  0.0669
24821W        W40630   0.067   4.119  14.902  0.1061 -0.1437  0.1228
24822W        W40631  10.254  13.652   2.645 -0.0868 -0.4228 -0.0227
24823W        W40632   7.859  14.375  11.536  0.1528  0.1819 -0.1491
24824W        W40633  13.268   3.878  16.782 -0.2693 -0.2804 -0.0359
24825W        W40634   4.422   2.166  12.189  0.1487 -0.2628 -0.1172
24826W        W40635   6.145   2.402  15.145 -0.2925 -0.0226  0.0123
24827W        W40636  12.566  15.267  12.743 -0.2329  0.0437  0.2968
24828W        W40637   7.059   7.947   3.540  0.2592 -0.1449 -0.0575
24829W        W40638   5.000   6.947   0.207  0.0201  0.0325  0.3357
24830W        W40639   7.332   2.878   2.263  0.2800  0.0108  0.1308
24831W        W40640   9.280  12.996   3.951  0.0628  0.1653  0.1726
24832W        W40641  16.120  14.729   4.292  0.0079  0.4777  0.1365
24833W        W40642  12.855  14.124  15.423  0.2562 -0.2827  0.1682
24834W        W40643  12.756  14.870  11.988  0.0921 -0.1643 -0.2894
24835W        W40644  11.008   8.707   0.913 -0.3328  0.0089 -0.1303
24836W        W40645   8.105  15.503  13.317 -0.2616 -0.2419  0.2560
24837W        W40646  17.401   3.578   1.634 -0.1460 -0.3145  0.3906
24838W        W40647   3.173   2.031   4.571 -0.0155 -0.0762 -0.1715
24839W        W40648  15.558   1.906   1.483 -0.2216  0.1269  0.0011
24840W        W40649  10.192   0.448   3.967 -0.0710 -0.0591  0.3196
24841W        W40650   5.200   5.276   4.912  0.2278 -0.0856  0.3846
24842W        W40651  11.605   9.022   2.783  0.0632 -0.0137 -0.0704
24843W        W40652   8.837   2.786  14.631 -0.2557 -0.0606 -0.0310
24844W        W40653  11.047  11.620   4.990 -0.0636  0.1602  0.0308
24845W        W40654  16.483  12.594  14.357  0.0132  0.2548  0.2450
24846W        W40655  17.249   3.289   0.480  0.1317  0.4252  0.0233
24847W        W40656   8.040   4.080  16.105 -0.1837 -0.1411 -0.2270
24848W        W40657  15.877   8.531   2.958  0.0989  0.1209 -0.1145
24849W        W40658   8.860   9.833  11.707 -0.0130 -0.1856 -0.1054
24850W        W40659   0.859   8.956  15.497  0.2938  0.1201  0.0227
24851W        W40660   6.501   8.412  14.588 -0.0067 -0.0161  0.1933
24852W        W40661   3.034  16.438   3.052  0.1578 -0.0423  0.1662
24853W        W40662  13.617  10.862  15.203  0.3048 -0.1513 -0.2118
24854W        W40663  15.397  15.122  15.753  0.0431 -0.2293  0.2437
24855W        W40664   2.306   4.420  13.859 -0.2757  0.1434  0.1470
24856W        W40665   7.685   4.474   0.890  0.0614 -0.5164 -0.0714
24857W        W40666   3.140  17.104   4.714  0.2800 -0.1154 -0.0170
24858W        W40667   1.709   0.366   2.022 -0.0680 -0.2654  0.1046
24859W        W40668   8.916  11.263  16.481 -0.0422  0.0367 -0.0577
24860W        W40669  13.137   8.381   1.384 -0.1478 -0.3078 -0.1250
24861W        W40670   5.410   7.974  11.984  0.1128 -0.1462  0.1915
24862W        W40671   5.360   0.418   4.232 -0.0175 -0.3040  0.0544
24863W        W40672   3.794   7.111  15.332 -0.0526  0.0514 -0.0324
24864W        W40673   5.868  14.910  13.798 -0.1000  0.0842 -0.2778
24865W        W40674   9.162   1.878   3.376 -0.0368  0.2227  0.0816
24866W        W40675  13.659   9.898   4.109 -0.1595  0.1236 -0.3667
24867W        W40676   9.814  11.773   2.025  0.0201  0.0930 -0.1560
24868W        W40677  15.014  13.383   1.078 -0.0096  0.0283  0.3523
24869W        W40678  11.308  16.532   1.830  0.2652  0.1139 -0.0635
24870W        W40679   1.782   7.290   0.254  0.2001 -0.0053  0.2615
24871W        W40680   6.654   6.619   3.750 -0.0386 -0.0520 -0.1473
24872W        W40681  12.497   1.756  16.639  0.0105  0.1255 -0.2401
24873W        W40682   3.826   1.613   4.911 -0.0289 -0.1640 -0.0718
24874W        W40683   6.172  17.525   1.125 -0.1584  0.0428  0.1058
24875W        W40684   0.616   5.020   1.875 -0.1055  0.1755 -0.0790
24876W        W40685   0.573  16.153   3.688 -0.1064 -0.2434 -0.1077
24877W        W40686   1.124   2.736  12.160  0.1602  0.2068  0.1693
24878W        W40687   6.055  11.532  13.841 -0.0205 -0.0059 -0.0279
24879W        W40688  16.711   2.602   3.487  0.1743  0.0234 -0.0022
24880W        W40689   4.085   0.635  13.014  0.1856 -0.0800  0.1236
24881W        W40690  17.431  13.419  15.073 -0.0618  0.1138  0.1134
24882W        W40691   9.323   7.144  14.470 -0.0920 -0.1886 -0.2388
24883W        W40692   2.307   0.416  16.992  0.0270 -0.4923  0.0221
24884W        W40693  13.899   4.934   3.434 -0.0377  0.2926  0.1675
24885W        W40694   8.989  11.165   3.518 -0.0073 -0.3797 -0.1341
24886W        W40695   7.054   7.683  14.887 -0.2224 -0.2080  0.1583
24887W        W40696  15.038  12.098   4.076  0.3260  0.1236  0.1098
24888W        W40697  16.286  11.918   3.375 -0.5230  0.1531 -0.0625
24889W        W40698  11.935   0.599  15.926 -0.0169 -0.0152 -0.1898
24890W        W40699  14.495  13.944   4.984  0.0389  0.3324  0.0000
24891W        W40700   6.653   6.765  12.618 -0.0292  0.0640 -0.0403
24892W        W40701   7.019  14.866   5.791  0.0709 -0.2646 -0.0098
24893W        W40702  10.928   2.848   0.920 -0.4206 -0.2210  0.0061
24894W        W40703   3.890  10.588  12.752 -0.2066  0.0768 -0.0470
24895W        W40704   1.493  13.503  15.768 -0.1471 -0.1572 -0.0234
24896W        W40705  10.537   8.343  16.530 -0.1244  0.0801  0.0467
24897W        W40706   1.182  15.644  16.357 -0.2389 -0.0552  0.0539
24898W        W40707   5.938   4.688   0.314  0.0088 -0.0391  0.1286
24899W        W40708  17.675   8.191   3.085  0.1553  0.1690 -0.5716
24900W        W40709   5.998   7.909   5.243  0.1434  0.2308  0.0061
24901W        W40710  12.815  14.836   0.805 -0.0759 -0.2165  0.0017
24902W        W40711  16.113   8.076  15.047  0.0051 -0.0100 -0.0272
24903W        W40712   0.284  10.233   3.923  0.2626 -0.1302  0.0818
24904W        W40713  14.832   3.004   5.172 -0.1949 -0.2807  0.0689
24905W        W40714  11.935   9.210   5.201  0.2043  0.1100  0.0371
24906W        W40715  12.526   6.299   1.595 -0.2220 -0.1388 -0.3944
24907W        W40716   8.132   0.493  11.117  0.1318  0.0396 -0.0544
24908W        W40717  15.620   6.474  16.872 -0.0285  0.2191  0.2426
24909W        W40718  13.366  11.463  13.490 -0.1325 -0.0335  0.1826
24910W        W40719   5.203  10.495  13.959 -0.3717 -0.2725 -0.0536
24911W        W40720   3.010  12.043   5.459  0.1688  0.0935 -0.1064
24912W        W40721   5.187  16.087  13.896 -0.2234 -0.0424  0.2086
24913W        W40722   5.172   5.279   2.780 -0.0341  0.3148  0.1047
24914W        W40723  14.847  13.075   3.979  0.2295 -0.1675 -0.0978
24915W        W40724   4.339  14.662   0.511  0.1317  0.3762  0.0030
24916W        W40725   6.290   4.371  16.027  0.1452  0.2611  0.0155
24917W        W40726   7.417  16.481   2.674  0.0706 -0.1524  0.1986
24918W        W40727   7.139   3.947  14.645  0.0157 -0.1108 -0.4067
24919W        W40728  11.644   8.141  14.371  0.0822 -0.0593 -0.2456
24920W        W40729   7.107   0.534  14.965  0.1080 -0.1813 -0.0279
24921W        W40730   5.062   7.940   0.943 -0.1918 -0.0050 -0.1755
24922W        W40731   0.616   6.653   2.806  0.1364  0.1183  0.0286
24923W        W40732   6.937   5.675  16.988 -0.3020  0.0200  0.0680
24924W        W40733  15.307   5.955   2.445  0.1866  0.5536  0.0285
24925W        W40734   2.347  11.358   2.456  0.1139 -0.2223 -0.1306
24926W        W40735  17.546   6.310  14.517 -0.0424 -0.1924  0.2826
24927W        W40736   3.535  11.585   4.788 -0.1177 -0.0894  0.0825
24928W        W40737  11.737   7.517   1.199  0.2757  0.2841 -0.1489
24929W        W40738  13.069   9.598  14.362 -0.0837 -0.1163  0.0733
24930W        W40739   7.340   7.864   3.144 -0.2220  0.0549 -0.0253
24931W        W40740  17.284  15.589   3.040 -0.1763 -0.2243  0.0765
24932W        W40741   7.440  17.156   5.686  0.0610  0.1979  0.2964
24933W        W40742   0.375   6.336   4.157 -0.2140  0.1476 -0.0437
24934W        W40743   5.758   3.496   2.947 -0.1105  0.1145 -0.0736
24935W        W40744   2.414   4.860  16.672  0.1394 -0.0921  0.2311
24936W        W40745   0.740   6.107  14.411 -0.0255 -0.0709  0.2344
24937W        W40746   9.388   5.043   2.401  0.3996  0.1652 -0.1730
24938W        W40747  15.532  11.156  11.694 -0.0818  0.0967 -0.0972
24939W        W40748  10.582   8.860  12.015 -0.1766  0.0392  0.1255
24940W        W40749   5.482   3.970  16.267 -0.1440  0.1117  0.0253
24941W        W40750  16.822  14.121  15.954 -0.0373 -0.0190 -0.0888
24942W        W40751  15.718   2.814  14.553  0.3186  0.2173  0.1225
24943W        W40752   7.742   0.630   3.170 -0.1759 -0.0918 -0.1290
24944W        W40753   7.482  14.752   5.705 -0.0469 -0.1311 -0.0178
24945W        W40754  12.750  10.200  13.478  0.1753 -0.3342 -0.0127
24946W        W40755  16.819  12.732  15.088 -0.2469  0.0758 -0.1731
24947W        W40756  14.319  17.277  12.053  0.2003  0.2107  0.0385
24948W        W40757  14.566   4.207   1.363 -0.0218 -0.2579 -0.0693
24949W        W40758   1.409  13.033  15.539 -0.0587 -0.1628  0.0496
24950W        W40759   2.071   7.149   6.377  0.0759 -0.1818  0.2941
24951W        W40760   0.530  11.641  14.505 -0.0545 -0.3021  0.1713
24952W        W40761   9.707   2.889  16.473  0.2073 -0.5330 -0.0110
24953W        W40762   6.894  14.018   2.445 -0.2652 -0.0132  0.0837
24954W        W40763  13.108   3.293   0.389  0.0305 -0.1403 -0.3395
24955W        W40764  11.497   6.414   2.017  0.4432 -0.0116 -0.1183
24956W        W40765   5.080  16.854  14.169 -0.3405 -0.1701  0.4164
24957W        W40766  14.321   3.789   2.817 -0.1054  0.0332  0.1432
24958W        W40767   8.035   4.262   3.885 -0.1999 -0.0721  0.2344
24959W        W40768   1.272  15.731   2.757 -0.2634 -0.1896 -0.0246
24960W        W40769   3.355   7.297  16.777 -0.1549 -0.0933 -0.1089
24961W        W40770  15.720   1.852   5.916  0.2726 -0.1698 -0.0134
24962W        W40771  13.607   9.367  14.721 -0.0605  0.0774  0.2129
24963W        W40772  11.875  11.586   0.469 -0.3373 -0.0898 -0.2297
24964W        W40773  11.056   6.635   6.751 -0.1172 -0.3682 -0.2710
24965W        W40774  12.206  10.800  15.617  0.3046  0.1569 -0.2107
24966W        W40775   6.903   4.055   2.356  0.1989  0.0354 -0.1502
24967W        W40776  14.347  14.966   2.259 -0.1763 -0.3077  0.0318
24968W        W40777  16.847  14.572  16.816  0.0405  0.0655 -0.0162
24969W        W40778   2.331   7.076  15.353  0.1492  0.2906  0.1821
24970W        W40779   2.076   3.301   6.109 -0.1528 -0.2637 -0.1179
24971W        W40780   4.544   5.287  14.473 -0.1669 -0.1037  0.0160
24972W        W40781  11.340   3.955  14.650 -0.0526  0.0485  0.0525
24973W        W40782  13.584  11.746   5.482 -0.0925 -0.1455  0.1583
24974W        W40783   6.985   2.921   3.584 -0.0985  0.1673 -0.1626
24975W        W40784   0.848   4.105  15.047  0.1266  0.1887 -0.0415
24976W        W40785   6.318  17.261   3.741 -0.1366  0.0655 -0.0730
24977W        W40786  14.336   1.951   1.620  0.2717 -0.2113 -0.1480
24978W        W40787   1.800  12.517   6.659 -0.1334  0.3013 -0.3296
24979W        W40788   9.743  10.994   4.418 -0.1192 -0.3488  0.0777
24980W        W40789   6.606  15.378   0.287 -0.1126 -0.0036 -0.0790
24981W        W40790  10.309  12.804  14.500  0.0585 -0.1491  0.1869
24982W        W40791  12.488  11.455   1.579 -0.0896 -0.2903 -0.1191
24983W        W40792   4.422   7.494   4.649  0.1840 -0.2698 -0.1184
24984W        W40793  17.100  17.431  13.158 -0.1038  0.1515 -0.1382
24985W        W40794  14.520   8.345   1.227 -0.1868  0.0575 -0.0014
24986W        W40795   0.412   1.635  15.941 -0.1970  0.0205 -0.1369
24987W        W40796   6.585   7.615  11.971 -0.1680  0.1311  0.0024
24988W        W40797  13.788   8.988  13.682 -0.0657 -0.0576  0.0534
24989W        W40798  15.802   5.426  11.882  0.2943  0.0490 -0.0196
24990W        W40799   8.106  16.069   2.085  0.1917  0.3207 -0.0914
24991W        W40800   8.160  15.246  12.575 -0.0481 -0.2479 -0.1348
24992W        W40801  14.540   6.070  16.796 -0.0180  0.0819 -0.1251
24993W        W40802   2.047  14.003   1.513 -0.2511 -0.2358  0.1108
24994W        W40803   8.589   1.173   3.538 -0.1688 -0.0685 -0.2014
24995W        W40804   0.342   5.428   5.588  0.2694 -0.0575 -0.0381
24996W        W40805  16.060  11.123   2.547 -0.2668 -0.1901 -0.2649
24997W        W40806  14.471  14.880  12.997 -0.0685 -0.2367  0.2332
24998W        W40807  15.053   6.288  16.692 -0.1145 -0.4352  0.2941
24999W        W40808   5.730   0.855  15.466  0.0198 -0.0189  0.0098
25000W        W40809  16.608  14.591   2.853  0.1047 -0.0743  0.4003
25001W        W40810   0.609  16.601   3.318  0.0542  0.0215  0.0906
25002W        W40811   9.205  13.252   1.423 -0.1860  0.1217  0.1413
25003W        W40812  10.301   2.987   1.618 -0.0121 -0.0595  0.0474
25004W        W40813   3.880   1.252   4.539 -0.0111  0.3167  0.0666
25005W        W40814   3.821   2.673  13.690  0.1570 -0.1786 -0.1286
25006W        W40815  10.282  17.359   0.277  0.1486  0.1790 -0.0318
25007W        W40816   2.816   7.052  13.485  0.1944 -0.3794  0.1821
25008W        W40817   4.378  15.554   1.013  0.1519  0.2846 -0.2644
25009W        W40818   6.702   3.427   5.259 -0.0573 -0.1429  0.0391
25010W        W40819  15.092   4.850  15.548  0.0662  0.1607  0.0514
25011W        W40820   3.193   1.426   3.805 -0.0303 -0.2434  0.2599
25012W        W40821   2.004   4.405  14.290  0.0063  0.1710  0.3982
25013W        W40822  10.514   0.978   1.405  0.0798  0.1218 -0.0547
25014W        W40823   6.952  11.928  14.236 -0.1058  0.0378  0.0149
25015W        W40824   9.070   0.153  13.038  0.0802 -0.0440 -0.1194
25016W        W40825   5.117  10.179   5.423 -0.3820  0.4025  0.2851
25017W        W40826  13.215  17.575   4.291 -0.2794 -0.2346  0.0773
25018W        W40827   3.711  10.058  15.806 -0.1195  0.0690  0.0490
25019W        W40828   8.550   4.851  12.395 -0.1999 -0.2117 -0.1010
25020W        W40829   6.223   2.432  11.913 -0.2912  0.0905  0.1919
25021W        W40830   0.153   4.931   1.989 -0.2294  0.0095  0.0724
25022W        W40831   3.534  13.643  16.365 -0.0946 -0.0766  0.3119
25023W        W40832   3.305   1.272  15.043 -0.0171 -0.0066  0.0986
25024W        W40833  14.469  13.471   3.185 -0.0723 -0.2895 -0.0590
25025W        W40834  12.155  15.098   0.000  0.0934 -0.2726 -0.0312
25026W        W40835   5.543  10.656  15.898 -0.3907  0.2347 -0.0475
25027W        W40836  11.711  13.627  14.879 -0.0500  0.0803  0.3994
25028W        W40837   6.254   4.394   2.743  0.3609 -0.0338  0.0439
25029W        W40838   1.662   9.046  11.695  0.0334 -0.1584 -0.2336
25030W        W40839   5.889   7.619   4.745  0.2690 -0.0996  0.2589
25031W        W40840  16.834  13.316  13.610  0.3490  0.2688 -0.2706
25032W        W40841   4.820   9.302   1.188  0.2429 -0.2855 -0.2902
25033W        W40842   4.967  16.459  15.753 -0.2999 -0.0654 -0.1598
25034W        W40843   4.620  17.224   2.161  0.0178  0.0453  0.1691
25035W        W40844   1.184   5.404  14.808 -0.1518 -0.1097 -0.2407
25036W        W40845   7.682   7.356   1.012  0.0083  0.2620 -0.1410
25037W        W40846   5.544   4.521   3.428 -0.0663  0.1087  0.1394
25038W        W40847   7.651  17.435  13.010  0.0071 -0.2179  0.0514
25039W        W40848  13.810   4.962  13.846 -0.0576 -0.2608 -0.1390
25040W        W40849  12.067   8.535   3.543  0.0580  0.2315 -0.3123
25041W        W40850   1.251   3.112  12.918 -0.1245 -0.2169  0.3302
25042W        W40851   6.529  11.700  12.436 -0.0001 -0.0107  0.0432
25043W        W40852   1.935   8.477  15.237  0.1416 -0.2692  0.0444
25044W        W40853  16.452   4.470   0.087  0.1239 -0.1955  0.0730
25045W        W40854  13.905   0.455  16.806  0.1481  0.0007 -0.0496
25046W        W40855   4.958  16.916  12.762  0.4426  0.1098  0.1485
25047W        W40856  15.445   6.880  15.532 -0.0780  0.2205 -0.1519
25048W        W40857   5.664   0.208   4.810 -0.0935  0.2216  0.2582
25049W        W40858   1.351   6.120  12.730  0.0241 -0.0322 -0.2691
25050W        W40859   4.527   1.697  11.959 -0.0312  0.1399  0.1249
25051W        W40860  12.092   4.886  14.322  0.0166 -0.0006  0.0510
25052W        W40861   9.435  17.536   1.290 -0.0558  0.0426  0.0365
25053W        W40862  13.399  17.727  13.201  0.0966  0.0190  0.2319
25054W        W40863  13.210   9.473   1.258  0.1722  0.1724  0.0682
25055W        W40864   6.004  12.590   1.807 -0.0517 -0.0135  0.0616
25056W        W40865  12.487   3.136   2.681  0.0147 -0.1491 -0.2030
25057W        W40866  13.861   9.022   3.808 -0.0073  0.3975  0.1911
25058W        W40867   0.430  17.247  14.293 -0.2244  0.0681 -0.1211
25059W        W40868   1.080   3.892   1.898 -0.0625 -0.2594 -0.3436
25060W        W40869   9.232   4.197  12.898 -0.0184 -0.0290 -0.1312
25061W        W40870  14.172   8.108   2.082 -0.0885  0.1276 -0.1029
25062W        W40871  17.004   5.042  12.165  0.0756  0.0100 -0.2129
25063W        W40872   6.139   0.265   1.202  0.3121  0.0979  0.0311
25064W        W40873   3.040  16.561   2.507 -0.1188  0.2419 -0.0905
25065W        W40874  10.061   1.011  12.606 -0.0443  0.2018  0.3069
25066W        W40875   3.586   7.097  12.379 -0.3962  0.0929  0.2054
25067W        W40876   3.853   3.025   3.672  0.0241  0.2632 -0.0022
25068W        W40877   3.281  12.408   5.791  0.1290  0.0839  0.0442
25069W        W40878  12.053   8.111  13.720 -0.2324 -0.0877 -0.0046
25070W        W40879  16.039  11.698   4.985 -0.1397  0.2732  0.1140
25071W        W40880  17.576   1.090  14.401  0.0120 -0.2430 -0.2352
25072W        W40881  10.248   0.481  13.578 -0.0131 -0.0974  0.0387
25073W        W40882  12.267  15.821   5.273  0.1181 -0.1334 -0.0352
25074W        W40883   9.881  11.212  12.158 -0.0622  0.2955 -0.1271
25075W        W40884   8.515  15.362  13.642 -0.1621  0.2205  0.0042
25076W        W40885   4.991  12.441  13.709  0.2383  0.2130 -0.2221
25077W        W40886   1.057  11.347  16.190 -0.0682 -0.0573 -0.2517
25078W        W40887   6.177   8.899   0.476 -0.1400  0.1215 -0.0181
25079W        W40888  12.997   0.908  15.338 -0.0670 -0.1295  0.0020
25080W        W40889  13.826  17.499  13.381 -0.1916 -0.2199 -0.1160
25081W        W40890  12.151  10.723   1.358 -0.3563 -0.1864 -0.4163
25082W        W40891   0.418   8.724   5.162  0.0889  0.2642 -0.2075
25083W        W40892   3.912  14.579  14.890 -0.1119  0.0631  0.3300
25084W        W40893  10.236   8.976  13.839 -0.0936  0.0544 -0.1691
25085W        W40894   4.008   8.038  15.441  0.2931  0.1190 -0.0444
25086W        W40895   0.376   5.988   0.151  0.0048  0.0915  0.1557
25087W        W40896   2.855   8.367  16.076 -0.0654 -0.1540 -0.1375
25088W        W40897  10.713   6.628   3.006  0.0150  0.2904  0.0542
25089W        W40898   1.342  11.287   1.498 -0.1409  0.1349  0.2122
25090W        W40899   5.349  17.380  16.386 -0.0267 -0.1921  0.4219
25091W        W40900   0.495   9.904   1.463 -0.2526  0.0223 -0.0298
25092W        W40901  12.512  10.331  13.067  0.1303 -0.2220  0.2009
25093W        W40902  16.114   7.606   0.830  0.1362  0.0427 -0.0174
25094W        W40903  13.426   0.548   3.515  0.1791 -0.2813  0.0804
25095W        W40904   7.890  11.367  11.332  0.0280  0.1765  0.0708
25096W        W40905   8.117   2.241   0.542  0.0109  0.1895  0.0388
25097W        W40906  15.156   5.527   5.426 -0.0452  0.0411 -0.1304
25098W        W40907   7.732   4.340   4.844  0.0077  0.1023  0.2841
25099W        W40908   7.890  10.855  13.391 -0.2272  0.1967 -0.0312
25100W        W40909   3.733  13.619  15.347 -0.0514  0.0384  0.0677
25101W        W40910  13.584  14.844   3.550  0.0394  0.0183 -0.0121
25102W        W40911   2.432   2.648   3.306  0.0792  0.0582  0.3616
25103W        W40912   8.258  15.190  14.136  0.1397  0.1833  0.0650
25104W        W40913   9.345   2.157   1.620  0.0828 -0.2693 -0.1113
25105W        W40914   9.538  17.156  15.956 -0.1593  0.0064  0.1665
25106W        W40915   0.499   2.120   0.349  0.0298 -0.1462  0.1674
25107W        W40916   8.736  13.031  15.788 -0.0701  0.2166  0.1674
25108W        W40917   7.810  17.281  13.969 -0.1431 -0.3425 -0.1761
25109W        W40918  15.142   4.956   1.624  0.0806  0.0391  0.2242
25110W        W40919  14.131  17.516   5.612  0.1241 -0.0352 -0.1693
25111W        W40920  12.216   1.259  11.892  0.1575 -0.0911 -0.0233
25112W        W40921   3.798   9.359   3.039  0.0579 -0.0116 -0.1344
25113W        W40922   4.067   5.672   1.622 -0.0572 -0.0018  0.2838
25114W        W40923   5.350  15.310  14.455 -0.1953 -0.0531  0.1449
25115W        W40924  13.637  10.033  11.315 -0.2476  0.4337  0.2510
25116W        W40925  10.932   0.126   3.297  0.3194 -0.0965 -0.1316
25117W        W40926  16.992   7.028   1.429  0.1120 -0.0772 -0.1066
25118W        W40927   6.384  10.770  13.570  0.0715 -0.0781 -0.1592
25119W        W40928  11.255  12.478  11.947  0.2736  0.1544 -0.1588
25120W        W40929  10.957   6.477   0.339  0.0626  0.3310  0.0986
25121W        W40930  15.324   6.177  16.256  0.0539 -0.4225 -0.0982
25122W        W40931   7.007   6.232  11.557 -0.1188  0.0381 -0.2643
25123W        W40932  16.003  12.329   1.084 -0.1990  0.3815  0.2373
25124W        W40933  16.053  10.295  12.371 -0.0897 -0.1824 -0.0583
25125W        W40934   6.160  11.978   3.143  0.1448 -0.0714 -0.0530
25126W        W40935  15.093  12.358   1.051  0.0750 -0.0266 -0.0719
25127W        W40936  13.124  13.198  16.365 -0.0255 -0.1652  0.2811
25128W        W40937  13.688   9.503   5.037  0.0246 -0.2249 -0.0139
25129W        W40938  13.055   9.608  14.853  0.0222 -0.0746 -0.0652
25130W        W40939  11.151   7.117   0.112 -0.0183 -0.3035  0.2627
25131W        W40940  14.519   4.623  14.887  0.1711 -0.0747 -0.2185
25132W        W40941   8.551  11.917  13.629 -0.2778 -0.1162  0.2741
25133W        W40942  11.659   8.926   3.806 -0.1584  0.1608 -0.1062
25134W        W40943  15.124  16.595  13.235 -0.0422 -0.1088 -0.0534
25135W        W40944  10.436   7.882   1.781  0.1660  0.1339  0.2821
25136W        W40945  17.719   1.750  16.595 -0.1929  0.1027  0.1868
25137W        W40946  12.362   7.052   2.328 -0.3541 -0.1145 -0.1186
25138W        W40947  13.482  16.578   5.219 -0.0099  0.0889  0.0689
25139W        W40948  10.936   7.970  12.318 -0.0677 -0.1133  0.3399
25140W        W40949   8.283   6.559  14.816 -0.3241  0.1185  0.2746
25141W        W40950  10.368   1.990  12.091 -0.0061  0.0585 -0.3177
25142W        W40951   8.492   6.696  12.590  0.1544  0.0792 -0.1610
25143W        W40952  10.278  17.417   3.029 -0.3324  0.0569  0.0085
25144W        W40953  17.161   4.404  13.891  0.0608  0.4225  0.0018
25145W        W40954   3.895   4.957   1.027  0.1862  0.0443  0.3409
25146W        W40955  17.416   0.893   4.880 -0.1655 -0.0501  0.0651
25147W        W40956   7.127   7.787  15.629 -0.2105  0.2607  0.0164
25148W        W40957   2.327   7.270  14.412 -0.3525 -0.1799 -0.0462
25149W        W40958  12.411   9.496  12.448  0.2283 -0.0490  0.1520
25150W        W40959  16.693   1.934  16.300  0.0757  0.0615 -0.0153
25151W        W40960   3.931   6.322  12.935  0.0361 -0.0779  0.0506
25152W        W40961  17.297  16.512  10.233  0.0891 -0.2434  0.0745
25153W        W40962  17.406   1.657   3.326  0.0578 -0.1084 -0.3876
25154W        W40963  13.161   9.207  13.697  0.2209  0.1396  0.1152
25155W        W40964   7.245   1.591   5.622  0.1312 -0.1744  0.3348
25156W        W40965   5.852   8.625   4.331  0.1277  0.1571  0.0265
25157W        W40966   2.796  14.766  12.113  0.2385 -0.1032 -0.1979
25158W        W40967  10.080  14.671  14.952  0.1330  0.0429 -0.0369
25159W        W40968   3.804   8.387   1.926  0.1450  0.0157 -0.0625
25160W        W40969  13.480   7.844   5.296 -0.3464  0.0655  0.0848
25161W        W40970  16.244   1.346   3.522  0.1917  0.1978  0.2084
25162W        W40971   0.471   8.305   3.062  0.2234 -0.1560  0.2353
25163W        W40972   2.067  16.048  11.675  0.4244  0.2590  0.2862
25164W        W40973   7.837  14.253   2.398 -0.1792 -0.2452 -0.2224
25165W        W40974   7.871   1.133   1.415 -0.2163 -0.0028 -0.1719
25166W        W40975  15.203  16.144  15.250  0.0616  0.0095  0.0882
25167W        W40976   8.446   6.218   1.566 -0.1370 -0.0220 -0.0687
25168W        W40977   9.629  11.164   1.003  0.1555 -0.0835 -0.1316
25169W        W40978   1.124  13.935   5.588  0.0643  0.2855  0.1800
25170W        W40979   3.975   4.582   6.239  0.1685  0.1614  0.1016
25171W        W40980   6.058  16.799   0.517  0.1688 -0.0480  0.0202
25172W        W40981  10.097   1.263  12.127  0.0342  0.2451 -0.0123
25173W        W40982   4.352  15.034   4.152  0.1604 -0.2562  0.1400
25174W        W40983   1.669   7.582   2.887  0.0661  0.0971  0.0971
25175W        W40984  12.986  14.903  14.346 -0.4248  0.0897 -0.0519
25176W        W40985   7.691   7.756  11.951  0.3247 -0.3144 -0.2771
25177W        W40986  16.073   5.473  16.304  0.1584  0.0645 -0.0951
25178W        W40987  11.555  17.575  15.684  0.1463 -0.1674 -0.1643
25179W        W40988   2.868   7.635  13.674 -0.0288  0.0614  0.0021
25180W        W40989  15.142   5.483   1.476  0.3810  0.3117  0.0717
25181W        W40990  10.628   7.218   4.559 -0.1499  0.2773 -0.0887
25182W        W40991   6.895   1.956  13.234 -0.4255 -0.0757 -0.1363
25183W        W40992   8.394  10.074  11.844 -0.2546  0.4344 -0.2332
25184W        W40993   1.726  13.855   3.539  0.0552  0.0385 -0.4670
25185W        W40994  16.888   3.645  16.846 -0.3489  0.1988  0.1699
25186W        W40995   0.744   5.926  15.617  0.1277 -0.0366  0.0098
25187W        W40996   9.845   6.542  12.053  0.1233  0.0659 -0.0425
25188W        W40997  15.747  17.218  11.472  0.1284 -0.1295  0.1457
25189W        W40998   9.559  12.686  16.640  0.0986 -0.3503 -0.0800
25190W        W40999  11.750   6.235  12.247 -0.0424  0.1149  0.1290
25191W        W41000   9.704  15.549  11.597  0.0698 -0.2386  0.1552
25192W        W41001   7.229   4.022   4.327  0.2744  0.0786  0.2130
25193W        W41002   6.599   9.472  11.904 -0.2102  0.1773 -0.1248
25194W        W41003   9.338   4.939  16.927  0.1877 -0.0293 -0.1285
25195W        W41004  16.664   4.806   4.167 -0.3816 -0.1720 -0.2122
25196W        W41005  11.126  11.707  12.406  0.0950 -0.1342  0.2443
25197W        W41006   5.084   9.498  13.586 -0.1716  0.0339 -0.0128
25198W        W41007  13.780  16.132   3.474 -0.0439 -0.4465  0.1960
25199W        W41008  10.391   6.104  15.238  0.0567  0.0716 -0.2262
25200W        W41009  15.574   3.868   4.568 -0.0481  0.1869 -0.1424
25201W        W41010  16.158   6.529  15.941 -0.0139  0.0252  0.0547
25202W        W41011   9.508   1.419  14.201 -0.2836  0.2258  0.0751
25203W        W41012   2.214   5.265   5.574  0.0700 -0.2566  0.0261
25204W        W41013   3.771   0.041   1.498 -0.0681 -0.1328  0.0691
25205W        W41014   4.405  11.070   3.957  0.1535  0.0103 -0.3927
25206W        W41015  10.644   8.308   1.971  0.2303 -0.0619  0.3752
25207W        W41016  16.435  14.689  15.834 -0.0489  0.2930 -0.0788
25208W        W41017  12.509  15.738  11.449  0.1816 -0.0509  0.1000
25209W        W41018  11.807  12.584   3.093 -0.1984 -0.2135  0.0002
25210W        W41019  17.548   9.220   0.182  0.1230 -0.0531 -0.3007
25211W        W41020  15.277   0.162  11.660 -0.4053  0.1208  0.3807
25212W        W41021   2.830   9.196   2.107 -0.0184  0.1433 -0.1374
25213W        W41022   1.279  12.559  13.126  0.2212 -0.0318  0.0287
25214W        W41023  12.735  16.471  12.518  0.0647  0.1842  0.0992
25215W        W41024  15.528  16.713   4.684  0.0366  0.1298 -0.3073
25216W        W41025   1.986   8.830   3.387  0.1462  0.0661 -0.1656
25217W        W41026   9.326   4.594   2.596 -0.0380 -0.2977  0.0994
25218W        W41027  15.409   4.996  15.173  0.1674  0.0492 -0.2181
25219W        W41028  17.272  14.697   3.548  0.1146  0.1640  0.1594
25220W        W41029   5.065   5.687   2.559  0.1772 -0.0627  0.3535
25221W        W41030   9.498   7.430   0.335  0.3780  0.1259 -0.0879
25222W        W41031   7.044  17.525  14.585  0.4171  0.1423 -0.0557
25223W        W41032   4.293  16.847  16.157  0.2503  0.2028 -0.0404
25224W        W41033  11.782   6.916  16.442  0.1640 -0.1398  0.1366
25225W        W41034  15.502  13.952  13.667 -0.6007 -0.0073  0.1149
25226W        W41035   5.203  13.872   1.289  0.3008 -0.1366  0.0421
25227W        W41036   4.318  16.523  13.679 -0.1592 -0.0308 -0.3712
25228W        W41037  14.309   2.908   0.195  0.3075  0.0562 -0.0703
25229W        W41038   4.110  14.922  16.761 -0.1506  0.1594  0.0360
25230W        W41039  15.301   0.401  13.204  0.1305 -0.0010  0.0035
25231W        W41040  16.483   7.628  14.363  0.3237 -0.1999 -0.0706
25232W        W41041  17.305  14.604  12.883  0.2156  0.2772 -0.1203
25233W        W41042   7.576   5.865  15.328 -0.0154  0.0328  0.1947
25234W        W41043  17.510   6.615   0.075 -0.4268 -0.2199  0.0390
25235W        W41044   0.689   8.859   3.926 -0.0433  0.1307  0.0271
25236W        W41045  12.160  11.073   0.383  0.0207  0.3051  0.1731
25237W        W41046   8.901  12.769  11.365 -0.0873 -0.1217  0.0717
25238W        W41047  10.369  13.101  10.415 -0.0362  0.1334 -0.0395
25239W        W41048   7.568  15.908  13.816  0.0748 -0.2661  0.2616
25240W        W41049  16.312   4.155   2.364 -0.0546 -0.0066  0.1103
25241W        W41050   7.677   8.981  16.094  0.3053  0.0056 -0.1472
25242W        W41051  17.286  12.453  15.909  0.1522 -0.2187 -0.1440
25243W        W41052   3.870   0.159  13.798 -0.0701  0.0824  0.3574
25244W        W41053   1.801   9.591   2.008 -0.1667  0.0032  0.2389
25245W        W41054  10.055  10.137  13.536  0.1396  0.2711  0.2000
25246W        W41055  11.786  10.855   2.617  0.0649  0.1821 -0.1798
25247W        W41056   4.115  14.485   4.391 -0.2131  0.1027  0.0691
25248W        W41057  11.942   8.004  11.431  0.0327 -0.0710 -0.2989
25249W        W41058  14.716  13.142  14.634 -0.1239 -0.0167  0.3593
25250W        W41059  16.628   2.647   4.101 -0.0026  0.1295 -0.3025
25251W        W41060   6.496   6.130  11.825 -0.0575 -0.1949 -0.1037
25252W        W41061   8.381   1.115  12.840  0.1492  0.0513  0.0559
25253W        W41062  13.167   2.891   2.419 -0.1192 -0.2261  0.1528
25254W        W41063   2.223  16.211   1.204  0.0180 -0.1225  0.1712
25255W        W41064  14.526   1.146   0.764 -0.2006 -0.0336 -0.2143
25256W        W41065  16.986   5.119  15.132  0.0618 -0.1609 -0.0534
25257W        W41066   9.836   0.898  11.833  0.1913 -0.0442 -0.1870
25258W        W41067   3.582  14.114  16.167 -0.1829  0.0237 -0.1968
25259W        W41068  10.663  10.486  15.037  0.0294  0.1227 -0.2575
25260W        W41069  13.324   5.375  14.344  0.0515 -0.1445  0.0122
25261W        W41070  16.267   8.941  13.485 -0.0130 -0.0667  0.0141
25262W        W41071  17.649   0.476   2.328  0.0619 -0.1601 -0.0235
25263W        W41072  11.621   7.033  13.740 -0.1355 -0.0362  0.0219
25264W        W41073   1.741  14.174   0.784  0.1362  0.0654 -0.0441
25265W        W41074   4.023   5.745  11.897  0.4764 -0.2317  0.1724
25266W        W41075   8.676   7.471  15.378 -0.1346 -0.1913 -0.0327
25267W        W41076   3.756  17.027  12.715  0.1050  0.0231  0.2181
25268W        W41077  15.699   4.885  14.046  0.1017 -0.2680 -0.0526
25269W        W41078   5.015  12.618   1.278 -0.2471 -0.3284 -0.0266
25270W        W41079   0.930  17.104  13.128  0.3396  0.1849 -0.0009
25271W        W41080   6.945  14.207   0.479  0.1219 -0.2490 -0.1050
25272W        W41081   3.262   5.177   6.588 -0.1339  0.1276  0.1005
25273W        W41082   2.551  10.798   1.544 -0.2312  0.1101 -0.0475
25274W        W41083  14.109  13.776   2.970 -0.3004 -0.1063  0.0163
25275W        W41084   2.802  13.917  15.225  0.1691 -0.2342 -0.0160
25276W        W41085   6.604   1.574   4.897  0.1266 -0.0088  0.1169
25277W        W41086  16.003   9.153   0.246 -0.0745 -0.3306 -0.2223
25278W        W41087   6.998   1.167  13.943 -0.0755 -0.1721 -0.0376
25279W        W41088  14.998  13.647  12.681 -0.2434 -0.0652  0.0448
25280W        W41089   2.272   8.220  15.492 -0.1099 -0.2135  0.0756
25281W        W41090  16.844   4.828   0.805  0.0232 -0.2365 -0.2359
25282W        W41091  10.472  10.646   2.337 -0.1849 -0.1117  0.2530
25283W        W41092  16.733  12.788  13.503 -0.1212  0.1111  0.0178
25284W        W41093   9.936  16.732  14.703  0.1948  0.1295  0.0046
25285W        W41094   8.353  15.349  15.048 -0.1219 -0.2574 -0.2353
25286W        W41095  11.851   0.092  12.719 -0.0838  0.2434  0.1381
25287W        W41096  10.985  10.485  12.844  0.0390 -0.0197  0.2590
25288W        W41097   8.479   1.877  16.540  0.1123  0.2061  0.1822
25289W        W41098   1.254  17.560   0.629  0.2195  0.2137  0.1057
25290W        W41099  16.579   5.839   5.075 -0.1145  0.1598 -0.0635
25291W        W41100  15.124   8.443   4.284  0.0098  0.0449  0.2814
25292W        W41101   8.283  14.545   1.362 -0.3734  0.3785 -0.2924
25293W        W41102   3.586   3.339  13.005  0.1470 -0.3113  0.0275
25294W        W41103   2.851   7.708  11.552  0.0499  0.0299 -0.1280
25295W        W41104  12.336   4.372   4.845  0.3732  0.0257 -0.1232
25296W        W41105   8.096  15.192  11.578 -0.1134 -0.0798 -0.1288
25297W        W41106  14.414   4.368   2.759 -0.0838 -0.2244  0.0479
25298W        W41107  13.099  16.761   0.833 -0.2430 -0.4271  0.2090
25299W        W41108   9.930   4.939  12.914  0.1308 -0.0182  0.0872
25300W        W41109  14.955   1.915   0.199 -0.1927 -0.1171 -0.0268
25301W        W41110   9.094  11.991  15.801  0.1913 -0.0007  0.1130
25302W        W41111   1.634   1.278  12.511 -0.1970 -0.1004  0.0819
25303W        W41112   9.813   3.324  16.209  0.2820  0.0646  0.0549
25304W        W41113  10.199   0.114  14.376 -0.1324 -0.1206 -0.2936
25305W        W41114  17.634   4.928   6.124 -0.1070 -0.1638  0.0085
25306W        W41115  10.672   7.381   2.774 -0.1457  0.1646 -0.0239
25307W        W41116  14.523  10.157   0.230  0.0771 -0.0748 -0.5241
25308W        W41117   5.985   6.429   4.261 -0.1008  0.0752  0.2336
25309W        W41118   7.502  16.259   2.105 -0.2894 -0.1087  0.1429
25310W        W41119  13.733   5.733  14.280  0.0603  0.0012 -0.1522
25311W        W41120   5.428   8.983  16.690  0.2259  0.3289  0.3746
25312W        W41121   6.788   0.460  13.538 -0.0482  0.3301  0.0321
25313W        W41122  14.801   8.823   4.457  0.0488 -0.2322  0.0456
25314W        W41123   4.194  17.054   1.917  0.0610  0.3118 -0.2073
25315W        W41124  12.139  13.773  11.304  0.3225 -0.1402  0.0839
25316W        W41125   9.517   2.669   3.164  0.2535  0.0701 -0.0602
25317W        W41126   5.395   9.936   4.117 -0.0405 -0.0397 -0.1216
25318W        W41127   4.358   8.743   1.111  0.0813  0.1866 -0.1962
25319W        W41128   1.723   1.982  15.888 -0.2189  0.2391  0.0204
25320W        W41129   2.081  12.442  16.592 -0.0817 -0.0689  0.0660
25321W        W41130   6.934   4.898   2.612  0.1303  0.0449 -0.0255
25322W        W41131  15.761   2.404  15.777  0.6099  0.0584 -0.2046
25323W        W41132  15.120  15.265  11.238 -0.0877  0.2429 -0.0239
25324W        W41133  10.586   9.523  12.969 -0.1062  0.0204 -0.0997
25325W        W41134  10.997  13.206  13.225 -0.1180 -0.2494  0.0167
25326W        W41135   7.150  12.239   4.915 -0.1173  0.3514 -0.1319
25327W        W41136   1.370   7.550   0.075  0.0799 -0.3279  0.0726
25328W        W41137  14.086   5.815  13.014  0.0370  0.0986  0.2067
25329W        W41138  10.884  12.677   1.471 -0.0089  0.1381  0.1884
25330W        W41139  12.834  13.905  13.356 -0.0535 -0.0510  0.0621
25331W        W41140   4.088   3.757   1.807 -0.2459  0.0198 -0.2350
25332W        W41141   5.242   3.883  14.826  0.4302  0.2151 -0.0301
25333W        W41142   8.114   8.875   5.655  0.1336 -0.0278 -0.1440
25334W        W41143  11.468   2.900  11.995  0.0901 -0.1658 -0.1689
25335W        W41144  10.186  11.860  15.508 -0.2533 -0.1961  0.1134
25336W        W41145  14.507  15.724  12.671 -0.0617 -0.2489 -0.0742
25337W        W41146  16.635   5.123  13.926 -0.1287 -0.3272 -0.2009
25338W        W41147   8.225   2.887   2.866 -0.1761  0.0015 -0.0412
25339W        W41148   2.756  10.995  12.328  0.0477  0.2488  0.2994
25340W        W41149  15.913  15.555   0.018  0.0785  0.2970 -0.3421
25341W        W41150  16.544   8.090  12.031 -0.2164 -0.1135  0.1866
25342W        W41151   6.808   5.069  13.553 -0.1831 -0.2072  0.0812
25343W        W41152  17.706   9.081   2.040  0.2358 -0.3082 -0.0816
25344W        W41153   6.279  15.550  11.213  0.2462  0.1194 -0.1697
25345W        W41154  16.877   0.981  16.860  0.1082  0.3091 -0.0171
25346W        W41155   4.897  13.862  12.367  0.1101  0.0248  0.2285
25347W        W41156  17.359   9.220  15.422 -0.1666 -0.0806 -0.0667
25348W        W41157  10.080  11.063   1.504  0.0383 -0.0672 -0.0543
25349W        W41158   7.275  13.711  12.795 -0.0646  0.0548  0.3062
25350W        W41159  14.964   4.528   1.110 -0.5634 -0.0579 -0.1453
25351W        W41160  17.415  14.982   2.205 -0.0599 -0.2182 -0.2113
25352W        W41161   8.908  15.341  16.824  0.1747 -0.0970 -0.0476
25353W        W41162  13.203  17.716   4.746 -0.0296  0.0213  0.3353
25354W        W41163   3.897  10.259  13.905 -0.0673  0.4346  0.1338
25355W        W41164  14.421   6.465   2.755  0.0244 -0.0557 -0.1590
25356W        W41165  11.028   1.754  14.473 -0.2174  0.0363  0.1649
25357W        W41166   0.833   2.258   0.009  0.3054 -0.1847  0.0874
25358W        W41167  10.604   4.546   2.889 -0.2026 -0.0789 -0.0045
25359W        W41168  12.814  10.927  16.933  0.1493 -0.0839  0.0865
25360W        W41169  17.622  14.372   4.307 -0.2156 -0.0953 -0.1929
25361W        W41170  17.342   6.141  13.624  0.2026  0.0876 -0.1655
25362W        W41171   4.419   2.735   4.785 -0.0040  0.1288  0.1541
25363W        W41172   6.655   0.509  16.549  0.2505  0.0174 -0.0412
25364W        W41173   8.170   1.063  11.794 -0.2437 -0.0045  0.1593
25365W        W41174  12.335   9.019  14.135  0.0101 -0.1077  0.0390
25366W        W41175   7.872   9.227   2.283 -0.1530 -0.1530  0.0413
25367W        W41176   9.885  10.010   0.864  0.2321 -0.1385 -0.1979
25368W        W41177   2.351   2.930   2.451 -0.1268 -0.1614  0.0588
25369W        W41178  13.782   7.822  16.722 -0.0407 -0.0114  0.1098
25370W        W41179   5.146  13.492   0.452 -0.2822 -0.3872  0.1041
25371W        W41180   5.244   5.045   3.453 -0.0452 -0.1670  0.1972
25372W        W41181   2.235   9.242   1.425 -0.4436  0.0657 -0.1121
25373W        W41182  11.492   6.339  14.448 -0.2007  0.2243  0.0737
25374W        W41183  17.239   6.996   2.573 -0.1935 -0.0493  0.0141
25375W        W41184  13.658  13.060  11.090  0.1940 -0.1925 -0.0153
25376W        W41185  16.843   5.154  16.087  0.1240 -0.2488  0.0400
25377W        W41186   5.880   3.520  12.827  0.3394 -0.1405  0.2671
25378W        W41187  14.226   8.963   2.697 -0.1157 -0.0491 -0.3295
25379W        W41188  16.537   2.523  11.949  0.2697 -0.1749 -0.1454
25380W        W41189  15.431  10.126  12.240  0.2774  0.1613  0.0809
25381W        W41190  10.958  12.186   1.193 -0.2258 -0.2928 -0.1102
25382W        W41191  13.371   6.871   2.323 -0.1515  0.0477 -0.0285
25383W        W41192   7.373  15.885  16.022 -0.2656 -0.1330  0.0596
25384W        W41193  10.052  16.911   2.721 -0.6287 -0.0589 -0.2694
25385W        W41194   9.385  17.612   2.778  0.6006  0.2553 -0.1141
25386W        W41195   2.574   6.373   2.272 -0.0374  0.3128  0.1114
25387W        W41196   5.042  15.109   0.101 -0.0763 -0.1258 -0.1197
25388W        W41197   7.170  12.070  12.806  0.0581  0.0941 -0.0505
25389W        W41198   8.084  16.755   4.436 -0.2409 -0.2207  0.2675
25390W        W41199  11.167  11.783  15.752 -0.2023  0.2901 -0.0468
25391W        W41200   2.662  12.545   4.563 -0.3436 -0.3094 -0.1518
25392W        W41201  14.413  12.932   4.577 -0.1703  0.2358  0.1690
25393W        W41202  11.937   5.256   4.650  0.0967  0.0542 -0.0878
25394W        W41203  15.947   1.439  13.262  0.2375  0.2151  0.0454
25395W        W41204   2.752  17.621  16.696 -0.3811  0.0186 -0.0882
25396W        W41205   2.680   6.476   0.480 -0.2265 -0.0248 -0.2510
25397W        W41206  14.795   0.899   3.464  0.3057  0.2714 -0.0424
25398W        W41207   9.016   7.575   5.257 -0.1638 -0.2707  0.0792
25399W        W41208  12.043  12.077  12.541 -0.0971  0.0022  0.0366
25400W        W41209   2.933  17.701   5.914 -0.0911 -0.3728  0.0583
25401W        W41210  15.911  12.993   5.990 -0.0352  0.2809 -0.1978
25402W        W41211   1.493   0.382  14.702 -0.0215 -0.1662  0.1229
25403W        W41212   9.030  15.992   1.333 -0.1282 -0.2435 -0.0851
25404W        W41213  12.214  12.029  14.268  0.0103 -0.2252  0.3421
25405W        W41214   7.479   3.674  13.423  0.0846  0.2710  0.0645
25406W        W41215   6.056  15.991  16.822 -0.1198 -0.1649  0.3213
25407W        W41216   3.080   1.547  13.555  0.2255  0.1295  0.1975
25408W        W41217  15.541   8.715  13.207  0.3289 -0.0910  0.2587
25409W        W41218  12.335   9.242   4.884  0.1122 -0.0132 -0.0937
25410W        W41219  14.807   7.188  14.709  0.0852  0.0713 -0.2820
25411W        W41220   3.313   2.837   3.650  0.3044 -0.0479 -0.0429
25412W        W41221   1.815   0.789   0.658  0.0561  0.0351 -0.2687
25413W        W41222   9.843  11.076  13.418  0.1244  0.2208  0.0889
25414W        W41223   8.977  10.949  15.290  0.1167  0.2197 -0.1098
25415W        W41224   0.790  15.601   1.778 -0.2188 -0.2787 -0.2077
25416W        W41225  16.713   0.525   3.873 -0.0250 -0.4000 -0.3401
25417W        W41226   5.197   8.077  12.856 -0.0683  0.1483 -0.1859
25418W        W41227   1.815  11.923  11.229 -0.0400 -0.0567 -0.1260
25419W        W41228   8.537   2.779  16.137  0.0461 -0.0769  0.0275
25420W        W41229   1.335  11.018  14.806 -0.2229  0.1174 -0.1269
25421W        W41230   9.652  16.116  11.102  0.1532  0.1490  0.0854
25422W        W41231   5.501  11.498  11.611 -0.0604  0.1179 -0.0897
25423W        W41232  10.420   1.560   0.135 -0.0115 -0.0655  0.5498
25424W        W41233  15.769  16.080   2.569  0.1883  0.1442 -0.0702
25425W        W41234   2.207  14.414  14.479 -0.0035 -0.0314  0.0093
25426W        W41235   0.443  15.788  14.131 -0.2375  0.1862 -0.0092
25427W        W41236   0.778   1.390   2.836  0.0472  0.0651 -0.0355
25428W        W41237   4.440   5.953  16.639 -0.0913  0.4281 -0.2522
25429W        W41238  16.862   4.058   0.166 -0.0444  0.0568 -0.0180
25430W        W41239  17.123  15.650   1.515  0.1260 -0.0197  0.1905
25431W        W41240   3.490  14.648  16.246 -0.1599 -0.1542 -0.0016
25432W        W41241   8.627   6.452   3.308  0.3119  0.1163 -0.0696
25433W        W41242   0.173   5.244   4.928 -0.0896 -0.1142 -0.0087
25434W        W41243   7.221   0.994  13.093  0.2171  0.1953  0.0844
25435W        W41244   3.715   4.723   5.841  0.0028 -0.0085  0.4838
25436W        W41245   0.123  14.958  16.706 -0.1298  0.0759  0.0968
25437W        W41246  11.479  15.564  15.878 -0.1884  0.0267 -0.1657
25438W        W41247   3.624   1.031   2.182  0.1152  0.0481 -0.1409
25439W        W41248   2.975  15.431  14.424  0.0194  0.1369  0.1146
25440W        W41249  16.737  13.624   2.980  0.0731  0.3047 -0.3842
25441W        W41250   9.377   2.266   6.462 -0.1255 -0.2173 -0.3050
25442W        W41251  15.860   9.618   5.446 -0.0737 -0.0721  0.0316
25443W        W41252  14.738   7.554   3.223 -0.1379  0.0677  0.0739
25444W        W41253   1.997   7.660   5.207 -0.1375  0.2735  0.1527
25445W        W41254  14.307  15.638   4.672 -0.0699 -0.0219  0.0923
25446W        W41255  16.650   7.257  16.882 -0.0023 -0.1742 -0.0223
25447W        W41256   5.419   1.608   1.607  0.2392 -0.0088 -0.3607
25448W        W41257   6.925   6.169   6.085  0.0010  0.1115 -0.0291
25449W        W41258   1.547   7.905   5.775  0.0274 -0.1499  0.1454
25450W        W41259  10.571   6.948  14.726  0.4022 -0.0456 -0.2671
25451W        W41260   3.146  11.472   4.032  0.1266 -0.1864 -0.2535
25452W        W41261   1.020  13.369   2.117  0.0147 -0.1131  0.1891
25453W        W41262   3.802   1.904   0.536 -0.2016 -0.1545  0.1779
25454W        W41263   3.183   0.871   2.434 -0.0396  0.1621 -0.3398
25455W        W41264   1.082   5.658  12.705 -0.0226  0.0498 -0.1302
25456W        W41265   8.889  15.835   0.562 -0.1913 -0.3045  0.1823
25457W        W41266  15.922  10.317   3.336 -0.1869  0.0493 -0.1506
25458W        W41267  15.821   0.945   2.246 -0.1529  0.0006 -0.1925
25459W        W41268   4.104   8.046   3.279  0.0555  0.1487  0.1606
25460W        W41269   7.419  17.585  13.768  0.4661  0.0870 -0.1857
25461W        W41270  16.578   4.402   0.581 -0.1984  0.3088  0.2525
25462W        W41271  17.570  15.599  12.335  0.2513 -0.0285  0.2539
25463W        W41272  11.936   8.021   1.203  0.1459 -0.2715 -0.4179
25464W        W41273  17.531  15.650  16.055  0.0032 -0.0287  0.2476
25465W        W41274   3.720   7.054  14.777 -0.1547 -0.0002 -0.0546
25466W        W41275   3.461   9.096  15.861 -0.0439  0.0467 -0.3598
25467W        W41276  11.774   2.876  12.371  0.0314  0.0790 -0.1013
25468W        W41277  10.556   9.807  14.931 -0.0313 -0.1912  0.0607
25469W        W41278  11.599  16.612   1.422 -0.0367 -0.2428 -0.2571
25470W        W41279   5.279   9.940  13.822  0.2435  0.0361  0.2060
25471W        W41280   1.886  12.598  13.420  0.1590  0.1056 -0.0405
25472W        W41281   0.748   5.858  12.277  0.1179 -0.1752  0.1382
25473W        W41282  16.827  13.839  11.943  0.0965  0.0511 -0.1067
25474W        W41283  17.029  16.765  15.555 -0.1897 -0.0041  0.3194
25475W        W41284  11.207   0.609  13.916 -0.1284  0.1268  0.1217
25476W        W41285   4.240   6.297  13.665  0.1105 -0.0734 -0.2581
25477W        W41286   6.901   9.582  15.878  0.2229  0.2079  0.1876
25478W        W41287  16.813  12.905  14.006 -0.2286 -0.0582  0.4214
25479W        W41288  16.663  15.111   3.176 -0.1211 -0.0617  0.0466
25480W        W41289  13.280  15.598  11.103  0.1522 -0.0559 -0.0719
25481W        W41290  14.502  13.462  15.857  0.2117 -0.0348  0.0476
25482W        W41291   6.741   0.814   6.334  0.2318  0.3113 -0.3749
25483W        W41292  12.286   1.444   4.981  0.4877 -0.0349  0.0572
25484W        W41293  10.008   9.828   0.349  0.1022 -0.0017 -0.1598
25485W        W41294   3.553  12.648  16.408  0.2762 -0.0409  0.1635
25486W        W41295   0.527  13.079  13.001  0.1279 -0.2666 -0.0184
25487W        W41296  16.677   7.413  13.593  0.0273  0.0687  0.0027
25488W        W41297  13.731  10.572  11.527 -0.0622  0.2263 -0.1180
25489W        W41298   2.485  16.659   4.028  0.1217 -0.1636  0.0189
25490W        W41299   1.353  10.602   5.246 -0.0099 -0.1270 -0.0418
25491W        W41300  13.900   2.843   3.739 -0.0146 -0.2613 -0.0569
25492W        W41301  11.198  15.538  16.307  0.2735  0.0298  0.0907
25493W        W41302   5.568   1.000   0.541 -0.1033  0.3156  0.1443
25494W        W41303  16.744   2.023   0.289 -0.2638 -0.1996 -0.0413
25495W        W41304   0.734   4.158  14.017 -0.1934 -0.2659 -0.0893
25496W        W41305  16.552   8.823  16.444  0.1345 -0.0460  0.4045
25497W        W41306   5.544   8.723  15.075  0.0845  0.1987  0.0940
25498W        W41307   7.036  14.521  13.072  0.0800 -0.1718  0.1833
25499W        W41308  15.629  10.171  15.856 -0.2682 -0.1285 -0.1023
25500W        W41309   8.976   0.880  11.669  0.1379  0.1032 -0.0108
25501W        W41310   1.446  14.671   1.496  0.1098  0.3370  0.0542
25502W        W41311  16.401   7.298  16.194  0.0460  0.2267 -0.0616
25503W        W41312   8.581   2.365  14.805  0.0855 -0.1721  0.0642
25504W        W41313  14.142  17.274   2.493  0.3446 -0.1076  0.0796
25505W        W41314  12.770   2.918  14.782 -0.0127  0.4627  0.2244
25506W        W41315  12.320  16.669   4.528 -0.0512  0.0779  0.1799
25507W        W41316  13.535   3.659   6.173  0.1241  0.3741  0.3725
25508W        W41317   7.123  17.638   2.073 -0.3293 -0.1672  0.2306
25509W        W41318   9.291   6.374   4.771  0.1035 -0.2765 -0.4865
25510W        W41319   7.417  15.858  11.983  0.1858 -0.3682 -0.0001
25511W        W41320  17.732   9.544   4.639 -0.0696 -0.0987  0.0530
25512W        W41321   7.826  10.909  15.759 -0.2995  0.0449  0.1326
25513W        W41322   2.981   4.750   2.922 -0.1314 -0.3005 -0.0497
25514W        W41323   0.723   5.522  11.947  0.1664 -0.1144 -0.0970
25515W        W41324  13.227  16.191   2.808 -0.2067  0.0038 -0.0879
25516W        W41325   9.665  14.029  12.888  0.2415  0.2245  0.0026
25517W        W41326  13.888  13.931   0.876 -0.2598 -0.1641  0.1336
25518W        W41327  11.447  14.398   4.665  0.2628  0.1436  0.1419
25519W        W41328  15.813  11.292  13.196 -0.2423 -0.0753 -0.1331
25520W        W41329   0.101   0.302   5.065  0.0553  0.0409  0.3375
25521W        W41330  15.186   2.189   2.692 -0.2350  0.1142  0.2500
25522W        W41331   1.800  15.792   4.756  0.0150  0.2222 -0.0299
25523W        W41332   0.127   1.359   3.222  0.0202  0.0514 -0.0545
25524W        W41333  11.752  13.826  11.903  0.0119 -0.1074 -0.2028
25525W        W41334   6.252  10.803   5.678  0.1675  0.1287 -0.3928
25526W        W41335  13.746   8.465  13.782  0.4325  0.1556 -0.1458
25527W        W41336   3.657   1.598   5.756 -0.0338 -0.1087 -0.0279
25528W        W41337  12.116  16.150  15.451 -0.2441 -0.2222  0.0736
25529W        W41338  12.767   5.867   6.010  0.1768 -0.0330  0.0279
25530W        W41339  14.341   8.398   5.642 -0.1265  0.0301 -0.1718
25531W        W41340   8.353  16.860  13.508  0.1836  0.2214  0.0518
25532W        W41341  12.389   6.597   4.737  0.0641  0.1937 -0.0066
25533W        W41342  16.056  13.641   4.225 -0.0705 -0.1121 -0.1693
25534W        W41343  14.433   9.708   5.533 -0.1198  0.1551 -0.4596
25535W        W41344   8.940   5.754   2.391 -0.4061  0.0254 -0.4121
25536W        W41345   3.522  10.518   1.379 -0.0611  0.0993  0.0304
25537W        W41346   3.675   0.652  13.903 -0.0134  0.1113  0.2776
25538W        W41347  16.176  16.896  14.028 -0.1471 -0.0207  0.0722
25539W        W41348  14.498   3.403   3.215 -0.4949  0.0559  0.1150
25540W        W41349  15.718  17.187   4.593 -0.2272 -0.2049 -0.2656
25541W        W41350  11.634  14.369   0.383  0.1993 -0.2958  0.0880
25542W        W41351   1.440   0.062  12.798 -0.0467  0.2519 -0.2040
25543W        W41352  16.617   1.374   2.223  0.2477 -0.0781 -0.0871
25544W        W41353   1.688  16.881   0.956 -0.2029  0.1589  0.0039
25545W        W41354  15.021   3.315   0.507  0.0192 -0.2661 -0.0472
25546W        W41355   2.516  12.716  14.379 -0.0538 -0.2847  0.0842
25547W        W41356   2.297   1.880   1.344 -0.1295 -0.1026  0.0432
25548W        W41357   4.418   7.276  16.003 -0.0790  0.0389 -0.2496
25549W        W41358   8.842   1.519   3.154 -0.0052  0.2930 -0.1268
25550W        W41359  12.799  15.579  16.923  0.3198  0.0408 -0.0410
25551W        W41360   7.003   8.969   1.401 -0.2576  0.0066 -0.2408
25552W        W41361   8.838   4.428   4.238  0.0957  0.0217  0.0033
25553W        W41362  11.420   5.760   1.724 -0.0191 -0.5447 -0.1889
25554W        W41363  13.500  15.101   5.692  0.1828  0.1215 -0.0534
25555W        W41364   8.003  14.125   1.440 -0.1858  0.2066  0.3625
25556W        W41365   8.993  11.012   5.372  0.1533 -0.1712  0.0916
25557W        W41366   6.694  16.918  14.219 -0.1185  0.3028 -0.1175
25558W        W41367   2.017   9.538   1.036  0.0816 -0.0316  0.3353
25559W        W41368   0.647  12.475  11.698  0.0564  0.1640  0.2542
25560W        W41369   4.785   5.370   3.199  0.0924  0.1034 -0.0993
25561W        W41370  12.831   5.451  12.196  0.0360  0.1615 -0.0770
25562W        W41371  10.399  13.937  14.564  0.1167 -0.2993  0.0743
25563W        W41372  13.498   3.097   0.229 -0.0938  0.0382  0.0728
25564W        W41373   5.959  14.353   3.090 -0.1897  0.1785 -0.0810
25565W        W41374   1.704  10.066   3.234 -0.0066  0.0714  0.1359
25566W        W41375   6.153  17.655  16.094  0.0426 -0.2975  0.0783
25567W        W41376   8.232   1.391  10.892  0.0366  0.0550  0.1768
25568W        W41377  15.551   0.004  14.821 -0.0314 -0.1880 -0.4568
25569W        W41378  15.329   4.939  12.409 -0.0191 -0.1285 -0.0584
25570W        W41379  14.717  17.369  12.871 -0.2134 -0.0816 -0.2573
25571W        W41380   2.147   4.548  15.141 -0.0589  0.0714  0.0718
25572W        W41381   0.666   2.326   5.359 -0.2165 -0.0546  0.0894
25573W        W41382   8.267   9.844  13.552  0.1219  0.0667  0.1401
25574W        W41383  13.698   2.556   1.582 -0.3903 -0.2197 -0.4008
25575W        W41384  15.964  12.117   4.001  0.0168 -0.0263  0.0546
25576W        W41385   3.276  11.047  14.237  0.1578 -0.0096  0.3059
25577W        W41386   9.925  16.643  13.155  0.1580  0.1278 -0.1598
25578W        W41387  10.731   6.100   0.666 -0.1728 -0.0776  0.2490
25579W        W41388   0.574  14.240  12.803  0.0593  0.0758  0.0427
25580W        W41389   8.878  16.422  14.355 -0.1416  0.0757  0.1840
25581W        W41390   1.801   1.949  16.876 -0.1253  0.3697 -0.0030
25582W        W41391   7.338  10.455   3.305 -0.0309  0.0717 -0.2090
25583W        W41392  13.210   9.963   2.547 -0.1805 -0.1286  0.3287
25584W        W41393  12.113   5.648   4.846  0.2279  0.2516  0.0248
25585W        W41394  11.036   0.913  16.525  0.2827 -0.0153 -0.1416
25586W        W41395  11.107   8.544  13.288  0.1311 -0.3235 -0.1861
25587W        W41396  11.306   6.867   6.339 -0.1750 -0.2077 -0.0779
25588W        W41397   9.268   2.780   0.792 -0.0691 -0.1851  0.2128
25589W        W41398   9.944   9.870   3.921 -0.1756 -0.2623  0.0002
25590W        W41399   1.446   4.461  14.409 -0.0432  0.1587 -0.2809
25591W        W41400   1.425   0.543   0.817 -0.0082  0.1021  0.2089
25592W        W41401  14.385   4.095  12.857 -0.0226 -0.0892  0.0290
25593W        W41402  14.420   7.931   5.787 -0.2701 -0.1202 -0.0480
25594W        W41403   3.448  11.900   0.594  0.0205 -0.3658 -0.2224
25595W        W41404  12.158   6.015   3.905  0.3200  0.0176 -0.0662
25596W        W41405   9.336  14.949  14.463  0.0602  0.2640 -0.0575
25597W        W41406   8.694  12.381  11.611 -0.2059  0.0656 -0.3161
25598W        W41407   9.050   9.972   3.439  0.1783  0.0119 -0.2107
25599W        W41408  17.409  13.905   2.470 -0.0775  0.1406  0.1871
25600W        W41409   4.890  16.359   4.927  0.1296 -0.0052 -0.0307
25601W        W41410  13.319   2.751   5.891  0.3095 -0.2031  0.2216
25602W        W41411  13.955  13.911   2.173  0.1599 -0.0281  0.0736
25603W        W41412  13.694  15.765  12.378  0.2694 -0.1224 -0.0313
25604W        W41413  14.335   9.375  11.760  0.0169 -0.2878 -0.0965
25605W        W41414  11.899  17.341   4.492 -0.0196  0.0281  0.1971
25606W        W41415  11.160  15.122  14.385  0.2910 -0.2663 -0.2143
25607W        W41416  11.225   9.088   3.072 -0.3843  0.0077 -0.0774
25608W        W41417  13.520   1.952   3.639 -0.1611 -0.2403 -0.0510
25609W        W41418   6.612  11.519  11.123  0.0465  0.1404  0.2477
25610W        W41419   2.609   5.139   3.602  0.1372  0.0528 -0.3217
25611W        W41420   0.963   9.605  16.269  0.1943 -0.1093  0.1301
25612W        W41421   0.897   5.207  12.911  0.2041  0.3066 -0.0645
25613W        W41422   0.492   5.483   0.224  0.0048  0.2090 -0.1780
25614W        W41423   2.629  16.212  13.381  0.0797  0.1060  0.2538
25615W        W41424   4.586   4.764  12.218  0.0406 -0.0581 -0.1313
25616W        W41425   3.148  15.869   4.206  0.2058 -0.0540 -0.1279
25617W        W41426   4.717  14.716  12.169  0.1410  0.4300  0.0480
25618W        W41427  14.609   1.939  14.361 -0.5032  0.0159  0.0032
25619W        W41428   8.249   5.759   1.205  0.3668 -0.0687 -0.0413
25620W        W41429   8.668   5.155   5.877 -0.1907 -0.4280  0.1706
25621W        W41430  10.515   1.005   5.331 -0.3177 -0.2480  0.0900
25622W        W41431   8.019   4.133  15.534 -0.1679  0.0254  0.1709
25623W        W41432   3.244  13.358  16.670 -0.2959  0.2087 -0.1037
25624W        W41433  14.137   9.937  11.437  0.3171  0.1661 -0.1755
25625W        W41434   1.137   7.658   5.011  0.3498  0.0682  0.3582
25626W        W41435   4.844   0.327   4.295 -0.2412  0.0222 -0.2287
25627W        W41436  17.167   5.421  12.542 -0.2844 -0.2757  0.3562
25628W        W41437   5.788   4.067  12.621  0.2546  0.2641  0.2169
25629W        W41438   7.994   6.008   4.334 -0.0557  0.0442 -0.2918
25630W        W41439   8.388   2.583  12.192  0.1326 -0.0026 -0.2496
25631W        W41440  14.054   9.781   1.548  0.3324 -0.2023  0.3790
25632W        W41441   1.823   6.063   3.588 -0.0085  0.1115  0.0178
25633W        W41442   1.122   7.833  13.471 -0.1332  0.0008  0.0495
25634W        W41443   3.745   3.793   6.097 -0.1266 -0.1724  0.1211
25635W        W41444  17.716   1.957   5.986  0.1481 -0.0758 -0.2025
25636W        W41445   5.689  10.578  14.195  0.0685  0.1218  0.0235
25637W        W41446   8.665  10.228  14.615  0.1495 -0.0730  0.0374
25638W        W41447   5.244   1.212  13.061 -0.3846 -0.0955 -0.0896
25639W        W41448   0.196   4.944   4.525 -0.0839  0.0241 -0.0795
25640W        W41449  10.749   7.428  16.963  0.0150  0.1363  0.1767
25641W        W41450  10.161   7.002   0.571 -0.0893  0.0624 -0.1757
25642W        W41451  15.402  12.070  15.644  0.1528  0.2745  0.1015
25643W        W41452  10.290   9.130  13.336 -0.5431  0.0410  0.0204
25644W        W41453   2.457  10.161  14.947 -0.1192 -0.0702 -0.2200
25645W        W41454  14.393  16.459  14.342 -0.0010 -0.0517 -0.2655
25646W        W41455   4.030  15.234   1.112 -0.0165  0.2805 -0.2890
25647W        W41456   9.286  17.491   0.767  0.2728 -0.0371  0.1646
25648W        W41457  15.067  16.159   4.296  0.0607 -0.0040 -0.1465
25649W        W41458  17.329  11.317  14.534 -0.0136  0.0380  0.2797
25650W        W41459   7.067   7.670  12.649  0.3153  0.1173  0.0746
25651W        W41460   4.914   1.240  15.663  0.1504  0.0919  0.0381
25652W        W41461   3.069  13.830   0.049 -0.0405 -0.0058 -0.0880
25653W        W41462  14.462  10.302   3.428  0.0103 -0.1314 -0.4400
25654W        W41463   8.923  11.788   4.922  0.0727 -0.1205  0.1438
25655W        W41464   6.559   4.881   5.547  0.0627  0.3316 -0.1313
25656W        W41465   4.038   5.314  16.286  0.2613  0.0617  0.3188
25657W        W41466   2.564   4.729  14.933 -0.0806 -0.0003 -0.3059
25658W        W41467  14.271   3.857   5.811  0.0058 -0.1706 -0.0293
25659W        W41468   1.032  16.992   5.028  0.0633  0.0852  0.2398
25660W        W41469   7.075   2.281   3.477  0.0702 -0.1078 -0.1017
25661W        W41470   1.266   5.325  14.277 -0.2458  0.1784  0.2999
25662W        W41471   6.425   2.422  14.282  0.1049 -0.0964 -0.0684
25663W        W41472  17.648   5.287  14.979  0.5077 -0.2738  0.0792
25664W        W41473  14.954  16.512  11.631 -0.2333 -0.0032 -0.0525
25665W        W41474  13.209  12.338  10.881 -0.0190 -0.0263 -0.1285
25666W        W41475   6.689  11.754   4.353 -0.0925  0.0523  0.3081
25667W        W41476   2.856   7.926  13.172 -0.2565  0.2619  0.0386
25668W        W41477   4.164   9.584   4.311 -0.1595  0.1552 -0.0379
25669W        W41478   1.376   1.552   3.088  0.3839  0.2238  0.1109
25670W        W41479   5.533  12.116   3.966  0.0352 -0.0720 -0.2856
25671W        W41480  14.252   9.422   5.076 -0.0122  0.0990  0.1729
25672W        W41481   4.198   1.017  16.195 -0.1692  0.3198 -0.0542
25673W        W41482   1.967  17.077  15.631  0.0636 -0.1924  0.2647
25674W        W41483  12.134   9.982  12.243 -0.0029 -0.0055  0.3233
25675W        W41484  12.891  10.151  14.986 -0.0282  0.5609 -0.0321
25676W        W41485  14.259   1.591   1.993  0.1072 -0.0521 -0.0293
25677W        W41486  14.241   0.407  13.741 -0.0783 -0.0038  0.0095
25678W        W41487   8.111  12.529  16.690 -0.0255 -0.1137 -0.2428
25679W        W41488   2.276  12.906  13.275 -0.0400 -0.2435  0.3888
25680W        W41489  16.615  11.858   5.219  0.0685  0.1356 -0.1756
25681W        W41490  15.776  13.555  15.268 -0.2169  0.1069  0.0167
25682W        W41491  13.067  12.582   5.120 -0.1106 -0.2947  0.1113
25683W        W41492   5.433   3.900   1.673 -0.1362  0.1872  0.1325
25684W        W41493  10.636   1.982   3.327 -0.2367  0.1158  0.1536
25685W        W41494  13.439  12.273  13.408  0.0309  0.0428 -0.1372
25686W        W41495  15.394  15.994  10.807 -0.2662  0.0044 -0.0263
25687W        W41496   6.274  13.051  11.349  0.0107  0.0180  0.0410
25688W        W41497  16.067   8.894  16.723 -0.1656  0.1053  0.0145
25689W        W41498   3.734  11.439   0.031  0.0878 -0.0321  0.1290
25690W        W41499  11.794   2.317  15.426 -0.0477 -0.0757  0.0576
25691W        W41500  15.640   5.621   2.278 -0.2808 -0.0817  0.0623
25692W        W41501  15.635   2.210   2.973 -0.1148 -0.2717 -0.1609
25693W        W41502  14.636   6.331   1.937 -0.0697  0.0855 -0.0300
25694W        W41503   7.842   5.446   5.487  0.0815  0.2616 -0.0399
25695W        W41504  11.281  15.618  12.888 -0.0660  0.1340 -0.0803
25696W        W41505   2.273  13.527  15.340 -0.0446  0.2058  0.0052
25697W        W41506   0.286   9.961  14.918 -0.0888 -0.1876  0.1000
25698W        W41507   3.121   2.823  13.109 -0.1724 -0.3377  0.2479
25699W        W41508  10.916   1.744   5.457  0.1408 -0.0592  0.2106
25700W        W41509   2.654  13.808  13.196  0.2869  0.1615 -0.1747
25701W        W41510  14.921   8.301   2.945 -0.2558  0.1103  0.0329
25702W        W41511  16.576  13.371   2.563  0.0220  0.2201 -0.1966
25703W        W41512   1.534  14.125   5.245  0.2908 -0.0088  0.0646
25704W        W41513  17.614  13.649   0.096 -0.0858 -0.0589 -0.2083
25705W        W41514  10.315   0.027  15.322 -0.1691  0.1596 -0.3906
25706W        W41515   3.747   1.064  14.161 -0.0705  0.1176 -0.1152
25707W        W41516   1.837   4.295  14.766 -0.0524  0.2330  0.1101
25708W        W41517  13.096   9.686  12.884 -0.0116  0.3388 -0.2708
25709W        W41518  16.858  13.695   4.625 -0.0027  0.1061  0.0359
25710W        W41519  10.939   2.571  13.625  0.3451  0.0663 -0.3469
25711W        W41520   6.944  16.368   4.003 -0.0499  0.2268 -0.0602
25712W        W41521  16.570   8.219   4.663  0.0599 -0.4273 -0.2381
25713W        W41522   8.601   8.111   2.123  0.0970 -0.0527 -0.1342
25714W        W41523   3.541   9.962  14.816 -0.0210 -0.2106 -0.2430
25715W        W41524   1.412   9.372  15.288 -0.2278  0.2334 -0.1062
25716W        W41525  14.397   0.588  15.451  0.0864 -0.0604 -0.1340
25717W        W41526  10.023   3.933  15.285  0.0412  0.2013 -0.0267
25718W        W41527  17.487   3.643  15.692 -0.1465  0.1746  0.2922
25719W        W41528   5.545  12.567  11.895  0.1032  0.3930 -0.1375
25720W        W41529   2.101   8.448   4.451 -0.0063 -0.3433 -0.3374
25721W        W41530  12.477  13.409  13.422  0.0017  0.1288 -0.2212
25722W        W41531   9.107   1.674   5.047  0.0444 -0.2064 -0.0644
25723W        W41532   2.955   7.016  16.659 -0.0394  0.1051 -0.3491
25724W        W41533  11.593   1.358   5.918  0.1813  0.0455  0.0952
25725W        W41534  13.522  10.916  10.958  0.0943 -0.2882 -0.2142
25726W        W41535  17.214   1.956   1.431 -0.0626 -0.2265  0.1720
25727W        W41536   4.164   1.149  15.326 -0.0351  0.0101  0.2266
25728W        W41537   9.000  15.923  13.262 -0.3958  0.0325 -0.2237
25729W        W41538   1.249  10.446  11.270  0.0141  0.2068 -0.2453
25730W        W41539   6.973   2.672   0.901 -0.1512  0.0697  0.2131
25731W        W41540   2.298  10.577   1.151 -0.0282 -0.1907  0.0735
25732W        W41541  12.421  11.964  12.022 -0.0512 -0.1862  0.1220
25733W        W41542   4.566  12.758   3.816 -0.1726  0.3019 -0.0088
25734W        W41543  17.389   2.220  16.791  0.1246 -0.1621  0.0511
25735W        W41544   1.544   0.433  13.779  0.1832  0.3562 -0.1322
25736W        W41545  15.580   0.253   4.010 -0.0284  0.0262 -0.0929
25737W        W41546   4.549   1.360   5.179  0.1368  0.4012  0.0363
25738W        W41547  17.303   3.806  13.864  0.1084  0.0151 -0.1540
25739W        W41548   7.713  14.420   4.729 -0.0398 -0.0879  0.3179
25740W        W41549   9.924  16.135  13.062 -0.0174  0.0160 -0.0347
25741W        W41550  14.254  12.086  14.134 -0.0304  0.0371  0.1648
25742W        W41551   0.203   5.366  11.935  0.3261  0.1168 -0.0053
25743W        W41552  10.081  11.707   0.112 -0.0634  0.1226 -0.0764
25744W        W41553  16.324  13.493  12.252  0.1099 -0.0548 -0.0971
25745W        W41554   0.193   9.600  13.420  0.1283 -0.0830 -0.0128
25746W        W41555  11.448   2.545  12.682 -0.1885  0.2755  0.0623
25747W        W41556   5.829  11.666   3.292 -0.1079  0.2618 -0.0884
25748W        W41557  13.730  13.769   2.664 -0.2030 -0.0505  0.0455
25749W        W41558  14.781   9.375   0.519  0.1252  0.0156  0.0089
25750W        W41559   9.654   4.886   1.416  0.1298  0.0344  0.1421
25751W        W41560  12.085   1.277  15.410  0.2772 -0.2606 -0.0029
25752W        W41561   5.964   2.427   0.103 -0.0546 -0.2367  0.3387
25753W        W41562   4.299   1.583   6.197 -0.1820 -0.0987 -0.1109
25754W        W41563  10.696  10.371   4.944 -0.0244  0.1500  0.2646
25755W        W41564  16.215   8.897  12.623  0.0675 -0.1467 -0.1582
25756W        W41565   6.214   1.653  14.535  0.0173 -0.0522 -0.0463
25757W        W41566   7.457  11.710   1.786  0.0212  0.2295  0.1260
25758W        W41567  16.346  16.779  16.396 -0.3358 -0.1730 -0.0341
25759W        W41568  14.113  13.973  16.501  0.0417  0.0202  0.1837
25760W        W41569  17.722  13.124   5.914  0.0183 -0.0422 -0.0626
25761W        W41570   2.327  12.383  15.603 -0.0357 -0.1414  0.3027
25762W        W41571   8.800  17.292   4.252 -0.0845 -0.3639  0.0168
25763W        W41572   1.412   1.310  16.121 -0.2836 -0.0234  0.0121
25764W        W41573   5.747  10.308  14.653 -0.0059  0.0579  0.3308
25765W        W41574  13.986  13.658   3.520 -0.1146 -0.2528 -0.0582
25766W        W41575  11.838  12.502   4.045 -0.2365 -0.1774 -0.1558
25767W        W41576   0.851   4.592  14.331  0.0863 -0.2068 -0.2537
25768W        W41577  12.249   4.594  16.497 -0.0203 -0.1915 -0.1998
25769W        W41578  10.603  13.229  12.770 -0.1672  0.3456 -0.4759
25770W        W41579  15.139   7.538   5.090  0.1414 -0.0716 -0.1796
25771W        W41580   9.651   5.905  15.059  0.0113 -0.0073  0.3077
25772W        W41581   2.617   0.048  15.250  0.0269  0.0332 -0.1264
25773W        W41582  14.986  16.942   2.397  0.2805 -0.1388  0.1116
25774W        W41583  11.716  10.491  16.899 -0.2488  0.0814 -0.2380
25775W        W41584   9.093  13.535   1.857  0.0819 -0.3095  0.0179
25776W        W41585  17.659  16.542   1.462 -0.1225  0.0362  0.0031
25777W        W41586   1.117   2.600   4.567  0.0076  0.3571 -0.2240
25778W        W41587  10.203  17.482  16.456  0.0807 -0.0460  0.2695
25779W        W41588  15.447   2.280   0.817  0.1193 -0.2918  0.1297
25780W        W41589   0.155  11.658  13.397  0.1951 -0.2662  0.0569
25781W        W41590   7.734  16.665   0.879  0.1846  0.3239 -0.1140
25782W        W41591  14.071   8.414   2.464  0.0689 -0.3805  0.2642
25783W        W41592   7.114  17.576   4.252  0.0175  0.2785 -0.0586
25784W        W41593  11.304  13.507   5.432  0.0607  0.0114  0.4115
25785W        W41594  12.995   2.792  12.885  0.0363  0.0630  0.0422
25786W        W41595  13.360   8.661   3.074 -0.0075 -0.2253 -0.0225
25787W        W41596   1.187   6.571  11.810 -0.0306 -0.3368  0.0513
25788W        W41597   4.270   4.017  13.019  0.0747 -0.2800  0.3766
25789W        W41598  12.754  17.346  16.087  0.0674  0.0548 -0.2513
25790W        W41599  16.543   5.246   0.820  0.1092 -0.0180  0.1697
25791W        W41600  13.360   6.362   1.996 -0.1386  0.1763 -0.1684
25792W        W41601  16.208  10.813   0.783 -0.0194  0.0361  0.3155
25793W        W41602  10.328  11.989  13.912  0.0874 -0.1840 -0.0217
25794W        W41603   9.466  13.218  13.506 -0.0888 -0.0760 -0.2093
25795W        W41604   5.290   0.542   0.716 -0.1333 -0.1480  0.0614
25796W        W41605   4.602   1.042   5.643  0.3412  0.2394  0.2726
25797W        W41606  13.546  10.871  14.362  0.1738  0.1259 -0.1989
25798W        W41607   8.991   5.569   5.977  0.3469  0.1402 -0.1598
25799W        W41608   0.001  10.311  12.302  0.0188 -0.3045  0.0468
25800W        W41609  13.810  12.234  15.131 -0.0642 -0.0191  0.0471
25801W        W41610  11.903   6.174   4.707 -0.2785  0.2618  0.1999
25802W        W41611   5.720   3.255   5.047 -0.1667 -0.1532 -0.1520
25803W        W41612   9.738   5.735  12.245 -0.0457  0.0525  0.1367
25804W        W41613   8.591   8.902  10.969 -0.0379  0.1918  0.0864
25805W        W41614   1.446  15.571   0.177 -0.0655  0.0466  0.2185
25806W        W41615   0.516   6.572   2.292  0.2077  0.0553 -0.0351
25807W        W41616  15.591   2.882  15.893  0.0820  0.3710 -0.0394
25808W        W41617  17.278   5.923   3.747  0.2828  0.3983 -0.0269
25809W        W41618  14.220   3.255  12.367  0.2548 -0.1037 -0.0004
25810W        W41619   2.602   9.712   2.693 -0.1230 -0.2022  0.1735
25811W        W41620   7.125   8.992   5.606 -0.0981  0.1044  0.2153
25812W        W41621  17.379   8.941  14.920  0.0698 -0.3489  0.0474
25813W        W41622   9.315   0.829   2.833 -0.2917 -0.0883  0.2578
25814W        W41623  13.916  14.244   3.374  0.2187  0.2670 -0.2372
25815W        W41624   1.822   6.084   0.935  0.0378 -0.0297  0.0069
25816W        W41625  14.148   4.882  14.619  0.2992  0.0554 -0.3120
25817W        W41626   4.209  17.618  15.526  0.0293  0.0784 -0.5385
25818W        W41627   9.586   6.443   6.074 -0.1590 -0.2631 -0.2644
25819W        W41628   2.802  12.909  16.806  0.1756 -0.1382  0.1802
25820W        W41629   3.148  16.543   1.402 -0.3046  0.0952 -0.1509
25821W        W41630  10.741   0.617  12.088 -0.1211 -0.2926 -0.2599
25822W        W41631  11.040  15.028  13.864 -0.0254 -0.0064  0.0050
25823W        W41632   2.196   9.822  11.929 -0.3715 -0.0989  0.0391
25824W        W41633  11.435   5.210  14.991 -0.0413  0.2555 -0.1734
25825W        W41634   0.975   3.540   1.155  0.3188 -0.1814  0.2523
25826W        W41635  15.979   0.500  13.567 -0.0002 -0.0105  0.0606
25827W        W41636   9.391   2.609  12.204  0.4854  0.2821  0.0210
25828W        W41637   4.031   6.684  14.718  0.1907  0.2235 -0.1906
25829W        W41638  12.054   4.837   5.121 -0.2112 -0.0071  0.1893
25830W        W41639   9.433   5.376   1.586  0.3473 -0.1855 -0.1118
25831W        W41640  11.808   9.578  11.992  0.1878 -0.0744 -0.1484
25832W        W41641   9.647  13.522   5.207 -0.0844 -0.2138 -0.1311
25833W        W41642  15.644   0.862   3.116  0.3202 -0.2525  0.0590
25834W        W41643  12.626  17.439   2.975 -0.2115  0.0413  0.0379
25835W        W41644   8.917  13.349   0.909 -0.2069 -0.0903 -0.3114
25836W        W41645   2.266   5.796   0.216  0.0187 -0.1961  0.1452
25837W        W41646  15.887  11.738  15.285  0.2834 -0.1181  0.0444
25838W        W41647  15.735   5.560  13.246 -0.1627 -0.2359 -0.3084
25839W        W41648  13.561  11.501  12.297  0.2406  0.1550 -0.4198
25840W        W41649  11.294   1.390   3.371 -0.1984 -0.0004  0.0973
25841W        W41650  15.318  11.309   5.989 -0.2482 -0.0020 -0.1161
25842W        W41651  17.369   0.147   3.159 -0.0993 -0.0020  0.1436
25843W        W41652  11.423   5.810   3.930 -0.1595 -0.0219  0.0622
25844W        W41653   5.047  12.023  14.703  0.2299 -0.2099  0.6418
25845W        W41654   7.476   9.256   3.085 -0.0584  0.0941  0.0447
25846W        W41655  13.450   2.753  11.933  0.2350  0.0093 -0.4222
25847W        W41656   2.584   5.466   0.679  0.1146  0.0061  0.1240
25848W        W41657   1.811   1.909   4.191  0.2465  0.0813  0.2408
25849W        W41658   4.781   4.655  14.977 -0.0636  0.2692 -0.0293
25850W        W41659   2.240   1.441   5.113  0.1164  0.1700  0.2389
25851W        W41660   9.141   3.117   5.463 -0.0250 -0.1135 -0.1486
25852W        W41661   1.453  13.783  11.976 -0.2342 -0.0699  0.4035
25853W        W41662   7.022   6.125   4.488  0.1306 -0.1174  0.0890
25854W        W41663   3.745  13.244  13.279 -0.0858  0.0446 -0.1079
25855W        W41664  17.245  12.949  13.651 -0.1922  0.1429  0.2069
25856W        W41665  16.618   9.471   1.380  0.0492 -0.2525 -0.0589
25857W        W41666   6.115   2.983  11.036  0.0886 -0.0806  0.0652
25858W        W41667  16.774  16.050   2.249  0.3757 -0.0560  0.1417
25859W        W41668  12.349   8.322   4.899 -0.0057 -0.2345  0.3249
25860W        W41669   1.085   4.635   1.150  0.1419  0.3279  0.4095
25861W        W41670  17.697   0.524   4.024 -0.0826  0.3245  0.2618
25862W        W41671   5.297  10.913  14.159 -0.0047 -0.0701 -0.1860
25863W        W41672  15.328   3.687   0.620 -0.2863  0.2484 -0.0481
25864W        W41673   5.457   9.791  15.978  0.0573  0.0715 -0.2208
25865W        W41674   6.762  13.774   3.621 -0.0325  0.4715  0.0880
25866W        W41675  11.899   3.183  14.279 -0.2307 -0.3824  0.1183
25867W        W41676   0.734  14.148  13.290 -0.1267  0.0511 -0.3378
25868W        W41677  14.802   2.773  15.560 -0.2359  0.0410  0.0460
25869W        W41678  15.349   5.450   0.901 -0.0193 -0.4563 -0.0742
25870W        W41679  12.751  15.611  12.315 -0.0771  0.2991  0.0967
25871W        W41680   5.876  16.973   1.919  0.0816  0.0753  0.0879
25872W        W41681   0.019   8.175   1.698  0.1838 -0.0409 -0.1532
25873W        W41682   3.236  15.218  16.573  0.1562 -0.1269  0.2247
25874W        W41683  13.274  16.004   3.262  0.1202  0.3114  0.1242
25875W        W41684  15.330   8.870  11.350 -0.1533  0.0358 -0.0732
25876W        W41685   7.006  12.705  16.165 -0.0826 -0.3712  0.3054
25877W        W41686  17.385   4.017   6.224 -0.0783  0.1077 -0.1281
25878W        W41687   6.710   7.944  15.900 -0.0383  0.1209  0.2423
25879W        W41688   0.922  11.376  11.434  0.0974  0.1816  0.0605
25880W        W41689   0.176  14.626  11.405  0.1443  0.0449 -0.0665
25881W        W41690  16.470  10.896  11.525  0.0032 -0.3110 -0.3876
25882W        W41691   9.690  15.112  13.460  0.2452 -0.1028 -0.0661
25883W        W41692   6.070   2.135  13.222 -0.0258  0.2308 -0.0475
25884W        W41693   1.822  16.846  16.953  0.0252 -0.0311  0.1305
25885W        W41694  17.261  10.443  13.184 -0.2527  0.2974 -0.1538
25886W        W41695  16.514   7.242   0.925 -0.1263 -0.0241  0.2279
25887W        W41696  13.315  17.721   1.274  0.1332 -0.1264  0.1752
25888W        W41697   6.837  11.615   2.574  0.1594  0.0682 -0.1756
25889W        W41698  16.624  15.556  16.979  0.1265 -0.3097 -0.1232
25890W        W41699   5.114  10.449   2.508 -0.2270 -0.1161 -0.0066
25891W        W41700  16.576   4.866  15.776  0.1884  0.2937  0.0422
25892W        W41701   9.735  17.696   0.851 -0.2001  0.0773  0.1754
25893W        W41702   5.175  10.962  11.932  0.2207  0.0292 -0.0467
25894W        W41703   1.476  11.031  13.277  0.0141 -0.2301 -0.1982
25895W        W41704  12.519   3.666  16.385 -0.2634 -0.3515 -0.3110
25896W        W41705   1.865  12.681   0.810 -0.2824 -0.1500 -0.2432
25897W        W41706  11.865   9.055  16.101  0.2013 -0.0144 -0.0271
25898W        W41707   1.133  13.519  11.506 -0.4084  0.2376 -0.1874
25899W        W41708  14.753  16.090  11.422 -0.2982 -0.0479  0.0922
25900W        W41709  16.945   0.338   0.105  0.2272  0.0048 -0.1005
25901W        W41710   6.346  11.240  13.461 -0.0292  0.0401 -0.2083
25902W        W41711  11.519  16.337   5.337  0.1429  0.0946 -0.3219
25903W        W41712  12.392  14.105  13.234 -0.1556 -0.0143 -0.2209
25904W        W41713  11.790   4.743   4.267 -0.0719 -0.0709 -0.0601
25905W        W41714   5.230   4.400   5.878  0.0650  0.2189 -0.4935
25906W        W41715  16.362   3.915  12.224 -0.0185  0.0040  0.2018
25907W        W41716  15.906   6.043  12.829  0.0373 -0.0371  0.1708
25908W        W41717  13.299  12.790   6.424  0.0300 -0.0834  0.1560
25909W        W41718   7.228   6.461   3.669  0.2158 -0.0531  0.0837
25910W        W41719  11.354   2.251   1.683  0.1845 -0.0867 -0.0952
25911W        W41720  11.487   8.798  13.652 -0.0229 -0.1565  0.0457
25912W        W41721  11.989  17.204  13.154 -0.0914  0.0135  0.3831
25913W        W41722   1.149  15.610   4.992 -0.0500  0.4061  0.0418
25914W        W41723   3.046   4.920   5.364  0.0159 -0.2157  0.3076
25915W        W41724   4.633  17.721   4.006  0.1257  0.2452 -0.3641
25916W        W41725  15.461  16.017   3.928 -0.0413  0.2015 -0.0126
25917W        W41726   9.684  11.826   3.836 -0.1507  0.0003  0.0609
25918W        W41727   6.594   7.428  13.235  0.0009 -0.0283 -0.1729
25919W        W41728   0.740  12.420   1.143 -0.1966 -0.1426  0.2976
25920W        W41729   5.764  10.872   5.672  0.1506  0.1477  0.1913
25921W        W41730   7.603   6.442  13.476 -0.0736 -0.0940 -0.0040
25922W        W41731   1.819  15.077   5.090 -0.0398  0.0456  0.2499
25923W        W41732   4.628  11.323  14.418 -0.2140 -0.0400 -0.0598
25924W        W41733  15.652   8.588   4.906  0.3529  0.0650  0.3791
25925W        W41734  10.003   8.307   4.095  0.0347 -0.0840 -0.2827
25926W        W41735   3.272   6.905  11.909 -0.2518  0.0313 -0.1244
25927W        W41736  12.625  15.325   5.672 -0.0806  0.0780  0.1875
25928W        W41737   8.134   2.604  12.941 -0.2075 -0.0971 -0.2834
25929W        W41738  11.361  15.661  10.610  0.2191  0.3083  0.2302
25930W        W41739   3.961   4.290  13.444 -0.1477  0.3283 -0.1749
25931W        W41740   7.598   1.732   5.951 -0.1262 -0.0743 -0.1471
25932W        W41741   6.442   2.831  12.280  0.0607  0.4030  0.2978
25933W        W41742  16.343   8.062   1.270  0.0848  0.0442 -0.0534
25934W        W41743  13.278  13.007   5.049 -0.1090 -0.0145 -0.3028
25935W        W41744  16.146  16.693   3.629 -0.0804  0.2511  0.1529
25936W        W41745  10.001   2.609  14.601  0.0036  0.0802 -0.3004
25937W        W41746   9.961  13.478  15.226  0.0071  0.0085 -0.0817
25938W        W41747   8.910   9.150  12.440 -0.3599  0.0967 -0.0909
25939W        W41748  15.035   6.114  14.542  0.2417  0.1049 -0.0167
25940W        W41749   4.136  15.010   1.537 -0.2109  0.1574 -0.0848
25941W        W41750   4.792   6.909   0.738 -0.2397  0.0292  0.0883
25942W        W41751   3.202   8.440   5.130  0.2290 -0.1528 -0.1542
25943W        W41752   4.914   4.413  15.571  0.0284  0.0600  0.0816
25944W        W41753   2.828  17.448   4.534  0.2569  0.1731 -0.1607
25945W        W41754   3.590   4.229   2.188  0.2022  0.0044 -0.3721
25946W        W41755  10.002   0.004   4.106 -0.0162 -0.0046  0.3718
25947W        W41756   8.868   2.833   0.474 -0.2101  0.1751 -0.0367
25948W        W41757   9.469   7.507   2.210 -0.1628 -0.0985  0.4806
25949W        W41758  13.922   3.026   4.224 -0.4405  0.2002  0.0903
25950W        W41759  11.612   5.356   2.056 -0.1409  0.0307 -0.1170
25951W        W41760   2.676  13.159   1.724 -0.3062 -0.1578 -0.0868
25952W        W41761   2.421  14.298   5.544  0.1623 -0.3897 -0.0078
25953W        W41762   9.825   8.370   6.498  0.1887  0.1096 -0.0486
25954W        W41763   5.162  13.591  12.927 -0.0288  0.0934 -0.2316
25955W        W41764   4.980   7.073   2.090  0.2434  0.2307  0.2258
25956W        W41765   4.762   3.656   0.424 -0.0839 -0.0273  0.2358
25957W        W41766   9.021   1.002   0.650 -0.1658  0.0479 -0.0155
25958W        W41767   9.198  16.364   5.270  0.1700 -0.2863 -0.0386
25959W        W41768  13.114  12.456   2.774 -0.0550 -0.0422  0.0445
25960W        W41769   0.240   1.199   0.640 -0.1383  0.0604  0.0830
25961W        W41770  16.934   6.022  16.573 -0.0930 -0.4395  0.2459
25962W        W41771   8.772   7.308  13.628  0.0593 -0.1270 -0.0856
25963W        W41772  15.540  15.134  16.951 -0.0330  0.1967 -0.0229
25964W        W41773   0.233   6.568   3.561 -0.0520 -0.0166 -0.2582
25965W        W41774   9.551  13.266  16.086 -0.0741 -0.1619  0.3248
25966W        W41775   0.152   6.909   5.471 -0.0258  0.1260  0.0294
25967W        W41776   8.354  14.856  15.506 -0.0800 -0.3089 -0.5192
25968W        W41777   1.460   5.720   1.522 -0.1941  0.1698  0.0471
25969W        W41778   8.688   2.368  13.750 -0.1036  0.1340  0.2799
25970W        W41779   5.948   9.262  14.227 -0.0142 -0.0233  0.0382
25971W        W41780   0.063   7.692  14.483  0.3568  0.2846 -0.0374
25972W        W41781   3.389   0.266  13.685  0.4329 -0.0317  0.2661
25973W        W41782   6.130   8.386   4.000  0.0892  0.1677  0.0363
25974W        W41783   4.389  13.938  16.861  0.0977 -0.2034  0.3181
25975W        W41784   2.131  12.115  11.681  0.0019  0.1382 -0.0480
25976W        W41785  16.834  10.567  16.870 -0.1230  0.1650 -0.0244
25977W        W41786   6.232   0.257  13.390 -0.2773  0.4480 -0.1800
25978W        W41787  12.163  14.553   1.301  0.1489 -0.1900  0.0660
25979W        W41788   3.283  14.121  15.213 -0.1666  0.0097 -0.0438
25980W        W41789  11.589   2.545   2.050 -0.0061  0.0011  0.0253
25981W        W41790   7.506  16.336  15.808  0.1306 -0.0182 -0.3481
25982W        W41791   2.315   2.568   3.871  0.2947  0.1078 -0.0693
25983W        W41792   8.175   3.038   3.362 -0.4028 -0.0840  0.1232
25984W        W41793  14.986   6.676  14.464  0.0027  0.1174 -0.3721
25985W        W41794   7.319   9.115  13.137  0.0215  0.1568 -0.1527
25986W        W41795   0.647  11.051   2.755  0.1420  0.1607 -0.0818
25987W        W41796   3.024  13.079   5.395  0.1449  0.2074 -0.3802
25988W        W41797   3.305   4.369  14.140  0.1804 -0.1909 -0.2248
25989W        W41798  15.509  11.223   0.284 -0.1273 -0.0912  0.1017
25990W        W41799   8.115   3.903   0.172  0.3312  0.2714 -0.1010
25991W        W41800   3.536   7.384  14.303  0.1187  0.0861  0.2928
25992W        W41801   0.242   7.364   0.145  0.0074  0.0915 -0.1659
25993W        W41802   2.632   2.218  15.444  0.1280 -0.0127  0.0849
25994W        W41803  10.920   6.580   0.927 -0.0931  0.0258  0.0407
25995W        W41804   7.178  12.288   5.439  0.1191  0.0459  0.1291
25996W        W41805   0.032   9.290   1.563  0.1238 -0.0130 -0.0954
25997W        W41806  10.795  17.326   0.183 -0.0861 -0.1486  0.1679
25998W        W41807  15.308   8.507   0.969  0.0727 -0.1146 -0.0551
25999W        W41808  12.287  13.216   3.824 -0.1643  0.0793 -0.0375
26000W        W41809   9.610  14.415   0.999 -0.0402  0.1503 -0.2140
26001W        W41810   9.180   3.921  12.491  0.0310  0.2025 -0.1011
26002W        W41811   8.084  16.874  16.397 -0.0564 -0.1007  0.2822
26003W        W41812   3.017   0.281   4.246 -0.0423  0.2770 -0.0421
26004W        W41813   7.927   0.011  16.481 -0.2222 -0.2272  0.0929
26005W        W41814   6.104   7.686  15.210 -0.1855 -0.2638  0.1080
26006W        W41815   1.543  17.211   0.432 -0.3260  0.0449  0.1841
26007W        W41816   1.296   2.937   1.329 -0.1495 -0.1206  0.0213
26008W        W41817   8.975  10.425  15.056 -0.1214 -0.2437  0.1437
26009W        W41818  15.861   1.628   0.506 -0.0351  0.3667 -0.0998
26010W        W41819   5.197   9.702   3.431  0.4201 -0.0287 -0.1923
26011W        W41820   2.670  10.531  13.561 -0.1040 -0.1570  0.1462
26012W        W41821  15.482  12.553   3.545  0.0917  0.0033  0.0455
26013W        W41822  11.527  13.101   1.849  0.0401  0.0092  0.0010
26014W        W41823   6.306  10.487   1.412 -0.1397 -0.1821  0.2460
26015W        W41824  11.782  10.823   1.017 -0.0076  0.3400  0.1977
26016W        W41825  10.098   4.702   1.189  0.1336 -0.0033 -0.0872
26017W        W41826   3.010   5.191  15.464 -0.1324 -0.2129 -0.2638
26018W        W41827   7.589   8.154  15.874  0.0118  0.3581 -0.1625
26019W        W41828  14.176  16.659  12.762 -0.1515  0.0630 -0.0913
26020W        W41829   2.622  16.930  14.128 -0.0067  0.0010 -0.0115
26021W        W41830   1.406  13.142  12.710 -0.0394 -0.0215 -0.1714
26022W        W41831  17.538   0.592   1.309 -0.1958 -0.0482 -0.1674
26023W        W41832   0.687   0.142   3.328 -0.2280  0.0086  0.3561
26024W        W41833  16.679   7.751   0.933  0.3188  0.1992  0.1245
26025W        W41834   4.364  10.841  12.659  0.1248 -0.1946  0.2724
26026W        W41835   4.224  17.538   1.962 -0.1674 -0.3314  0.1484
26027W        W41836   2.997  12.893  14.163  0.0836 -0.0617 -0.2544
26028W        W41837  16.946  15.150   3.661 -0.4613 -0.0840 -0.0865
26029W        W41838  15.306  17.589  12.920  0.6133 -0.1445  0.2135
26030W        W41839   9.065  10.670   1.547  0.1908 -0.4468  0.0469
26031W        W41840   9.978  14.090  15.856 -0.0244  0.3700 -0.0434
26032W        W41841   0.290  11.819  14.973  0.1449 -0.3172  0.1077
26033W        W41842   1.588  11.044  16.466  0.0984  0.0516 -0.0664
26034W        W41843   4.447   1.760   3.327 -0.1703  0.2460  0.2125
26035W        W41844  11.449  11.656  11.572 -0.1807  0.1378 -0.1933
26036W        W41845  16.196   9.882   0.728 -0.0250 -0.1066  0.3020
26037W        W41846  16.562   8.314  15.044 -0.0863  0.0610 -0.0328
26038W        W41847   9.979  10.407  15.760 -0.1971 -0.0830 -0.1942
26039W        W41848   0.491   5.490  16.688 -0.2239  0.0306 -0.1576
26040W        W41849  11.459   3.947  12.065  0.2303 -0.0079 -0.0938
26041W        W41850   7.364  13.954   0.663  0.0741  0.1466 -0.0051
26042W        W41851   5.417  16.309  13.344  0.0370  0.0780  0.0866
26043W        W41852   6.123   5.102   3.020  0.0891 -0.0967  0.2263
26044W        W41853   9.055   2.629   1.386  0.1245  0.0441 -0.0894
26045W        W41854   3.794   9.732   0.779 -0.1147 -0.1564  0.2385
26046W        W41855   0.693   7.570   2.715 -0.1183 -0.0892 -0.1080
26047W        W41856   4.879   0.928  13.303  0.4541 -0.1398  0.1955
26048W        W41857  16.489  14.275  13.326 -0.1944 -0.3431  0.0652
26049W        W41858  14.008  15.328   3.052 -0.0811  0.0883 -0.0062
26050W        W41859  10.125   9.034  11.786  0.0583 -0.0329  0.0305
26051W        W41860   8.634   6.081  14.182  0.0229 -0.1960 -0.2023
26052W        W41861   3.276   3.465  15.675 -0.0245 -0.1725  0.3025
26053W        W41862   6.859  13.963  15.459 -0.2395  0.0967 -0.0634
26054W        W41863   5.363   6.702   4.863 -0.2063 -0.1952 -0.1477
26055W        W41864   0.963  17.736  12.359 -0.1518 -0.0738  0.1464
26056W        W41865   6.507   3.030   5.465  0.2231  0.1416  0.1325
26057W        W41866  11.307  16.836   6.014 -0.1574  0.3434  0.1654
26058W        W41867  15.279  16.152   5.404 -0.0314  0.0755 -0.0096
26059W        W41868  12.516   1.136   1.798 -0.0319 -0.0457 -0.0668
26060W        W41869   2.859  12.772   4.985 -0.0198 -0.0291  0.3280
26061W        W41870  14.379   7.868  14.523 -0.3130  0.1393  0.2560
26062W        W41871   2.747   9.701   0.242 -0.1568 -0.0842  0.0395
26063W        W41872  17.279  14.031  15.707 -0.0905  0.2607  0.0314
26064W        W41873  10.207   9.423  16.142  0.0925 -0.0928  0.1094
26065W        W41874   6.420  11.755   1.578  0.1252  0.0912 -0.0879
26066W        W41875  11.623  14.490   2.852 -0.1516 -0.3885  0.1310
26067W        W41876  13.121   4.082   5.417 -0.2346  0.1164 -0.5314
26068W        W41877  11.051   2.694  12.380 -0.1316 -0.1114 -0.0229
26069W        W41878  11.467   6.664   0.580 -0.2052 -0.0763 -0.2291
26070W        W41879   2.989  13.993   0.586 -0.0516  0.1259 -0.0094
26071W        W41880   1.552  13.245  14.873  0.1051  0.0613  0.4238
26072W        W41881   0.182   9.517  14.603 -0.0513  0.0835  0.2792
26073W        W41882   9.090  12.814   2.363 -0.2255  0.2921 -0.2833
26074W        W41883   2.242   9.697   0.050 -0.1769 -0.2900 -0.0256
26075W        W41884   0.412   0.850  12.058  0.2690  0.0874 -0.2788
26076W        W41885   1.582   5.306  15.501 -0.0223 -0.0502  0.0974
26077W        W41886  11.291   4.091  13.458 -0.1468 -0.0290 -0.3698
26078W        W41887  17.563   4.720  16.668  0.0600 -0.0666 -0.1777
26079W        W41888   8.474  11.180   3.725  0.1591  0.0283 -0.0273
26080W        W41889   0.132   2.069   2.791  0.2972 -0.1478  0.0768
26081W        W41890   7.804   5.136  12.642  0.0617 -0.2098 -0.4491
26082W        W41891   5.439  16.502  14.209 -0.1970  0.1958 -0.1637
26083W        W41892   5.611  10.003   5.567  0.1304  0.0817  0.1527
26084W        W41893  12.790   8.948   3.926 -0.1393  0.2657 -0.1129
26085W        W41894   4.207   9.016  13.560  0.0858  0.1148  0.1444
26086W        W41895   7.153   6.967   4.676 -0.3853 -0.0258  0.1952
26087W        W41896   5.206   7.110   4.029  0.2718 -0.1044  0.0873
26088W        W41897   9.871  13.242   0.232  0.2378  0.1567 -0.0291
26089W        W41898   7.841   0.167   1.520  0.3141 -0.0421  0.0368
26090W        W41899  10.220   0.969  15.398  0.2627 -0.1099  0.2021
26091W        W41900   3.228   7.702   2.512 -0.0157  0.0042  0.1996
26092W        W41901  10.707  14.331  16.419 -0.0873 -0.0304  0.1202
26093W        W41902   5.555  11.246  12.132  0.1103  0.1733 -0.3415
26094W        W41903   2.464   9.700   1.504  0.0785  0.3185  0.3048
26095W        W41904   7.346   5.549   5.411 -0.0349  0.0132 -0.2378
26096W        W41905  11.568  15.799   0.689 -0.0690 -0.2145  0.3194
26097W        W41906   4.921   5.725  15.952 -0.1693  0.1633  0.0830
26098W        W41907   8.500  15.177   1.618 -0.3716 -0.0241  0.0783
26099W        W41908   6.652   0.489   1.350  0.1454  0.2523 -0.0199
26100W        W41909   5.017  12.879   2.259  0.2038 -0.0920 -0.0954
26101W        W41910  12.745   8.251   2.598  0.2633 -0.1290  0.4469
26102W        W41911   2.521   5.123  14.602 -0.2891  0.0317 -0.1220
26103W        W41912   9.772  11.173   1.951  0.0954 -0.1065 -0.1839
26104W        W41913   1.707  13.250  16.165  0.2604  0.0291 -0.1793
26105W        W41914   9.955   7.429  16.687 -0.0877  0.0267 -0.0635
26106W        W41915  17.255   3.146  11.722  0.1685  0.2161  0.1352
26107W        W41916  10.487   5.828  12.891  0.2250  0.3672  0.2380
26108W        W41917   5.449   1.882   2.364  0.0266 -0.0682 -0.1688
26109W        W41918  11.970   4.418   1.919 -0.0036  0.0514 -0.4683
26110W        W41919  12.696  11.163  12.362  0.0129  0.4521  0.1875
26111W        W41920  15.902   7.604   0.381  0.1912  0.1196  0.2502
26112W        W41921   3.369  14.914   4.185  0.1878  0.0276 -0.0849
26113W        W41922   9.947   7.973  16.694  0.2696  0.1999  0.1264
26114W        W41923  13.933   8.041  14.616  0.2087  0.1713  0.0093
26115W        W41924   5.553   7.242   3.376  0.1319 -0.0062  0.2657
26116W        W41925   7.550   2.947   4.526 -0.0398  0.1939  0.3903
26117W        W41926   4.388  13.134   6.151 -0.2205  0.0698 -0.0425
26118W        W41927   6.566  13.358   3.800 -0.1154 -0.1662  0.1574
26119W        W41928   7.794   9.349   6.400  0.4291  0.0345 -0.0378
26120W        W41929  16.411  15.826  15.588  0.0440  0.0725 -0.0922
26121W        W41930   6.452  17.121   6.042 -0.0473 -0.1331  0.0061
26122W        W41931   8.796   1.332  15.239  0.2886 -0.1655 -0.0543
26123W        W41932   4.000   4.519  11.633  0.0211  0.1612  0.0914
26124W        W41933   1.503   0.373   4.605 -0.2315 -0.1278 -0.0354
26125W        W41934  14.892   2.267  14.154 -0.1472 -0.2642 -0.1982
26126W        W41935   7.130  13.430   5.472 -0.1596  0.1870  0.0548
26127W        W41936  16.424  14.470  12.556 -0.2448 -0.0621  0.2066
26128W        W41937  16.991   9.166   4.097  0.0723 -0.2314 -0.1266
26129W        W41938   0.461  13.594   4.322  0.0820 -0.0780 -0.1213
26130W        W41939  13.962  12.639  12.707 -0.0699 -0.0498  0.1981
26131W        W41940   9.735   7.657   3.682 -0.0460 -0.1696  0.1389
26132W        W41941  10.902   7.545   6.026 -0.0827 -0.1501 -0.1775
26133W        W41942  12.611  16.969  16.544 -0.2713 -0.0741  0.0993
26134W        W41943   1.978   6.282  11.991  0.1276 -0.0354 -0.1651
26135W        W41944  13.990   5.658   2.801 -0.0325 -0.2882 -0.0323
26136W        W41945   4.937   5.089  14.770  0.0438 -0.0272 -0.3547
26137W        W41946  13.684  13.768  15.516  0.0997  0.0906  0.2227
26138W        W41947  15.386   0.694   2.739  0.1714  0.2734  0.0195
26139W        W41948   3.425   3.568  11.666 -0.0568  0.1477 -0.0570
26140W        W41949  12.267   1.932   0.725  0.1763 -0.0120  0.0176
26141W        W41950   8.109  16.842   0.587  0.0584  0.1261 -0.3480
26142W        W41951   6.800   8.372   0.090 -0.1702  0.1387  0.0867
26143W        W41952   6.478   6.119  12.858 -0.0681 -0.1431 -0.0629
26144W        W41953  17.363   0.343   4.867 -0.1452  0.0348  0.0510
26145W        W41954  16.862  12.675  11.842  0.0365  0.1575 -0.3456
26146W        W41955   1.563  10.569  14.923 -0.0802  0.1145 -0.2235
26147W        W41956   5.113   5.276  11.577 -0.2855  0.1608  0.0858
26148W        W41957  13.792  16.410  13.012 -0.1679 -0.1891 -0.2908
26149W        W41958   8.406  15.514  11.442 -0.3111 -0.1703 -0.1255
26150W        W41959   4.961   4.105   2.049 -0.4599 -0.0371 -0.0475
26151W        W41960   6.115   0.119   4.994 -0.0385  0.0404 -0.0909
26152W        W41961   7.712   0.316  11.885 -0.2748  0.1214  0.2850
26153W        W41962   0.941   1.275   4.744 -0.0181  0.1124 -0.2880
26154W        W41963  11.852   2.015   1.346 -0.1483 -0.1209 -0.2192
26155W        W41964   8.025  14.535  14.642  0.3012 -0.0693  0.0408
26156W        W41965   8.277  13.719   1.256 -0.0567 -0.3062  0.2477
26157W        W41966   2.020  14.694   3.844  0.1631 -0.1798 -0.0264
26158W        W41967  16.311   0.311  15.826  0.0631  0.0618  0.0014
26159W        W41968   7.633   4.774  16.196 -0.1522  0.0401  0.0302
26160W        W41969  15.833   7.942   4.918  0.0547 -0.4430  0.3217
26161W        W41970   1.332  10.378  14.205  0.2119  0.1625  0.2368
26162W        W41971  10.489  13.760  16.885 -0.4438  0.0855  0.2977
26163W        W41972  11.063   2.895   6.332 -0.0467  0.0793  0.2340
26164W        W41973  10.583   6.557   1.438 -0.2464 -0.1672  0.0124
26165W        W41974   2.627   2.211   3.039  0.1854 -0.2981  0.2798
26166W        W41975   1.414   7.879   4.024 -0.1458 -0.0153  0.1953
26167W        W41976   2.744  14.283   2.082  0.0122  0.1015  0.1285
26168W        W41977  16.907   7.627  12.036  0.0307 -0.4265  0.4045
26169W        W41978   9.606  10.352   4.915 -0.0657 -0.1621 -0.0670
26170W        W41979   3.601   0.188   2.595 -0.0561 -0.0789  0.0589
26171W        W41980   2.986   9.865   4.976 -0.2210  0.0171  0.0671
26172W        W41981   2.733  10.364  14.527  0.1945  0.2358 -0.2455
26173W        W41982  13.531   8.237  13.344 -0.2171  0.3241  0.2595
26174W        W41983   7.911  12.575   3.672  0.0343  0.3198  0.0814
26175W        W41984   8.833   8.432  16.337 -0.0366 -0.3112 -0.0870
26176W        W41985   8.386   6.406  13.761  0.0753 -0.3285 -0.0017
26177W        W41986  13.286   1.679   2.832  0.0384 -0.1272 -0.1280
26178W        W41987  10.211  12.039  13.330  0.0294 -0.0663  0.3041
26179W        W41988   7.351   7.756   0.985 -0.0739 -0.2866  0.1181
26180W        W41989   0.440   1.651   2.506 -0.1574  0.3059 -0.0011
26181W        W41990  17.519   8.291  12.401  0.2767 -0.2039  0.1303
26182W        W41991  16.034   9.072  16.030  0.0847  0.0497  0.0285
26183W        W41992  15.234  11.771  12.004 -0.1034 -0.0416 -0.3515
26184W        W41993   4.776   7.744  15.726  0.1690  0.2923 -0.1837
26185W        W41994  16.557  11.118   1.502  0.0899  0.0511 -0.1260
26186W        W41995   9.454  14.077  12.444 -0.0502  0.0408  0.1299
26187W        W41996   4.651   4.285  15.953  0.0613  0.3106 -0.1853
26188W        W41997   1.652  10.696  16.912  0.0999 -0.1520  0.0344
26189W        W41998  15.818   1.608  13.917  0.0542 -0.4831  0.2409
26190W        W41999  11.833   1.118   1.126 -0.0141  0.2949  0.2043
26191W        W42000  16.147   5.750  15.068  0.0108  0.0429 -0.2750
26192W        W42001   9.906   7.451  12.970 -0.0338 -0.0497 -0.1513
26193W        W42002   2.350   3.036  12.332 -0.2775 -0.0055 -0.3782
26194W        W42003   7.396  16.719   5.393 -0.3365  0.0415  0.3834
26195W        W42004   9.509  13.822   0.759 -0.0110 -0.0177 -0.0879
26196W        W42005  11.158  17.036   0.426 -0.0064 -0.1872  0.0119
26197W        W42006   8.822  14.749  15.592  0.1687 -0.0467  0.0396
26198W        W42007  11.180  14.609  15.746 -0.1575 -0.1404 -0.1336
26199W        W42008   3.527   2.136  15.060  0.0141 -0.0745 -0.0167
26200W        W42009   5.148   8.182   3.231  0.0084 -0.2892  0.2199
26201W        W42010   9.950  13.526  14.732 -0.1574 -0.0653  0.0678
26202W        W42011   4.379  16.019  13.816  0.1626  0.1160 -0.2638
26203W        W42012  10.034  10.378  11.190  0.0152 -0.0457  0.1829
26204W        W42013  13.244   2.384  15.893  0.0909 -0.2450 -0.1837
26205W        W42014  11.607  14.374   3.778 -0.0612 -0.0113  0.0424
26206W        W42015   9.961  16.833  14.217  0.2038  0.0893  0.3498
26207W        W42016  17.229   4.943  14.758  0.0780 -0.2502 -0.1841
26208W        W42017  10.021  11.489  13.053 -0.0277 -0.1715 -0.0759
26209W        W42018   7.345   8.513  14.791  0.2896 -0.0160  0.2192
26210W        W42019   3.033   0.645   6.952 -0.0074 -0.1716 -0.0793
26211W        W42020   8.985  16.207  14.795  0.3451 -0.0813  0.0048
26212W        W42021   6.862  11.492  11.589  0.1964  0.1085  0.0361
26213W        W42022  14.375   2.456  11.669  0.3959  0.1095  0.1983
26214W        W42023  13.191   8.138   2.984 -0.0899 -0.3572  0.1017
26215W        W42024  12.749  16.995   4.904  0.1700 -0.1309 -0.2563
26216W        W42025  14.695  15.715  13.561 -0.3617  0.0645 -0.2618
26217W        W42026   4.047  16.015   0.227 -0.3340  0.0938 -0.0093
26218W        W42027   5.388  13.994  13.682  0.0338  0.2908  0.1360
26219W        W42028   4.759  11.870   0.390  0.1744  0.1645 -0.0067
26220W        W42029   8.971   2.740  12.896 -0.1758 -0.4524 -0.2861
26221W        W42030   4.103   3.524   4.736 -0.1805 -0.1776 -0.2953
26222W        W42031   8.429   8.270   3.907  0.2448 -0.0868 -0.1989
26223W        W42032   3.758   1.146  16.460  0.0328 -0.0471 -0.0522
26224W        W42033  14.942   4.388  15.836  0.0759  0.2165  0.1134
26225W        W42034  11.377   5.388  13.289 -0.0284 -0.1668 -0.1595
26226W        W42035   3.542  12.734  14.918 -0.1963 -0.1756 -0.2505
26227W        W42036   7.735   8.989  15.574  0.1188  0.0168  0.1098
26228W        W42037   4.229   8.406   3.589 -0.0267  0.0039  0.1917
26229W        W42038  11.767   3.160  15.790 -0.1688  0.0483  0.1597
26230W        W42039   3.596   6.871   2.263  0.0461 -0.0437  0.2184
26231W        W42040   6.880   8.233  14.916 -0.2302 -0.1846  0.0918
26232W        W42041   5.301  17.554   1.788 -0.1525  0.3315 -0.0272
26233W        W42042   5.378   4.931   4.238 -0.4110  0.1763  0.1242
26234W        W42043   0.456   6.421   6.802  0.0198 -0.3012 -0.1485
26235W        W42044   5.036   7.976  16.941  0.1103 -0.0055 -0.0609
26236W        W42045  15.649  11.659   1.671  0.0711 -0.0261  0.0601
26237W        W42046  15.298  16.817   1.481  0.0221 -0.0809 -0.0984
26238W        W42047  15.856  13.388   3.339  0.2195  0.1063  0.0428
26239W        W42048   9.355   9.474  12.331  0.0309  0.0723 -0.1581
26240W        W42049   6.249  14.258  15.524 -0.2061 -0.2286 -0.1686
26241W        W42050   7.316  12.379   1.782 -0.0780 -0.1659 -0.0306
26242W        W42051   2.975  10.910   4.092  0.1727 -0.2584  0.4675
26243W        W42052  14.322   1.336  15.198  0.0658 -0.0435 -0.1277
26244W        W42053   4.757   8.852   4.643 -0.1150 -0.0101 -0.0933
26245W        W42054  14.836  13.063  15.188 -0.2274  0.0034 -0.2069
26246W        W42055   9.229   7.445   6.018 -0.2043  0.2071 -0.1336
26247W        W42056   7.231   5.279   2.940  0.2632 -0.0073  0.1981
26248W        W42057  13.170  16.998  14.821  0.0463  0.0544 -0.1647
26249W        W42058  10.379  16.464   4.391  0.1485  0.2272 -0.0040
26250W        W42059   2.944   5.868   5.041 -0.3171  0.2051  0.0740
26251W        W42060  17.121   4.376   5.338 -0.0804 -0.2348 -0.2530
26252W        W42061  11.656  10.245   5.571  0.2024 -0.0648  0.1237
26253W        W42062   3.957   7.962  11.945  0.1721  0.4065  0.3376
26254W        W42063  14.898   7.568   2.393  0.0533  0.2863 -0.0178
26255W        W42064  13.974  15.322   2.141  0.0185 -0.0976 -0.4620
26256W        W42065   8.251  17.659   0.965 -0.0068 -0.0799  0.2325
26257W        W42066   5.873  10.975  16.151  0.1398  0.1509  0.0224
26258W        W42067   2.038  10.300  12.152  0.2928  0.1841  0.0469
26259W        W42068   7.438  12.035  16.680 -0.0141  0.0234 -0.0095
26260W        W42069   6.102   5.051   5.946 -0.3299 -0.1752 -0.1693
26261W        W42070   9.987   5.830  16.811  0.1161 -0.0047 -0.0948
26262W        W42071  11.798   5.705  12.494 -0.1081  0.1336 -0.0901
26263W        W42072   8.734   5.949  16.448 -0.1182  0.0916 -0.0442
26264W        W42073   4.566   8.424   1.500 -0.0033 -0.0714 -0.3169
26265W        W42074   0.890   1.247  16.963  0.1219  0.0273  0.1639
26266W        W42075   5.057  12.723  11.838 -0.0713  0.2166  0.1481
26267W        W42076   2.391   4.018   2.070  0.3060 -0.0544 -0.1466
26268W        W42077   6.939  12.041  12.255  0.0869 -0.0018  0.1326
26269W        W42078   1.164   5.712   4.246 -0.4161  0.0778  0.0966
26270W        W42079   7.024   2.105   0.185  0.0387  0.3017 -0.3459
26271W        W42080  15.668   9.886  10.657 -0.0224  0.0884 -0.2981
26272W        W42081   0.943  11.511   0.379 -0.3263 -0.1573 -0.0199
26273W        W42082   4.719   4.847  13.895  0.3722  0.0541  0.1075
26274W        W42083   7.036  15.799  14.630 -0.1636  0.1671  0.2508
26275W        W42084   9.186  15.111  15.343 -0.1597 -0.1529 -0.0132
26276W        W42085   5.205  10.169  15.626  0.0219 -0.2264 -0.0717
26277W        W42086   8.270  14.025   4.815 -0.1247 -0.3935  0.0034
26278W        W42087  10.379  12.504   2.567 -0.1118  0.0735 -0.0500
26279W        W42088  13.798  16.416   0.977 -0.2150  0.2566  0.0754
26280W        W42089   2.423   1.187   1.450  0.2403 -0.1336 -0.0373
26281W        W42090  14.734   2.859  13.396  0.1508 -0.0797 -0.1312
26282W        W42091   1.948   5.019  16.677 -0.2811 -0.1559 -0.2000
26283W        W42092   8.937   8.803   5.168 -0.1286 -0.2324 -0.0747
26284W        W42093   9.990  14.862   3.517 -0.1976  0.0089 -0.0029
26285W        W42094  11.260   4.224   3.077 -0.1733  0.3363 -0.1478
26286W        W42095   6.884   8.542  11.726 -0.0679  0.1165 -0.2290
26287W        W42096   0.099  10.722   1.731  0.0626 -0.2888  0.2815
26288W        W42097  10.787   8.409   3.042 -0.1277 -0.3347  0.0074
26289W        W42098   0.961   7.065   5.406 -0.2656 -0.0762  0.3787
26290W        W42099  12.256   2.709   2.483  0.0741  0.0914 -0.2498
26291W        W42100  12.512   2.982  11.971 -0.0723  0.3341 -0.1239
26292W        W42101  11.434   0.567  14.822 -0.1356  0.0754  0.3039
26293W        W42102  10.818  15.334   3.018 -0.3247 -0.2223  0.1565
26294W        W42103  14.806  16.531   3.413 -0.0952 -0.2456 -0.3562
26295W        W42104   3.698  10.068   0.429 -0.0555  0.3522  0.0561
26296W        W42105   6.975   3.115   4.624 -0.0088  0.0878 -0.0806
26297W        W42106   5.825  10.491  16.998 -0.1119 -0.1241  0.2397
26298W        W42107   8.985  13.308  14.698 -0.0176 -0.0758 -0.2670
26299W        W42108   2.729   3.712  15.237 -0.0156 -0.4249 -0.1930
26300W        W42109   3.873   3.359  11.726 -0.2905 -0.0454 -0.1845
26301W        W42110  14.369   5.662   0.698  0.0866  0.2189  0.4819
26302W        W42111  12.544   6.954  13.305  0.2383 -0.2968  0.2197
26303W        W42112   2.727   0.329   5.029  0.4387  0.0909 -0.1056
26304W        W42113  13.244   1.478   3.519  0.3325  0.0825  0.1823
26305W        W42114   1.023   1.790  12.946 -0.3509  0.1140 -0.1566
26306W        W42115   2.456  11.950  11.331 -0.0169 -0.2911  0.1918
26307W        W42116   1.255   2.605   2.016  0.0428  0.0719  0.0594
26308W        W42117   4.872  13.551  15.971 -0.3073  0.0461  0.1641
26309W        W42118   8.551  15.883  15.076 -0.2203 -0.2197 -0.1731
26310W        W42119   3.008  13.712  12.022  0.2017  0.1510 -0.0852
26311W        W42120  13.295  14.202   5.639 -0.0795 -0.3016 -0.1339
26312W        W42121   5.471   1.639   6.326  0.1320  0.1027  0.0426
26313W        W42122  12.376  13.776   5.288 -0.1997  0.2500  0.0492
26314W        W42123  12.544  12.925  12.564 -0.0266 -0.1312 -0.2294
26315W        W42124   1.951   9.486  16.013 -0.0507 -0.0072  0.2520
26316W        W42125   5.522   7.609   5.194 -0.3348 -0.0180  0.0924
26317W        W42126   4.595   0.627   4.707 -0.0367  0.0557 -0.3444
26318W        W42127   7.959  17.345  12.583 -0.1017  0.1184 -0.1351
26319W        W42128  12.800   4.055  15.700 -0.0555 -0.1102 -0.1477
26320W        W42129   2.417   2.161  12.264 -0.0609  0.1480 -0.0027
26321W        W42130   4.680  12.414  15.653 -0.0331 -0.1142  0.2243
26322W        W42131  15.062  12.168  16.295  0.3107 -0.0462  0.0440
26323W        W42132   9.102   4.234   1.666  0.1553  0.4829  0.0601
26324W        W42133   4.838   6.928  16.019 -0.0511 -0.0511 -0.0742
26325W        W42134   5.019   3.803  14.389 -0.1880  0.1951  0.1155
26326W        W42135   2.147  11.077   2.924 -0.0512  0.0634 -0.1011
26327W        W42136   6.163   9.140   4.787 -0.1876 -0.2183  0.0272
26328W        W42137  13.148   1.674  12.043  0.1774  0.1819 -0.1462
26329W        W42138   4.793  15.436   3.986  0.1037  0.1552 -0.0392
26330W        W42139  10.539   7.239   5.650 -0.0536 -0.2145  0.1233
26331W        W42140   5.879  11.555  14.307  0.0313 -0.0287  0.0131
26332W        W42141  15.687  13.683   1.941 -0.0387  0.2661  0.0344
26333W        W42142   6.850  16.974  15.923  0.0056  0.0794  0.0966
26334W        W42143  12.688   8.621  15.214 -0.1732  0.0598  0.2488
26335W        W42144  11.820  16.121   3.454  0.2606  0.3629 -0.0088
26336W        W42145  14.658  11.157  14.971 -0.1307 -0.0384  0.1249
26337W        W42146   6.464   0.662  11.880 -0.2403  0.0771 -0.0386
26338W        W42147  12.757   7.631   0.059  0.1558 -0.0877 -0.0429
26339W        W42148  15.645   9.489   2.101 -0.2041  0.0799  0.0544
26340W        W42149   7.751   7.354  12.438  0.0956 -0.2006  0.0122
26341W        W42150   9.473  17.458  13.700 -0.1759  0.1097 -0.0962
26342W        W42151   1.160   2.810   0.452  0.1438 -0.0954  0.3674
26343W        W42152  13.464  12.024  11.565  0.1243 -0.4103  0.1415
26344W        W42153   3.458   4.353   0.522 -0.1972 -0.2162 -0.0432
26345W        W42154  13.585  12.366   4.935  0.1724 -0.1341  0.0655
26346W        W42155   2.673  12.362   4.073 -0.1508 -0.1207 -0.4269
26347W        W42156   5.595   6.314   5.171 -0.1011 -0.0526  0.1296
26348W        W42157   9.511  15.385   5.010  0.0745 -0.1916 -0.0512
26349W        W42158  14.227  11.283   1.725 -0.3918 -0.0527 -0.1293
26350W        W42159   7.109  12.568  13.026 -0.0923 -0.0286  0.1968
26351W        W42160   9.609   6.975   1.382  0.0331  0.0138 -0.0853
26352W        W42161  13.189  16.331  11.634 -0.1896  0.0481  0.1240
26353W        W42162   7.123  10.396  13.450  0.1617  0.1548 -0.0207
26354W        W42163   4.223  16.313   3.184  0.1532 -0.0623 -0.0175
26355W        W42164   2.090  10.117  13.105 -0.0974 -0.2356 -0.1196
26356W        W42165   1.495  17.580  13.610  0.1808  0.1590  0.1403
26357W        W42166   3.947   1.428  13.240  0.0894 -0.3445  0.0097
26358W        W42167   2.193  14.835  11.559 -0.1021  0.2717 -0.3326
26359W        W42168   6.017   4.837   2.620 -0.2625  0.0825  0.2488
26360W        W42169   7.630   3.737   1.246 -0.0069 -0.0299  0.0895
26361W        W42170  10.787   9.689   0.520  0.1761  0.1578  0.0966
26362W        W42171   1.306   8.958  12.202 -0.0951  0.0115 -0.2853
26363W        W42172   1.185   2.499  16.454  0.1229  0.2362  0.0124
26364W        W42173   2.120  10.372   0.723  0.0051 -0.3012  0.4769
26365W        W42174  10.100   5.666  14.625 -0.0203  0.4868  0.3526
26366W        W42175  11.566   9.140  12.554 -0.0546  0.0368  0.1250
26367W        W42176  17.614   4.385  13.200  0.5043 -0.0442 -0.0770
26368W        W42177  12.424   2.458   0.673  0.0061 -0.2470  0.1049
26369W        W42178  17.003   9.230   1.074 -0.0499 -0.1613  0.0449
26370W        W42179  12.169  17.153   1.263  0.0224  0.1469 -0.2043
26371W        W42180   8.302   2.350  16.518 -0.0844  0.0612  0.0188
26372W        W42181   0.941  10.290  11.657  0.0291  0.0968 -0.0069
26373W        W42182  11.469  10.688   4.342  0.0956  0.2573 -0.0758
26374W        W42183  12.312  10.049   4.388  0.1137  0.0740  0.0955
26375W        W42184  11.573   8.423   3.706  0.0686  0.0466  0.0597
26376W        W42185  15.690  16.976   0.536  0.0843 -0.1656 -0.1882
26377W        W42186   7.577  15.372  11.669 -0.0301  0.1335  0.1824
26378W        W42187   1.608  16.726   2.091 -0.1344  0.1471  0.0398
26379W        W42188   1.712  10.223   2.765  0.1890 -0.1477  0.0303
26380W        W42189   2.969  15.339  16.114 -0.1154 -0.2456  0.1815
26381W        W42190  13.186  14.668  15.575 -0.0512  0.1683  0.2974
26382W        W42191   2.568  10.538  16.543 -0.0443 -0.2018 -0.2147
26383W        W42192  17.577   9.132   4.120  0.2432 -0.2041 -0.1478
26384W        W42193  14.433  12.598  15.740  0.0673 -0.1279  0.2498
26385W        W42194  15.370  14.436  15.121 -0.2105 -0.1291 -0.2645
26386W        W42195   9.897  15.704  10.282  0.0422 -0.1232  0.1525
26387W        W42196   0.464  10.932  13.048  0.0095  0.0208  0.0881
26388W        W42197   5.078  11.998   0.739 -0.0965 -0.2429 -0.2678
26389W        W42198   0.070   3.697   3.366 -0.2403  0.0555 -0.3447
26390W        W42199  10.832   5.574  14.410  0.1738  0.0738  0.2411
26391W        W42200   6.717  16.643  14.686 -0.1183 -0.0331  0.1392
26392W        W42201   5.800   2.525  13.354  0.1520  0.2536  0.0188
26393W        W42202  13.918   6.166   2.848 -0.0069  0.3132 -0.0468
26394W        W42203   6.886  12.377   2.125 -0.2823  0.2171 -0.0491
26395W        W42204   7.243  13.574   5.004  0.0520 -0.0987  0.0543
26396W        W42205  10.430  13.684  12.796 -0.1482  0.0203 -0.0753
26397W        W42206  10.392   3.856   1.725  0.2835 -0.0153 -0.0800
26398W        W42207   1.756  15.036  13.476  0.2694 -0.0190 -0.1607
26399W        W42208  15.162  14.945  14.960 -0.1879 -0.0147 -0.1103
26400W        W42209   8.735   9.897  14.996 -0.0355 -0.1064  0.1563
26401W        W42210  16.000  15.655   5.022  0.2216 -0.0749  0.1350
26402W        W42211   2.357  11.766  16.810 -0.0836  0.0739 -0.1406
26403W        W42212  16.530   1.257   5.030 -0.2307 -0.1420  0.2528
26404W        W42213  12.253  11.252  14.822 -0.0460  0.0781 -0.2887
26405W        W42214  14.590  12.176   1.057  0.1931  0.1475 -0.1145
26406W        W42215  16.026  11.846   4.480  0.4812  0.2243 -0.2072
26407W        W42216   9.136  12.680   1.420 -0.0526 -0.0828  0.0355
26408W        W42217   1.129   1.893   1.933  0.1542  0.0576  0.0824
26409W        W42218   6.618  12.045  11.478 -0.1103  0.1745 -0.0067
26410W        W42219   4.605  16.049  12.186  0.1920 -0.1740  0.1262
26411W        W42220   5.117   2.554   6.498  0.1212  0.0317 -0.0045
26412W        W42221   8.033   9.560  12.689 -0.4650  0.0492 -0.0600
26413W        W42222   3.573   8.305   3.662 -0.3129 -0.4873  0.1288
26414W        W42223  15.571   5.871  11.895 -0.1026  0.3076 -0.0711
26415W        W42224   5.557   2.390   3.555 -0.2665 -0.1251  0.2321
26416W        W42225  12.528  17.727  16.261  0.1123  0.4259  0.0426
26417W        W42226   5.722  16.720   1.347  0.0536  0.1423  0.0646
26418W        W42227   4.109   9.258  14.245 -0.1920  0.1112 -0.2013
26419W        W42228  16.220  14.001  14.630 -0.0795  0.0597  0.1632
26420W        W42229   6.260   1.497  15.417  0.2800 -0.0654 -0.2851
26421W        W42230  12.180   8.090   3.295 -0.1232  0.2335  0.0081
26422W        W42231   7.511   8.744   3.159  0.2281  0.0183 -0.0689
26423W        W42232   3.340   7.765  15.464  0.2540 -0.1752  0.0318
26424W        W42233   4.112  14.042  13.959 -0.0215 -0.1576  0.0535
26425W        W42234  16.487   9.866   1.653  0.1183 -0.2417 -0.2762
26426W        W42235   1.980   1.943   2.239  0.2419  0.1564 -0.0330
26427W        W42236  13.945   8.972   0.757  0.1900 -0.0437 -0.0607
26428W        W42237   5.369   2.247  16.235  0.1276  0.2054 -0.2397
26429W        W42238  10.780   4.313   1.108  0.0549  0.1876  0.2139
26430W        W42239  12.778   8.311   4.059  0.0325  0.0596  0.0931
26431W        W42240   1.716   7.692  12.374 -0.1311  0.0698  0.1849
26432W        W42241  17.208   6.092  16.174  0.1167 -0.1003 -0.0367
26433W        W42242   7.734  14.758   3.889 -0.0537  0.2343  0.0920
26434W        W42243  15.273  15.651   4.475  0.1168  0.0421 -0.0770
26435W        W42244   5.755  15.752   3.139  0.3397 -0.1033  0.0691
26436W        W42245  11.484   7.091   3.315  0.3491 -0.0801  0.2343
26437W        W42246   1.491  11.036   5.383 -0.0848  0.0152 -0.0206
26438W        W42247   7.918   2.307  15.532 -0.0318 -0.1346 -0.0831
26439W        W42248   5.990   5.108   0.688 -0.3877  0.2193  0.0427
26440W        W42249  11.230  12.298  10.540  0.0844 -0.2983 -0.0072
26441W        W42250   0.926   1.225  14.651 -0.2272 -0.1319  0.3394
26442W        W42251   2.508   8.507   4.084  0.3043 -0.0943  0.0065
26443W        W42252   7.708   4.012   3.065  0.1740  0.1587  0.3056
26444W        W42253  14.291   7.837  16.780 -0.0113  0.3337 -0.1862
26445W        W42254  13.551   8.718   4.228  0.2537 -0.0297  0.3569
26446W        W42255  14.672   1.330  15.574 -0.1959  0.0447  0.0002
26447W        W42256   7.063  10.040   3.426  0.2810  0.0821  0.0331
26448W        W42257  10.208   9.905  14.567  0.1157 -0.3025  0.1458
26449W        W42258   6.233   7.544  14.311  0.0633  0.2673 -0.1778
26450W        W42259  15.484  12.962  13.976 -0.1486 -0.3326  0.0811
26451W        W42260   3.838  14.789  15.927 -0.1370  0.1446  0.1472
26452W        W42261   5.645   2.251  14.467 -0.0834 -0.1567  0.3187
26453W        W42262   6.225   5.688   4.550  0.0139 -0.0749 -0.3750
26454W        W42263  11.122   1.630  16.485 -0.1239  0.2062  0.0058
26455W        W42264  10.362   9.543   2.202  0.1805 -0.1155  0.0450
26456W        W42265   1.430   9.692   0.266 -0.0439 -0.2529  0.0942
26457W        W42266   1.541   1.201   4.335  0.0996  0.0946  0.1037
26458W        W42267   5.711   6.913   5.334  0.4401  0.3654 -0.4087
26459W        W42268   8.847  12.808  16.285  0.3690 -0.2254 -0.0957
26460W        W42269  14.644  11.867  13.617 -0.2063  0.0532 -0.0321
26461W        W42270   8.754  11.043  13.237  0.0280 -0.1269  0.1005
26462W        W42271   7.876   0.248   4.019  0.1637 -0.1248  0.0263
26463W        W42272   6.409  14.007  12.655 -0.2970 -0.0173  0.0511
26464W        W42273   8.541  15.576  14.108 -0.0073  0.1549 -0.0992
26465W        W42274  14.928  12.354  12.693 -0.0824  0.1313  0.0006
26466W        W42275   1.215  15.908   1.770  0.0761 -0.1355 -0.3542
26467W        W42276   1.349   1.498   3.933 -0.0234  0.0534 -0.1042
26468W        W42277   1.828   3.103  16.690  0.2079  0.0720 -0.3256
26469W        W42278   6.857   7.446   3.875  0.0812  0.1195  0.0234
26470W        W42279  13.152  16.718   4.846 -0.0847 -0.0161 -0.0138
26471W        W42280   3.296  12.938   1.911 -0.2229  0.0663  0.1100
26472W        W42281   5.849   1.895  15.208  0.0530 -0.1174  0.0747
26473W        W42282   7.282   9.568   0.318  0.1848 -0.1035 -0.0713
26474W        W42283   8.832   1.552  11.549 -0.2051  0.1251 -0.0975
26475W        W42284   7.116   0.435  13.103 -0.0654 -0.0816  0.1403
26476W        W42285  17.566  13.143   1.151 -0.1175 -0.1544 -0.1600
26477W        W42286  12.376   8.566   2.660  0.0590  0.1824  0.0762
26478W        W42287   3.412  16.572   6.195  0.0729  0.0860  0.0827
26479W        W42288   4.468   0.516  16.109 -0.1358  0.3139 -0.1150
26480W        W42289   7.172   3.336  16.176 -0.1205 -0.2410 -0.0300
26481W        W42290   5.874   0.438   4.160 -0.0102 -0.1229  0.1444
26482W        W42291   5.403  12.400   4.787 -0.0741  0.0788 -0.0496
26483W        W42292  16.844   2.218  13.892 -0.0310 -0.0478  0.1419
26484W        W42293  13.147  15.188   6.003 -0.3488 -0.4112  0.2968
26485W        W42294   8.391  13.541   2.598 -0.0019 -0.2252 -0.0639
26486W        W42295  15.842   4.538   1.720  0.2367 -0.1890  0.0231
26487W        W42296  10.042   7.827   1.037  0.2119 -0.1793  0.4770
26488W        W42297  10.668   2.441   1.066 -0.0355  0.2789  0.0434
26489W        W42298  14.398   3.205   1.208  0.1520  0.0180  0.3558
26490W        W42299  16.162   7.997  15.875 -0.0318 -0.0353  0.0930
26491W        W42300  13.477  17.066  15.321  0.1966  0.1267  0.0562
26492W        W42301  14.478  15.904  11.015  0.0033  0.0372  0.1061
26493W        W42302  14.469   4.101  15.787 -0.0721  0.0838  0.3048
26494W        W42303  10.503   3.360  12.209 -0.0497 -0.4870 -0.3430
26495W        W42304   9.891   5.269   4.637 -0.1842  0.0929 -0.0086
26496W        W42305  15.578   5.179   1.351 -0.0043 -0.3723 -0.0298
26497W        W42306  16.370   8.303  15.515 -0.0378  0.2035  0.4119
26498W        W42307   7.644   2.111  12.485  0.1143 -0.1226 -0.0934
26499W        W42308  11.559  11.898  12.565 -0.4222  0.1028  0.0581
26500W        W42309  11.101   9.686  16.267 -0.1121 -0.0004 -0.0279
26501W        W42310   1.941  16.908   2.485 -0.5065  0.0306 -0.0113
26502W        W42311  15.546  11.292  16.119 -0.0545  0.0510 -0.5054
26503W        W42312   6.846   3.029  14.432 -0.0436 -0.1958 -0.0334
26504W        W42313  12.012   9.834  16.629  0.1846  0.2354 -0.1690
26505W        W42314  10.361   4.787   0.496  0.0904  0.1831 -0.0654
26506W        W42315   0.692   4.315  13.300 -0.1932  0.3013 -0.1057
26507W        W42316  14.977   8.300  16.294 -0.0219 -0.1973 -0.3070
26508W        W42317   2.086   3.643  16.280  0.0580 -0.2738 -0.1053
26509W        W42318   6.530   4.858   6.033  0.0049  0.0905 -0.0255
26510W        W42319   8.839  17.366  11.479 -0.0924 -0.1019  0.4784
26511W        W42320   4.613   8.122  13.300 -0.1520 -0.0681  0.1222
26512W        W42321   7.826   5.176   2.336 -0.1564 -0.0426 -0.0582
26513W        W42322  13.859   7.329  11.894  0.0995  0.1794 -0.3795
26514W        W42323  13.295   7.153  14.802 -0.2144 -0.3511 -0.1190
26515W        W42324   2.487   6.334   3.627  0.1215 -0.0098  0.1847
26516W        W42325   9.028   1.205   4.057  0.1942 -0.0474 -0.2573
26517W        W42326   1.490   6.515   0.445 -0.0972  0.0954 -0.0815
26518W        W42327  17.102   3.361   6.891  0.2901 -0.0283 -0.1645
26519W        W42328   4.082   7.196  12.469 -0.1859  0.1013  0.0228
26520W        W42329  10.172  10.618   3.553  0.1033 -0.1200  0.2563
26521W        W42330   3.451  12.353  11.827  0.0503  0.2147 -0.0088
26522W        W42331  16.142   4.227   6.270 -0.1568  0.2169  0.2236
26523W        W42332   4.179  12.722   0.322  0.0993  0.0423 -0.1062
26524W        W42333   9.331   3.129   3.092  0.0229 -0.2865  0.1882
26525W        W42334  11.597   8.022   4.714 -0.1357  0.0656  0.1232
26526W        W42335   2.312  17.159   0.003  0.0667 -0.0508  0.2629
26527W        W42336   3.166   2.228   5.450 -0.1368 -0.0730  0.2119
26528W        W42337  11.227  15.439  15.026 -0.0978  0.1603  0.2663
26529W        W42338   4.253   0.945   4.849 -0.2209 -0.3334  0.1109
26530W        W42339  10.276  11.575  11.665 -0.0715 -0.3316  0.3205
26531W        W42340   7.870  11.128  14.214 -0.2964 -0.0261  0.2068
26532W        W42341   4.267   6.830  16.708  0.0029  0.0960 -0.2273
26533W        W42342   3.027   1.883   1.082  0.1641 -0.0330 -0.2588
26534W        W42343  14.256   8.360  12.067  0.0046  0.0417  0.0599
26535W        W42344  13.282   6.544  12.402  0.1277  0.0756  0.0543
26536W        W42345   2.354  14.908  15.608  0.1272 -0.1614 -0.1667
26537W        W42346  15.766   0.635  13.140  0.0341 -0.1078  0.1666
26538W        W42347   6.936  17.627   3.779 -0.1758  0.1062 -0.0329
26539W        W42348  12.817   8.946   0.624 -0.0276 -0.2195  0.3029
26540W        W42349   8.578  13.217   4.565 -0.0120 -0.2768 -0.3248
26541W        W42350  10.934  10.042  15.170  0.1773 -0.2441  0.1382
26542W        W42351  12.051   4.794   5.688 -0.0901  0.3466  0.1428
26543W        W42352  16.947   1.432  13.995  0.2303 -0.0437 -0.0083
26544W        W42353   7.408  13.999   6.067  0.1284  0.1387 -0.2848
26545W        W42354   3.540  11.679   3.814  0.0572  0.1695 -0.1765
26546W        W42355   9.686   2.195   3.362 -0.0008 -0.1818  0.2294
26547W        W42356   7.385  13.307   1.325  0.3680  0.0122  0.1955
26548W        W42357  13.438  12.984  11.505  0.0643 -0.0836 -0.0583
26549W        W42358   0.584  14.372  15.272  0.0215  0.0089  0.3760
26550W        W42359   8.924   9.003  16.211 -0.0155 -0.1585 -0.3131
26551W        W42360  15.338   4.207   1.040  0.0845 -0.1009 -0.0532
26552W        W42361  16.857  17.737  12.859 -0.0004 -0.4621  0.0160
26553W        W42362   7.441  11.168  11.459 -0.0499 -0.0930  0.0431
26554W        W42363  15.150  14.184   1.039  0.0900 -0.2998  0.1297
26555W        W42364   2.205   2.570  13.186  0.0759  0.1369  0.0607
26556W        W42365  10.139  10.415   0.094  0.1907  0.0226  0.1074
26557W        W42366  17.175  12.533   2.756 -0.0824  0.1513  0.1462
26558W        W42367  12.327  14.954   5.768  0.0862 -0.1923  0.0251
26559W        W42368  15.915  14.693  11.609 -0.0553  0.1322  0.1881
26560W        W42369   3.136   6.192  12.526 -0.2485  0.2385 -0.3775
26561W        W42370  14.809   2.411   3.547 -0.1020  0.0633 -0.0746
26562W        W42371   6.158   9.742  16.240  0.1858  0.0290 -0.0580
26563W        W42372   7.783   6.360  16.464  0.0482  0.2256  0.4844
26564W        W42373  15.177   1.054   0.485  0.2241  0.0296  0.1600
26565W        W42374  15.081  12.511   0.564  0.0136 -0.1795 -0.0018
26566W        W42375   4.058   3.702  14.280 -0.0956  0.0243  0.0027
26567W        W42376   7.580  11.663   4.308  0.2202 -0.0666  0.1676
26568W        W42377   9.699  12.025  15.499  0.3393  0.0252 -0.1345
26569W        W42378  14.816  17.337  15.818 -0.0711  0.0555 -0.1314
26570W        W42379  16.966   8.704   5.035  0.0225 -0.0088 -0.1224
26571W        W42380   5.414   9.145   2.119 -0.1099  0.0533  0.1134
26572W        W42381   7.817  14.900   4.751 -0.0399  0.0603  0.1372
26573W        W42382   9.374   4.928   1.882 -0.0843 -0.0735  0.0364
26574W        W42383   6.227  10.594  14.170 -0.0008  0.1205 -0.0453
26575W        W42384   4.138  12.838   3.578 -0.2651 -0.1271  0.0110
26576W        W42385   8.662   1.573   0.060 -0.0573  0.1661 -0.0641
26577W        W42386   7.846   8.239   1.847 -0.0908  0.5084 -0.1023
26578W        W42387  14.715   7.562   5.497 -0.0077  0.0442  0.5854
26579W        W42388   9.127   4.793  14.265  0.2000 -0.2214 -0.0108
26580W        W42389   7.462   3.891   4.736 -0.1019 -0.0002  0.0687
26581W        W42390   4.365   6.312  14.703  0.0880  0.2489  0.0121
26582W        W42391  17.132   3.908  12.550  0.0460  0.1163  0.1565
26583W        W42392   5.348  12.091  16.398  0.1455 -0.0621 -0.2339
26584W        W42393   5.417  11.956   4.573 -0.2493 -0.0432  0.0846
26585W        W42394   0.318   7.530   0.923 -0.2954 -0.0623 -0.1010
26586W        W42395   7.826   2.809  14.656  0.0022  0.1270  0.1200
26587W        W42396   4.771   4.261   5.792  0.0214  0.1591 -0.0049
26588W        W42397  13.995   4.429  14.669 -0.1267  0.0338  0.1130
26589W        W42398  11.416   7.654   2.279 -0.1415 -0.2779  0.0819
26590W        W42399   3.536  13.835   0.955  0.4347 -0.0156 -0.1586
26591W        W42400   6.358   9.605   2.860 -0.0548  0.0749  0.5204
26592W        W42401   5.143   5.145   0.433 -0.3248  0.1552  0.0792
26593W        W42402  14.921   3.171   3.660  0.2523 -0.0849 -0.2004
26594W        W42403   0.659   3.186  16.885 -0.1880  0.0973 -0.0356
26595W        W42404  13.048  17.305  13.665 -0.2153 -0.0875 -0.4852
26596W        W42405   7.385  14.356   1.058 -0.0977  0.4126  0.1056
26597W        W42406  13.039   7.255   0.424  0.0414  0.0038  0.0500
26598W        W42407   9.044   7.309   1.968  0.0582  0.1748  0.0116
26599W        W42408   1.487   8.577  11.791 -0.0662  0.0642  0.1405
26600W        W42409   1.243  17.235  12.197  0.2316  0.3103  0.0301
26601W        W42410  11.128  10.866  11.058  0.0079  0.2616 -0.2116
26602W        W42411   2.754   9.318  16.385  0.1759 -0.1010 -0.0189
26603W        W42412  10.875   3.852  14.762 -0.1333  0.2144  0.0055
26604W        W42413  10.583   4.203  14.339  0.1244  0.2103  0.1785
26605W        W42414  12.006  15.630   3.213 -0.0042 -0.0537 -0.1446
26606W        W42415   4.824  10.114  16.769 -0.2332 -0.0552 -0.1817
26607W        W42416   4.780   2.241  10.823  0.2649 -0.3315  0.0452
26608W        W42417  10.049  15.153   1.373 -0.0371 -0.0446 -0.1200
26609W        W42418   9.153  12.905   3.229 -0.1050  0.1769 -0.1489
26610W        W42419   3.332   7.805  12.831 -0.2396 -0.1129 -0.1739
26611W        W42420  14.604   8.899  15.650  0.0429  0.1976 -0.0213
26612W        W42421   0.833   9.121  12.796 -0.4831 -0.0741 -0.1787
26613W        W42422   7.763  15.106   3.460  0.1688 -0.1892  0.1582
26614W        W42423  16.796  17.619  15.390 -0.0014 -0.1317  0.0130
26615W        W42424   3.680   6.377  14.010 -0.0257  0.0443  0.2147
26616W        W42425  17.036  11.103  12.018  0.1907 -0.0758 -0.0040
26617W        W42426   1.312  13.982  15.714 -0.0091  0.2259  0.0513
26618W        W42427   1.329  17.548   0.067 -0.1614 -0.0153 -0.2490
26619W        W42428   2.480  16.522   0.873  0.1554  0.1061 -0.0260
26620W        W42429   8.637   3.900   5.923 -0.2814  0.0998  0.2693
26621W        W42430   1.417  10.092   5.407 -0.1810 -0.2655 -0.0708
26622W        W42431  14.536  13.832   2.725  0.0410  0.3036 -0.3082
26623W        W42432  16.905  13.374  14.937 -0.0140  0.0601  0.3027
26624W        W42433  15.081   2.534  15.900 -0.0906  0.0005 -0.0628
26625W        W42434   2.758   1.352  14.501  0.1410 -0.1172  0.1261
26626W        W42435  16.700  15.118  14.523 -0.4616 -0.0093 -0.0576
26627W        W42436  12.912   3.333  12.174 -0.1041  0.2698 -0.0672
26628W        W42437   0.125   0.623  14.223  0.0259  0.1959  0.3676
26629W        W42438   5.205  13.119   1.411 -0.2974  0.2074  0.0421
26630W        W42439  14.363   5.407   3.206  0.1756  0.0800  0.3543
26631W        W42440   7.428   1.053   3.172  0.0708  0.0259  0.0052
26632W        W42441   9.104  15.727   0.072  0.1757  0.0727  0.2015
26633W        W42442  15.927   6.117   0.005  0.2832  0.3326 -0.0046
26634W        W42443   8.345   4.762   1.627 -0.2444 -0.0200  0.2422
26635W        W42444  13.240   0.489  16.039  0.2219  0.0797  0.2755
26636W        W42445   0.766  16.889  16.858 -0.1294 -0.0026 -0.1527
26637W        W42446   1.969  12.081   2.043  0.2718 -0.2574 -0.1563
26638W        W42447   6.624  17.006   1.625 -0.0478  0.0719  0.1201
26639W        W42448  10.695   5.720   3.074 -0.1489  0.1070 -0.3712
26640W        W42449  13.948   9.112  13.112 -0.0277 -0.0530  0.0681
26641W        W42450  15.016   4.059   2.044 -0.2314  0.0202  0.1195
26642W        W42451   9.441   1.823   2.128 -0.3045 -0.0450  0.0641
26643W        W42452   1.468  12.356   3.624  0.1984 -0.0914  0.1191
26644W        W42453  14.779   3.948   6.521  0.0784 -0.0407 -0.4675
26645W        W42454   9.044  11.174   4.895  0.3945  0.0857  0.2491
26646W        W42455   2.398  12.377  13.987 -0.2062 -0.0956  0.0054
26647W        W42456   9.701   4.090   5.774 -0.2805 -0.1873 -0.0283
26648W        W42457  12.037  14.048   5.700 -0.1952  0.0338  0.1232
26649W        W42458  10.116  17.650   4.893 -0.2213 -0.1293  0.2585
26650W        W42459  13.696   1.931   1.253 -0.0652 -0.1430  0.0240
26651W        W42460   4.093   4.686   5.496 -0.1052  0.1284 -0.1787
26652W        W42461  15.714  16.114  12.553  0.0685  0.3660 -0.1068
26653W        W42462  13.104  15.744  10.411  0.2175  0.1765 -0.1090
26654W        W42463   5.976  10.811  13.838 -0.2415  0.0382  0.0258
26655W        W42464   5.227  16.231  16.386  0.1492 -0.1561  0.2556
26656W        W42465  17.451   4.183  15.305 -0.0438 -0.1242  0.2710
26657W        W42466   3.738  13.664   1.397  0.0030 -0.0826  0.0387
26658W        W42467  13.253  10.503  11.810 -0.1844  0.1433 -0.4258
26659W        W42468   2.690  16.421  14.220 -0.1569 -0.0537  0.0918
26660W        W42469  12.130  15.884  16.376  0.2868  0.3780  0.1298
26661W        W42470   6.218  12.647  13.150 -0.1091  0.1151 -0.0355
26662W        W42471   9.684   0.496  16.629  0.0506  0.0606  0.0671
26663W        W42472  15.968  16.072  13.437  0.0354 -0.0072  0.0184
26664W        W42473  15.796   8.395  16.644 -0.4307 -0.3553  0.1876
26665W        W42474   5.140  11.827  13.792  0.0235 -0.3110 -0.4134
26666W        W42475   4.706   5.677   6.256 -0.2180 -0.0767  0.3071
26667W        W42476  15.504   7.796  12.074 -0.0965  0.2004 -0.3528
26668W        W42477   8.111   1.554   1.957 -0.0338  0.1690 -0.0929
26669W        W42478  17.526   3.974   2.956  0.0609  0.3004 -0.0298
26670W        W42479   2.514   5.217   5.102 -0.0964 -0.2066  0.3027
26671W        W42480  15.840  13.419  11.799  0.0854  0.1109 -0.1530
26672W        W42481   6.480  14.312  16.248  0.2037 -0.3358  0.0384
26673W        W42482  16.396  11.400   3.029  0.2998 -0.2144 -0.0272
26674W        W42483  14.149  10.963   2.116  0.1789 -0.0125  0.0820
26675W        W42484  13.239  10.142  12.536  0.2392  0.2445 -0.2164
26676W        W42485  17.359   2.952   4.799 -0.1777 -0.1267 -0.0481
26677W        W42486   3.552   4.201  16.807 -0.1072  0.0052 -0.0567
26678W        W42487  12.900   8.387  13.497  0.2989 -0.1893  0.0155
26679W        W42488  16.810  16.921   0.077 -0.0006 -0.0949  0.2951
26680W        W42489   0.090  16.755  16.747 -0.1752  0.0648  0.3020
26681W        W42490   8.956  12.201   4.534  0.4661  0.0534  0.2379
26682W        W42491  13.835  10.451  12.693 -0.0839 -0.1258  0.0604
26683W        W42492   0.567   3.181   5.143 -0.2076 -0.3816  0.2932
26684W        W42493  15.496   9.061  16.671  0.1451 -0.0936  0.2697
26685W        W42494  11.544  17.069   2.181  0.0234 -0.1610  0.0615
26686W        W42495   2.672   8.514  12.519 -0.1093  0.0408  0.2741
26687W        W42496   4.652  14.142   4.233 -0.0085  0.0841  0.2109
26688W        W42497   3.471   2.875   0.419 -0.1953  0.0091 -0.0576
26689W        W42498  16.766   5.346   5.139  0.4737 -0.2019 -0.0463
26690W        W42499  10.128  12.390  14.267 -0.3049 -0.0915  0.0075
26691W        W42500   8.850  11.916   3.296 -0.0886 -0.0433 -0.0011
26692W        W42501   8.555  16.000   4.060 -0.0177 -0.0678 -0.0267
26693W        W42502   6.197   2.283   2.089 -0.1571 -0.1110 -0.1193
26694W        W42503  17.711  16.433   3.162  0.0762  0.2071  0.2884
26695W        W42504   1.551   4.149   1.699  0.0755 -0.0480 -0.0864
26696W        W42505   1.257   0.851   2.796  0.1552  0.0601 -0.0354
26697W        W42506  17.689  10.570  11.848  0.1731  0.2640  0.1655
26698W        W42507   0.471   4.758  13.222 -0.0309  0.1128  0.1133
26699W        W42508   1.664  12.385   1.276  0.1380  0.0843  0.0953
26700W        W42509   7.345   0.248   1.099  0.1152 -0.1322 -0.0325
26701W        W42510  10.930  13.083   1.866 -0.2727  0.1059 -0.1964
26702W        W42511  17.489   0.852  13.915  0.1011 -0.2341  0.1484
26703W        W42512  10.532  14.530  10.905 -0.1377 -0.1224  0.0652
26704W        W42513   4.774   4.531   1.892  0.3470 -0.0255  0.2826
26705W        W42514   1.812   4.065   4.720  0.2269  0.0650 -0.2468
26706W        W42515  16.286   5.993  13.542 -0.0115 -0.0758 -0.2775
26707W        W42516   9.590  12.380   1.438 -0.2600 -0.1996 -0.2331
26708W        W42517  12.299  12.342   3.334  0.1465  0.0610  0.2937
26709W        W42518   4.484   7.549  15.212  0.0064 -0.2444 -0.1323
26710W        W42519   6.448   8.712   3.455  0.0998  0.0519  0.0383
26711W        W42520   7.407   8.484  12.562 -0.0422  0.2650  0.2037
26712W        W42521  16.196   6.699   2.830  0.0098  0.1997  0.1116
26713W        W42522   9.485  13.363  15.268  0.1473  0.0029 -0.0220
26714W        W42523   8.812   0.457   4.266 -0.2035 -0.2846  0.3675
26715W        W42524  14.901   7.554  11.028  0.1656 -0.0540 -0.0615
26716W        W42525  14.711   8.892   3.609 -0.2457 -0.0237  0.2575
26717W        W42526  10.352   6.116   0.051  0.3309  0.0118 -0.1849
26718W        W42527   9.845   6.805  15.405  0.1328 -0.1316 -0.0656
26719W        W42528   2.969   7.060  12.862 -0.2176  0.0703  0.3867
26720W        W42529   7.468  14.771   4.302  0.1995  0.1225  0.1868
26721W        W42530   5.586   8.287  14.750  0.2900  0.1446  0.0860
26722W        W42531   4.782   2.800  13.210  0.3334 -0.0842  0.0285
26723W        W42532   1.241  13.143  14.341 -0.4451 -0.2891  0.1355
26724W        W42533  13.888   6.569  14.136 -0.0588  0.2869 -0.1556
26725W        W42534  13.829   5.162   4.224 -0.1907  0.0825 -0.1212
26726W        W42535   2.492   6.101  15.423  0.1215 -0.0129 -0.2085
26727W        W42536   3.406   6.092  14.395  0.1741 -0.2281  0.0155
26728W        W42537   0.430   6.420   1.572 -0.1226  0.1079 -0.1608
26729W        W42538   0.138   3.237   1.924 -0.1674 -0.2438 -0.0222
26730W        W42539  10.464  10.422   1.889  0.0023  0.0455 -0.0395
26731W        W42540   6.536   3.431   4.769 -0.0773 -0.1877  0.0098
26732W        W42541   5.571   1.804   5.362 -0.2045 -0.1262  0.1118
26733W        W42542   0.040   7.334  16.669  0.0951  0.0534  0.0019
26734W        W42543  10.456   5.234   5.833 -0.1225 -0.1441  0.2089
26735W        W42544  13.347   3.357  14.499 -0.2046  0.2492  0.1354
26736W        W42545   5.601  17.041   4.888  0.1707  0.0886 -0.0381
26737W        W42546   4.667   2.207   3.226  0.2227 -0.2714  0.2692
26738W        W42547   1.153   0.167  14.993 -0.0623 -0.1041  0.0986
26739W        W42548   0.747  10.170   1.166 -0.1238  0.0734 -0.0314
26740W        W42549   0.117   5.939  13.712 -0.1505  0.1647 -0.0607
26741W        W42550   4.181  11.323  12.663 -0.1081 -0.1269 -0.4482
26742W        W42551   4.318   4.232   5.422  0.0098  0.0317  0.1026
26743W        W42552   4.982   1.521  14.887 -0.0585 -0.0947  0.1118
26744W        W42553  11.879   3.855   0.430  0.2425  0.1373 -0.1904
26745W        W42554  17.473   0.967   6.023  0.1076 -0.1816  0.2228
26746W        W42555  12.053  11.693   3.910 -0.2870 -0.0360 -0.3425
26747W        W42556  13.261   0.559  13.265 -0.0705 -0.2465 -0.0009
26748W        W42557   9.950   1.991  15.450 -0.0985 -0.4226  0.0898
26749W        W42558  14.438   7.545   2.715  0.0029 -0.2091 -0.2433
26750W        W42559   5.917   9.010   3.374  0.1755  0.0966 -0.1524
26751W        W42560   5.788   7.877  12.275 -0.1230 -0.0504 -0.0444
26752W        W42561   2.151   6.628   5.533 -0.3781 -0.2416  0.0362
26753W        W42562   1.239  10.322  13.623  0.3658 -0.2853 -0.3705
26754W        W42563  17.006   2.921   3.758 -0.1029  0.0998  0.0702
26755W        W42564   3.331   0.719  12.508  0.2912 -0.0335 -0.1727
26756W        W42565   4.737   1.226  16.916 -0.2349  0.1548  0.0598
26757W        W42566  15.055   8.496   2.426 -0.0910 -0.1387  0.1394
26758W        W42567  16.165  12.777  12.641 -0.0876  0.1888  0.0452
26759W        W42568   3.672  12.170   3.232 -0.4850 -0.1080  0.0136
26760W        W42569   6.373   0.236   5.376  0.1647  0.0819  0.0317
26761W        W42570  15.566  14.270  16.913  0.7383  0.1451  0.0796
26762W        W42571   8.787   8.742  13.660 -0.0216 -0.1394  0.2085
26763W        W42572   5.247   8.229  12.362 -0.2775 -0.1675  0.0342
26764W        W42573  14.243   0.331   3.642  0.1205 -0.2433  0.1452
26765W        W42574   5.071   7.436   5.508  0.0101 -0.0053 -0.0209
26766W        W42575   4.496  11.101  16.278 -0.2556  0.0833  0.1565
26767W        W42576   9.254   8.680  16.389 -0.1915 -0.0494 -0.1119
26768W        W42577  12.544  17.301   2.072 -0.2438  0.0681 -0.3628
26769W        W42578  12.367   6.249  16.468  0.0959  0.1832 -0.2554
26770W        W42579   8.612   8.868  12.058 -0.1248  0.0577 -0.0363
26771W        W42580  13.503   2.585   3.459  0.0341  0.0769 -0.2158
26772W        W42581   9.991  13.537   1.639 -0.0352 -0.1200 -0.2396
26773W        W42582  11.239   4.549   2.149  0.0503  0.0932 -0.2830
26774W        W42583  13.072   6.747   0.232 -0.2508 -0.1476  0.0137
26775W        W42584  14.539   0.856   3.055  0.1788 -0.2587 -0.0772
26776W        W42585  17.154  17.355   3.336 -0.2229 -0.1330  0.0269
26777W        W42586  17.507   7.193  16.273 -0.0221 -0.0648 -0.0969
26778W        W42587   5.636   2.115   1.478  0.3720 -0.1974  0.1071
26779W        W42588   6.576  17.511   1.959 -0.0972  0.1610 -0.0315
26780W        W42589  15.302  16.200   4.739 -0.4983  0.0568 -0.1166
26781W        W42590  13.003   9.846   4.205 -0.2388 -0.0884 -0.1735
26782W        W42591  15.493   5.876   3.597 -0.3200 -0.2055  0.1052
26783W        W42592   6.222   0.130   2.115  0.1342 -0.0824  0.1273
26784W        W42593   2.723  13.664   1.621  0.1701  0.0057  0.4691
26785W        W42594   9.282   7.780  11.663 -0.2487 -0.1126  0.0522
26786W        W42595   4.018   3.113  13.267  0.0284 -0.2050 -0.1283
26787W        W42596   4.296   7.384   4.172  0.1953  0.1171  0.2847
26788W        W42597   9.773  10.939  16.431 -0.0440 -0.3034 -0.0366
26789W        W42598  14.858   4.894   0.214  0.2805 -0.0445 -0.0145
26790W        W42599  15.155  14.987   1.396  0.1764 -0.0460  0.1506
26791W        W42600  15.700   0.652   0.482 -0.0193  0.2930 -0.0770
26792W        W42601   9.301   2.710   1.835 -0.0795 -0.2685 -0.0560
26793W        W42602  16.045  15.093   2.509 -0.2073  0.1615 -0.0301
26794W        W42603   6.975  16.129   5.487  0.0400  0.1823  0.0510
26795W        W42604  10.125  15.665  15.215 -0.0227  0.1316  0.1068
26796W        W42605   4.845   5.898   0.960  0.3710 -0.5018 -0.3838
26797W        W42606   9.001  10.150  12.726  0.1126 -0.1283 -0.1173
26798W        W42607   4.239   3.749   3.221  0.3254  0.1096  0.1446
26799W        W42608   2.142   1.274   5.587  0.4997  0.2969 -0.2154
26800W        W42609   5.334  15.086  12.137  0.1097 -0.4490  0.0749
26801W        W42610  13.968  11.318  12.028 -0.2889 -0.0611 -0.1287
26802W        W42611  16.750  10.816  15.922 -0.1870  0.2803  0.2327
26803W        W42612  16.530  16.013  16.045  0.0260  0.0077  0.2505
26804W        W42613   4.754  13.496  12.003 -0.0146 -0.2981 -0.0654
26805W        W42614   1.572  14.631  13.229  0.1841  0.1710 -0.0397
26806W        W42615   2.210  13.446  16.668 -0.1268 -0.0139 -0.0102
26807W        W42616   0.747  11.150   0.898  0.1284  0.0719  0.1068
26808W        W42617  16.415  14.417   5.105 -0.2618  0.1808  0.0714
26809W        W42618  15.771   6.810   0.232 -0.1015 -0.0974  0.1291
26810W        W42619   5.928   4.464  16.430  0.1701 -0.0202  0.1218
26811W        W42620  12.869   6.602   6.024 -0.0533 -0.1139  0.2689
26812W        W42621   2.302   6.178   4.403 -0.1421 -0.1318  0.1377
26813W        W42622   3.749  15.488  16.791  0.1322 -0.0120  0.0269
26814W        W42623  11.771   9.881   0.064  0.1849 -0.0399 -0.1788
26815W        W42624   1.714  16.443   1.217  0.0003  0.0824  0.2585
26816W        W42625   4.423   3.904   4.947 -0.1129 -0.3624 -0.2990
26817W        W42626  10.102   8.127   2.117 -0.0131  0.3698 -0.2632
26818W        W42627  10.716  14.586   5.774 -0.2243  0.1211 -0.0911
26819W        W42628   9.000  12.129  11.322  0.3310  0.2748 -0.0769
26820W        W42629   1.543  11.212   4.906  0.1714 -0.0004 -0.1215
26821W        W42630  16.319   5.424  14.342  0.1558  0.3340  0.0420
26822W        W42631  17.728  14.771  13.627  0.0323 -0.0857  0.0877
26823W        W42632   3.173  14.987   2.622  0.1058 -0.0208  0.0525
26824W        W42633   5.460  13.133   2.363 -0.1856 -0.3761 -0.1018
26825W        W42634   3.701   1.584  12.658  0.0626  0.2238  0.0029
26826W        W42635   5.159   5.122  13.753  0.1923 -0.0814 -0.2300
26827W        W42636   9.759   9.948  15.980 -0.2236 -0.0235 -0.1240
26828W        W42637  14.480   6.373  15.736  0.2549  0.2821  0.1471
26829W        W42638  11.066   4.424   1.531  0.0800 -0.1221 -0.0550
26830W        W42639   7.920   0.080  10.952  0.2087 -0.0551 -0.0450
26831W        W42640   1.702   7.445   5.598  0.0738  0.1125  0.2407
26832W        W42641   3.260  11.159  12.534  0.0261  0.2571  0.0231
26833W        W42642   2.941  13.696   3.910 -0.0002  0.2562  0.0700
26834W        W42643   4.753  14.448  15.582  0.1874 -0.1691 -0.0127
26835W        W42644   0.715  10.765   4.585  0.1335 -0.1854  0.3921
26836W        W42645   8.876   5.753   4.392 -0.0336 -0.1527  0.2301
26837W        W42646   7.037   8.274   1.025 -0.1083 -0.0291  0.0612
26838W        W42647   8.084   2.465   4.907 -0.0227  0.3265  0.2854
26839W        W42648   1.826   9.103  12.282  0.0943 -0.0215  0.1472
26840W        W42649  15.735   0.552   5.275 -0.1081 -0.1815  0.0523
26841W        W42650   5.798   5.031  16.351 -0.1532  0.0352  0.2048
26842W        W42651   2.069   7.760  14.588 -0.3217  0.1985  0.0209
26843W        W42652  11.088  15.241   5.031  0.2751 -0.0586  0.2711
26844W        W42653  13.544   2.331   5.172 -0.0431 -0.1685  0.2265
26845W        W42654  12.294   4.580   6.090  0.1153  0.0178 -0.1010
26846W        W42655  13.098  14.263  11.521  0.1814 -0.2877 -0.1048
26847W        W42656  14.779   4.727   3.800  0.0260 -0.1872  0.0189
26848W        W42657  12.149  13.425   1.246 -0.1075  0.0212  0.0087
26849W        W42658   7.932  15.595  11.315 -0.0261  0.0633  0.0207
26850W        W42659   5.826  12.886   2.606 -0.1193  0.0701 -0.1744
26851W        W42660  17.023   2.399   1.140  0.0982 -0.0350  0.2923
26852W        W42661   8.876  13.390  15.295  0.2944 -0.0543  0.0482
26853W        W42662  16.793  10.058   4.360  0.2810  0.3474 -0.0506
26854W        W42663   9.016   1.964  11.736 -0.2180 -0.2434 -0.1246
26855W        W42664  16.371   9.603   5.096  0.0737 -0.0848  0.1574
26856W        W42665  12.139   8.488   1.760 -0.1158  0.0799  0.2538
26857W        W42666  12.195  10.719   0.051  0.2851 -0.2979  0.0096
26858W        W42667  11.395  10.679   0.581  0.0361  0.0696 -0.0280
26859W        W42668   6.498  13.980   1.839  0.0510  0.2386  0.0108
26860W        W42669   9.467   1.790   0.429  0.0210  0.0982  0.1211
26861W        W42670   5.282  15.562  16.862 -0.2887  0.0011 -0.2800
26862W        W42671   8.442  15.059  14.600 -0.2424  0.2281  0.2013
26863W        W42672   7.299   5.622  10.757  0.1991  0.1400 -0.1164
26864W        W42673   4.335   9.322   2.947  0.2010 -0.0756 -0.0477
26865W        W42674   6.866  13.440   4.619 -0.1003 -0.0386 -0.0463
26866W        W42675   7.582   6.396   0.303  0.1197 -0.0936 -0.0368
26867W        W42676  11.704  15.720  13.336 -0.0194  0.2531 -0.0090
26868W        W42677   1.474  17.681   1.886  0.0250  0.0275  0.2136
26869W        W42678   9.194   1.329   3.536 -0.0815 -0.2611  0.2977
26870W        W42679   3.841   1.980   3.737 -0.1097  0.0352 -0.2505
26871W        W42680   3.408   8.979   4.182 -0.1196  0.0245 -0.2053
26872W        W42681  14.353  15.707   2.943  0.1093  0.0984 -0.2383
26873W        W42682  10.052   8.571   3.612 -0.2865  0.1593 -0.2087
26874W        W42683  11.452  13.619   0.980  0.0977  0.1814  0.1664
26875W        W42684   2.709  15.186  11.866 -0.0885  0.2126 -0.0397
26876W        W42685  17.379   8.652  11.980  0.0042  0.1576 -0.0425
26877W        W42686  10.701  17.464  12.543  0.2113  0.1026  0.1271
26878W        W42687   7.269  14.997  12.036  0.1300  0.1331  0.0994
26879W        W42688  14.581  17.068  15.472  0.1284  0.0936 -0.0452
26880W        W42689  14.050   2.494   5.050 -0.0904  0.3213  0.0064
26881W        W42690  12.878   6.627   4.578  0.1840  0.1197 -0.0969
26882W        W42691   3.473   3.732  12.522 -0.0916 -0.1991 -0.1269
26883W        W42692   5.610   0.941  12.805  0.2027 -0.2743 -0.1501
26884W        W42693   3.907  16.797   4.802 -0.1029 -0.0728  0.3576
26885W        W42694   5.584  16.998  14.017 -0.1799  0.2537 -0.0659
26886W        W42695  16.228   8.436  16.959  0.1141 -0.2443  0.1182
26887W        W42696   0.321  12.001  13.676  0.1195 -0.4651  0.3392
26888W        W42697  13.894  12.872   0.888 -0.1004  0.2200 -0.1496
26889W        W42698   7.186   3.245  14.773 -0.0915 -0.3079 -0.1897
26890W        W42699  15.374   0.185   2.660  0.0999  0.1675 -0.1725
26891W        W42700  15.358  16.409   1.193 -0.0776  0.0847  0.0716
26892W        W42701   4.578  10.245  11.923  0.2652 -0.0767 -0.1864
26893W        W42702   4.486   1.156   4.442 -0.2590 -0.2353 -0.0779
26894W        W42703   6.369  10.720  16.887  0.1230 -0.0058  0.1294
26895W        W42704   1.062  11.990   2.591  0.0808  0.3848  0.0466
26896W        W42705  11.850  15.702   2.291 -0.0126  0.4177  0.1090
26897W        W42706   6.205  12.154  13.079 -0.1402 -0.1892 -0.1815
26898W        W42707   1.904  17.477   3.818 -0.2542 -0.2375  0.1365
26899W        W42708   2.641  14.453  15.899 -0.1171 -0.2285  0.0139
26900W        W42709  10.070   8.242  16.292  0.0008  0.0557  0.0350
26901W        W42710   2.286  17.010  15.015 -0.3243  0.1441 -0.0533
26902W        W42711  17.029  10.363   0.326 -0.1636  0.1045  0.2775
26903W        W42712  11.460   4.365  14.138 -0.1530  0.1346 -0.2455
26904W        W42713  17.701   1.334   5.158  0.1125  0.0551 -0.1816
26905W        W42714   0.422   2.397   2.956  0.5288 -0.1185  0.0491
26906W        W42715  11.390   5.062   2.837 -0.1405 -0.1836  0.0688
26907W        W42716   5.589   3.230   0.188  0.4326 -0.1862  0.1615
26908W        W42717  15.763   2.319  11.837 -0.1046 -0.4396  0.2860
26909W        W42718  17.651  12.073   4.676 -0.3670  0.0281 -0.1097
26910W        W42719   8.501   5.819  13.712 -0.1426 -0.3742 -0.0356
26911W        W42720   4.895  17.296   3.949  0.0903  0.0018  0.0036
26912W        W42721   4.689   7.917  11.567 -0.1651 -0.1142 -0.2444
26913W        W42722  10.442   6.893   1.950 -0.1658 -0.2559 -0.1165
26914W        W42723   7.333   8.451  16.154  0.0468 -0.0490  0.2051
26915W        W42724  15.189   0.531   3.316 -0.1724  0.1593 -0.2070
26916W        W42725  16.708   0.596   5.646 -0.2117 -0.2294  0.0024
26917W        W42726   7.443  10.239   0.928 -0.0553  0.1810  0.3431
26918W        W42727  15.293  11.584   3.551 -0.2550 -0.1753 -0.0007
26919W        W42728  14.080   9.192   1.175 -0.0023 -0.2012 -0.1404
26920W        W42729  10.443   1.223   3.842 -0.2277  0.1061 -0.0918
26921W        W42730  14.603  16.061   0.080  0.2096  0.2082 -0.0906
26922W        W42731   8.990   0.006   5.566 -0.1889 -0.0215  0.1257
26923W        W42732  14.354   1.430   3.626  0.0069  0.1214  0.1028
26924W        W42733   7.985   4.875   3.070  0.4144 -0.1113 -0.0548
26925W        W42734  14.218   1.560  16.805  0.2928 -0.0213 -0.0609
26926W        W42735   8.697   3.688  13.642 -0.0587 -0.2626 -0.0600
26927W        W42736   6.408  16.762  15.683  0.2675  0.0298  0.0110
26928W        W42737   2.703   1.703  13.101 -0.2752 -0.2857 -0.1721
26929W        W42738   5.102  17.239  11.731 -0.0391  0.2450  0.1526
26930W        W42739  13.600   8.105   1.248 -0.1414 -0.1490  0.2735
26931W        W42740   5.931   7.241  12.211 -0.3610 -0.0270  0.0852
26932W        W42741   1.726  15.274   6.066 -0.2420  0.1785 -0.1864
26933W        W42742  14.428  13.558  12.400  0.2702  0.1498  0.0302
26934W        W42743  17.038  14.305  11.162  0.2741 -0.2820 -0.0691
26935W        W42744  16.535   9.243  14.759 -0.2775 -0.1552  0.2264
26936W        W42745   1.007   2.782  16.923 -0.0720  0.1284 -0.4107
26937W        W42746   4.111  12.938   2.997 -0.1239 -0.1577 -0.1640
26938W        W42747   2.225   0.789   2.538  0.1261  0.3496 -0.1098
26939W        W42748   5.942   8.670   2.958 -0.0295 -0.2449  0.0506
26940W        W42749  12.644   2.591   6.347 -0.3763 -0.0578 -0.1598
26941W        W42750   5.561   1.216  16.991 -0.2764  0.1785  0.2637
26942W        W42751   0.302  16.046  12.648 -0.1311  0.1336  0.2748
26943W        W42752  14.185   6.263  13.827 -0.0776  0.0371  0.1479
26944W        W42753   6.962   1.996   0.723 -0.1951  0.3030  0.0045
26945W        W42754  11.486   5.319  16.853  0.0455 -0.1460 -0.0856
26946W        W42755   4.962   7.352  12.572  0.0409  0.0160 -0.3772
26947W        W42756   6.510   6.123   3.109  0.1436  0.3358 -0.0366
26948W        W42757   7.664   8.147  16.374 -0.1995  0.0317  0.1279
26949W        W42758   3.642  13.229   2.190  0.0022  0.2426  0.3607
26950W        W42759  12.001   0.068   2.629  0.0850 -0.2175  0.0694
26951W        W42760   3.194   2.309   1.523  0.1326 -0.1346 -0.0422
26952W        W42761  11.108  16.041  15.160  0.2959 -0.1096 -0.0976
26953W        W42762   1.120  10.922  11.094 -0.0996 -0.1709  0.0910
26954W        W42763  17.165   7.424  13.777 -0.1305 -0.1392  0.0261
26955W        W42764   7.534   6.563  14.189 -0.0364 -0.1046  0.1194
26956W        W42765   3.784  13.765   3.339  0.2402  0.3702 -0.0334
26957W        W42766   8.200   5.505  14.573 -0.0576 -0.0889  0.0163
26958W        W42767   8.590   7.152   0.764 -0.2975  0.0770  0.1481
26959W        W42768   7.149   6.518   0.558  0.1239 -0.1843  0.0074
26960W        W42769   3.036   9.770  13.923 -0.0544 -0.2857  0.0816
26961W        W42770  17.230   3.571   6.160  0.2975  0.0975 -0.0059
26962W        W42771  14.124   5.256   6.100  0.1528  0.2261  0.0135
26963W        W42772  11.992  15.306  11.762  0.0045  0.2915  0.1332
26964W        W42773   5.595   9.809   5.998 -0.2541  0.0136  0.2077
26965W        W42774  16.249  17.243   2.774 -0.1175 -0.1939  0.1289
26966W        W42775  17.348   4.168   0.216  0.0446 -0.1005 -0.0792
26967W        W42776  10.900   4.627  13.549 -0.0179 -0.1145  0.0314
26968W        W42777  17.496   7.333   3.524 -0.1039  0.2021  0.2223
26969W        W42778   7.652   6.924  13.220 -0.1533  0.0607 -0.3524
26970W        W42779  16.562  15.842   5.270 -0.1057  0.1880 -0.1695
26971W        W42780   9.359  16.138  15.151 -0.1130 -0.0944  0.0549
26972W        W42781  15.570  10.309  13.794 -0.0318  0.2156 -0.0375
26973W        W42782  17.349   2.672  14.521 -0.1292 -0.0517  0.2762
26974W        W42783   5.283  10.622   5.189 -0.0733 -0.1489  0.0580
26975W        W42784   6.323  10.056  12.502 -0.0904  0.1504  0.0191
26976W        W42785   1.891  13.836   1.971 -0.0154  0.2521  0.2593
26977W        W42786   1.091  13.452  13.696 -0.5991  0.0222 -0.0995
26978W        W42787  10.378  13.468  16.502 -0.2455 -0.1276  0.0095
26979W        W42788   6.624  12.103   3.319 -0.0395  0.0622  0.1746
26980W        W42789  12.828  17.304   5.420  0.2989  0.2164 -0.0103
26981W        W42790   2.956  12.076  15.732  0.1955 -0.2822 -0.1479
26982W        W42791  14.059   3.979   3.796 -0.0080 -0.1876  0.1642
26983W        W42792   4.542   0.187  15.267  0.3212 -0.0285  0.0687
26984W        W42793   7.255  15.438  13.305  0.1398  0.1824 -0.3112
26985W        W42794   0.083  14.608   4.761  0.1977 -0.0777 -0.0826
26986W        W42795   9.428   7.403  12.888 -0.0621  0.0792  0.0093
26987W        W42796   5.194  16.597  13.728  0.0752 -0.0216 -0.0526
26988W        W42797  12.857  14.045   2.553  0.0483 -0.1268  0.0124
26989W        W42798  13.973   6.808   0.525  0.2013  0.0450  0.0557
26990W        W42799   1.804  13.971  15.598  0.0113  0.1565 -0.1078
26991W        W42800  10.518  17.661  16.950 -0.0354 -0.2320  0.1329
26992W        W42801  16.370  17.448  12.625 -0.1251 -0.2706  0.2914
26993W        W42802   1.709   6.215  16.439 -0.0533 -0.0104 -0.1734
26994W        W42803   0.015   3.383   4.003 -0.0661 -0.0990 -0.2274
26995W        W42804   2.131  14.142   5.137  0.0952  0.0597 -0.1769
26996W        W42805  12.711   9.389   3.379  0.2039  0.0385  0.0511
26997W        W42806   9.723  17.538   2.320  0.0262  0.0448  0.0723
26998W        W42807   3.683   5.251   5.346 -0.1769 -0.2873  0.0537
26999W        W42808   7.991  15.701  12.337  0.1411 -0.2270  0.0989
27000W        W42809   6.845   1.008  14.408 -0.0203 -0.0277 -0.1030
27001W        W42810  10.567  12.496   3.425  0.1663  0.0738 -0.1744
27002W        W42811   7.366  10.338  12.532 -0.0162  0.3483 -0.2212
27003W        W42812  10.498  15.932  11.492 -0.1383  0.1750  0.0848
27004W        W42813  10.795   8.796   3.936 -0.0255 -0.2944  0.0108
27005W        W42814   3.529   5.755   1.679 -0.1660  0.0055  0.1198
27006W        W42815   6.001   0.407  16.572  0.0733 -0.2328  0.1417
27007W        W42816  17.474   8.033   5.566 -0.0209  0.0007  0.0387
27008W        W42817   6.993  13.980   4.645 -0.1289 -0.0901 -0.0342
27009W        W42818  13.305   7.118   3.425  0.1660  0.0422  0.3639
27010W        W42819  15.294  11.672  15.284 -0.1515  0.0002 -0.1054
27011W        W42820  14.695   9.484  16.734  0.2644 -0.0417 -0.1131
27012W        W42821   4.288   5.172   3.168 -0.1236  0.2471 -0.2339
27013W        W42822  13.328  17.419   2.602  0.2114 -0.2169 -0.1209
27014W        W42823  13.324  13.105   3.867 -0.0356  0.0545 -0.1428
27015W        W42824   1.522   4.013   3.687  0.3838 -0.1875  0.0174
27016W        W42825   8.174   8.073   2.946  0.2625  0.0505  0.0281
27017W        W42826  13.046   3.940  12.338 -0.1219  0.0435  0.1641
27018W        W42827   4.319  12.988   4.324 -0.0704 -0.2371 -0.1932
27019W        W42828   3.968   4.375  15.386 -0.0151 -0.0924 -0.2221
27020W        W42829  12.560   8.789   5.002 -0.0454 -0.3386  0.1962
27021W        W42830   8.651   3.558   1.241  0.3348  0.2773  0.0854
27022W        W42831   7.667   4.226   2.247 -0.1546 -0.2528 -0.0884
27023W        W42832  15.162   5.389   2.045  0.1100 -0.1334 -0.1026
27024W        W42833   7.257   6.029   0.170 -0.0656 -0.2638  0.0448
27025W        W42834  12.488  11.211  15.836  0.2964 -0.1754  0.0294
27026W        W42835  14.203   5.264  13.690  0.0072  0.0004 -0.2423
27027W        W42836   3.826  11.330  16.113  0.0268 -0.2410  0.0783
27028W        W42837   5.924  16.995  15.361 -0.0293  0.0142  0.2474
27029W        W42838   7.203   0.175  15.914  0.1483 -0.0986 -0.2288
27030W        W42839  13.492   1.025  11.621 -0.0817 -0.0381 -0.1873
27031W        W42840   8.909   5.072   3.015 -0.1963 -0.0686  0.1919
27032W        W42841  14.607   8.156   2.489  0.2961  0.1933 -0.0319
27033W        W42842   1.448  12.296   2.790  0.0417  0.0855 -0.4946
27034W        W42843   8.918   0.188  11.217  0.1678  0.0939  0.2362
27035W        W42844  10.652   9.695   3.660 -0.0739 -0.2944 -0.1331
27036W        W42845   1.614   7.049  16.795 -0.2243  0.0503 -0.0985
27037W        W42846   9.786  16.232   0.178  0.1079 -0.1080 -0.0462
27038W        W42847  16.851  12.624   3.098  0.2486 -0.1059  0.2753
27039W        W42848  14.904  15.689   3.199  0.1560  0.1969 -0.0385
27040W        W42849  11.382   8.551  14.202 -0.1175  0.1935 -0.3333
27041W        W42850  10.251   2.871   5.135  0.1300 -0.3321  0.0170
27042W        W42851  11.093  11.207  15.309  0.0951  0.3152  0.2046
27043W        W42852   4.963   3.383  13.168  0.0920  0.1609  0.1027
27044W        W42853  13.868   9.598   0.145 -0.3092 -0.6094  0.0298
27045W        W42854   1.258   4.146   4.206 -0.1049 -0.1036 -0.0319
27046W        W42855  14.095   0.810  14.016 -0.0300  0.1850  0.4871
27047W        W42856   8.587  13.586  14.935 -0.2676 -0.0853  0.0353
27048W        W42857   0.132   1.874  12.836  0.0031 -0.1229 -0.1626
27049W        W42858   3.442  10.693   4.012 -0.0139  0.0878  0.0701
27050W        W42859   5.040   6.221   2.720 -0.0203 -0.0326 -0.0307
27051W        W42860  10.825  13.381  12.365  0.0733 -0.3103 -0.1878
27052W        W42861  13.857   7.974   1.674 -0.0679  0.1250  0.1383
27053W        W42862   1.051  12.196  15.722  0.0823 -0.1586  0.1979
27054W        W42863   3.894   8.656   3.902  0.2679  0.2426 -0.0609
27055W        W42864  13.064   5.538   1.990  0.1988  0.1737 -0.1350
27056W        W42865   0.239   4.179  14.008  0.0367  0.1647  0.2590
27057W        W42866   5.250  15.530  11.823  0.1877  0.1176 -0.1846
27058W        W42867  10.964   2.890  14.483 -0.0879 -0.2288 -0.2283
27059W        W42868   4.717   0.780  11.320 -0.0001 -0.3214 -0.3430
27060W        W42869   2.957   9.169  11.802  0.2745  0.0061  0.0408
27061W        W42870  17.090   4.554   2.007 -0.2750 -0.1472  0.1708
27062W        W42871  17.672  13.628  13.065 -0.2586  0.2871 -0.0993
27063W        W42872   6.843   3.960  15.485  0.0740  0.2219  0.0998
27064W        W42873   2.733   9.865  12.429 -0.1357 -0.2317  0.1190
27065W        W42874  15.810  10.740   3.861  0.1157 -0.2629 -0.0408
27066W        W42875  10.639   0.438   0.009  0.1750 -0.0203  0.2745
27067W        W42876   0.783   9.213   3.143  0.0507 -0.1345 -0.2523
27068W        W42877  16.899   9.167  16.341 -0.0633  0.1638 -0.1398
27069W        W42878   7.043   0.769   4.233 -0.0842 -0.2843  0.1864
27070W        W42879  13.183   7.295   2.024 -0.1286  0.2273 -0.3304
27071W        W42880  13.945  17.585  14.301 -0.1740  0.1856  0.0246
27072W        W42881   5.916   1.850   5.000  0.0145 -0.2486  0.1038
27073W        W42882   6.799   9.508   4.166  0.0242  0.2158 -0.1288
27074W        W42883   8.659   2.665  14.172  0.1167  0.0215  0.1541
27075W        W42884   7.500  11.830  14.185  0.1607 -0.3005 -0.3950
27076W        W42885  13.767  13.140  14.725 -0.0536 -0.1164 -0.1792
27077W        W42886   7.684   2.146   2.873 -0.0404  0.2406 -0.1587
27078W        W42887  12.832   1.045  13.760 -0.0188  0.1371  0.3954
27079W        W42888   3.292   1.289   5.696  0.0950  0.1426  0.0660
27080W        W42889  16.353   3.835   4.914 -0.3765  0.1793 -0.1119
27081W        W42890   6.295  11.137  13.986  0.0199  0.1787 -0.0450
27082W        W42891   4.394   7.926  12.786 -0.1732  0.0143 -0.1424
27083W        W42892  13.607  17.714  12.524  0.1448 -0.0308 -0.2897
27084W        W42893   3.607  12.748  13.473 -0.2679 -0.0438  0.0864
27085W        W42894   7.204  14.544   3.937  0.1260 -0.0529  0.1331
27086W        W42895  11.581  12.906   3.843  0.0275  0.0418  0.0743
27087W        W42896   8.594  15.149   1.147 -0.0183  0.0122  0.0258
27088W        W42897   6.161   5.399  16.261 -0.1441 -0.2686  0.1704
27089W        W42898   8.557  16.471  12.583  0.2949 -0.0145 -0.1956
27090W        W42899  17.315  16.518  12.709  0.1309  0.2931 -0.2334
27091W        W42900   5.677  17.736   4.250  0.0063  0.1086 -0.0425
27092W        W42901  11.487  15.296   0.647 -0.0051 -0.0360  0.2950
27093W        W42902   3.467   6.360   0.494  0.2635  0.1230  0.1092
27094W        W42903  10.430  12.830   1.559 -0.1183  0.0323  0.2303
27095W        W42904  10.747  15.920  13.599  0.2180 -0.2006 -0.0094
27096W        W42905   8.443   5.523   3.593  0.0329  0.3474  0.0062
27097W        W42906   6.866   9.769   1.150 -0.0695 -0.0558  0.2873
27098W        W42907   4.649   9.592   2.552  0.1942  0.3889  0.1600
27099W        W42908   8.462  13.197  14.709 -0.1123  0.0693  0.0799
27100W        W42909  15.168  12.528  15.782  0.4011  0.2583  0.1361
27101W        W42910  13.192  16.953   3.561 -0.0266  0.1951  0.1366
27102W        W42911   7.441   6.701  14.621 -0.0797 -0.1993  0.1711
27103W        W42912   1.225   4.348   5.909  0.0340  0.0890  0.2286
27104W        W42913  17.106  11.058  16.159  0.2685  0.0268 -0.0080
27105W        W42914   8.461  16.612  15.486 -0.2865 -0.0433  0.0116
27106W        W42915   8.421   4.124   0.538 -0.0605 -0.2606  0.0238
27107W        W42916   4.902  10.160   0.294 -0.1254  0.1811 -0.0674
27108W        W42917  16.416   7.305   4.903 -0.0920 -0.0332  0.0968
27109W        W42918  17.058   6.348   0.844  0.0629 -0.2184  0.0189
27110W        W42919  11.577  14.074   5.511 -0.1478  0.2129  0.5377
27111W        W42920   5.950  16.496   1.715  0.0831  0.2419  0.2664
27112W        W42921  15.965   2.452  14.251  0.2848  0.0847 -0.1183
27113W        W42922   5.461  12.765  16.246  0.0639 -0.0368  0.1381
27114W        W42923   7.220   3.806  16.419  0.2256 -0.0617 -0.0892
27115W        W42924   8.735   9.532   3.466  0.3197  0.0701 -0.1732
27116W        W42925  12.320   4.820  13.920 -0.0732  0.2543 -0.0067
27117W        W42926  13.728   5.572   6.066  0.0050 -0.0415 -0.0703
27118W        W42927   0.209   6.043  14.732 -0.0044  0.0749 -0.1501
27119W        W42928   1.958   9.768   1.533 -0.0751  0.0622  0.2372
27120W        W42929   1.224  11.409  15.139 -0.1091  0.4158 -0.1673
27121W        W42930   0.295   6.886  11.950  0.0694 -0.0679 -0.0330
27122W        W42931   9.300  12.056  12.490 -0.1557  0.0866 -0.0659
27123W        W42932  15.881  12.155   3.417  0.1673 -0.4685 -0.1514
27124W        W42933   6.147  11.042   3.247 -0.3018  0.2508  0.1699
27125W        W42934  10.036  15.463  14.654  0.2542 -0.1173 -0.1610
27126W        W42935  15.081   8.962  14.035  0.2614  0.2015  0.0612
27127W        W42936  16.144   7.031  12.263 -0.0794  0.1893 -0.1346
27128W        W42937   1.921   1.630  12.316 -0.1023 -0.1166  0.0588
27129W        W42938   2.676   0.511  12.256 -0.0884  0.1090 -0.1219
27130W        W42939   4.216  17.432  14.013  0.2873 -0.2620  0.1841
27131W        W42940  12.092   0.207   0.420 -0.0101 -0.0370 -0.0782
27132W        W42941   7.167  13.714   3.285 -0.1142 -0.1089 -0.0629
27133W        W42942  10.035   3.104  15.532  0.1255 -0.0263  0.1313
27134W        W42943  11.572   9.710  11.039  0.0461 -0.0379  0.1332
27135W        W42944  15.106   7.453   6.342 -0.0387 -0.2018 -0.1838
27136W        W42945  17.172   3.312  16.033  0.1877 -0.0951  0.0349
27137W        W42946   9.544  15.623   2.217 -0.1333 -0.2821  0.0478
27138W        W42947  16.242  11.831   1.117  0.0015 -0.2539  0.0699
27139W        W42948   5.436  12.752   1.041  0.1135  0.0726 -0.5532
27140W        W42949   6.355   5.945   0.518 -0.0259 -0.1028  0.0054
27141W        W42950   7.927  10.445  16.352  0.4661 -0.0208  0.2767
27142W        W42951  16.878  13.446   0.599  0.0367 -0.1721  0.3490
27143W        W42952   4.011  14.321  15.960  0.4975 -0.1390 -0.0431
27144W        W42953  12.533   1.450   4.175  0.0100 -0.0639  0.0089
27145W        W42954  15.266   7.065  13.777  0.0206  0.1858 -0.0543
27146W        W42955  16.197   0.006   2.622 -0.2413  0.2223 -0.0913
27147W        W42956   0.978   6.106   2.488 -0.3780  0.2728  0.0233
27148W        W42957  15.833  13.358   5.207  0.2376 -0.4992  0.1010
27149W        W42958  10.651   4.367   1.795 -0.0140 -0.0653  0.0929
27150W        W42959   2.295  11.630   4.307  0.3220  0.0617 -0.1934
27151W        W42960  17.021   8.017  16.107 -0.0282 -0.0833 -0.1582
27152W        W42961   1.568  14.801   3.330  0.0945 -0.1164  0.0100
27153W        W42962  14.583  17.562  12.365 -0.3845 -0.1453 -0.0657
27154W        W42963   5.000   1.603  12.243  0.0841  0.2727 -0.2391
27155W        W42964  13.565   7.434  10.935 -0.0356  0.4580  0.2503
27156W        W42965  14.933   7.241  12.203  0.0678  0.0153 -0.0430
27157W        W42966   9.421   0.940   4.924  0.1397 -0.0104 -0.3188
27158W        W42967  14.243   5.895  16.454 -0.0619  0.0319  0.0459
27159W        W42968   8.916  10.603   5.041 -0.0012  0.1591 -0.0128
27160W        W42969   3.669  14.257  13.115  0.2160 -0.3621 -0.2005
27161W        W42970   0.804  10.435  13.035 -0.0962 -0.1396 -0.1828
27162W        W42971   9.183   0.159  13.634  0.0030  0.2627  0.0783
27163W        W42972   6.756   5.695   5.320 -0.1246  0.1243 -0.3232
27164W        W42973  12.385   2.570  13.373  0.3467 -0.1697  0.1149
27165W        W42974  10.008  14.404   2.158  0.1502  0.0664  0.0237
27166W        W42975  17.395  12.136   2.016 -0.2623  0.1847 -0.0361
27167W        W42976   3.955   0.471  16.091  0.0669 -0.0931 -0.1367
27168W        W42977   6.337   5.606   3.038 -0.0002  0.1936 -0.0508
27169W        W42978   8.188   8.020  11.994 -0.2045  0.0027 -0.3160
27170W        W42979   6.611  15.941   0.060 -0.2815 -0.0057  0.3437
27171W        W42980  15.669   6.125  12.371 -0.0878  0.0568 -0.0615
27172W        W42981  10.661  17.656   4.842  0.1723 -0.0487 -0.4465
27173W        W42982   6.677   9.067  16.008  0.2335  0.0089  0.1759
27174W        W42983   9.719   3.435   0.222 -0.1236 -0.1519  0.0720
27175W        W42984  11.654  16.360  13.498  0.3368 -0.2464  0.0779
27176W        W42985  16.660   2.560   1.543  0.1340  0.2035 -0.1501
27177W        W42986   3.887  10.580  16.638 -0.1162 -0.2088 -0.1902
27178W        W42987   6.556  15.630  15.090 -0.1131  0.0157  0.1336
27179W        W42988   2.997   2.258  14.023 -0.1505 -0.0223 -0.0202
27180W        W42989   8.016  13.380   0.763  0.1854 -0.0220 -0.0859
27181W        W42990   6.285  14.667   3.632 -0.1097 -0.0693  0.1634
27182W        W42991   3.795  16.965   2.698  0.1714 -0.0423  0.0966
27183W        W42992  15.980  14.161   5.041  0.0610  0.1314 -0.1245
27184W        W42993  10.038  15.393   2.298  0.0628  0.1501 -0.1949
27185W        W42994  14.333   5.865   5.443  0.0273 -0.3054  0.1823
27186W        W42995  16.451   7.659   3.454 -0.0625 -0.2560 -0.0250
27187W        W42996   9.602  14.163   0.010  0.1796 -0.3387  0.2788
27188W        W42997   6.233  10.259  16.073  0.0404  0.3325 -0.1887
27189W        W42998   3.784   6.340   0.834 -0.0773  0.3656  0.0513
27190W        W42999  14.073   3.362   3.004 -0.0423 -0.2326  0.0177
27191W        W43000  16.079  11.834  12.003 -0.0094 -0.0732 -0.0118
27192W        W43001   8.689   7.804  12.203 -0.3696  0.2363 -0.2713
27193W        W43002  13.231   4.191   6.449  0.0294  0.0000 -0.0722
27194W        W43003   7.123  11.609   2.163 -0.1672  0.0666 -0.1633
27195W        W43004  15.984  12.328  11.804 -0.2152  0.1161  0.0772
27196W        W43005   2.187  15.150  16.130 -0.2080 -0.0817  0.0155
27197W        W43006   2.575  10.519   2.384  0.0277  0.1111 -0.1423
27198W        W43007  17.571   3.657  15.202  0.0070 -0.1473 -0.1001
27199W        W43008   4.419   3.137   5.976 -0.2358  0.0516 -0.2681
27200W        W43009   9.640   6.886  14.748  0.0633  0.4441  0.2235
27201W        W43010  14.002  16.495   2.655  0.1072  0.5793 -0.0066
27202W        W43011  12.736   5.651  13.344 -0.3115 -0.0831  0.1059
27203W        W43012   7.503  16.913   4.484  0.0356  0.0937 -0.0503
27204W        W43013   0.453   1.792   1.666 -0.3014  0.1432  0.4038
27205W        W43014   3.820   3.990   0.706 -0.0567 -0.0942 -0.0524
27206W        W43015   5.743  12.966  16.619 -0.0128 -0.1133 -0.0764
27207W        W43016   6.373  12.566  11.541  0.0228  0.0840 -0.0993
27208W        W43017  13.349   4.457   5.082  0.2808 -0.2688 -0.1776
27209W        W43018   8.405  16.940  15.941  0.2461  0.1917  0.1870
27210W        W43019  16.541   2.673  12.897  0.2799  0.3731  0.0410
27211W        W43020   9.581   6.124   3.854 -0.3842 -0.3485 -0.2301
27212W        W43021   7.322   4.366   0.573  0.2253 -0.2411  0.0071
27213W        W43022  13.708   2.600   5.569 -0.0433 -0.1577 -0.1097
27214W        W43023   2.881   8.769   2.369  0.1723 -0.0810  0.1082
27215W        W43024  11.980   6.423   4.218 -0.1067  0.1460  0.1264
27216W        W43025  11.290   5.698  15.528  0.1002  0.2221  0.4339
27217W        W43026  10.447   8.368   4.988  0.1641  0.0517  0.0132
27218W        W43027   2.380  15.099   2.625 -0.1375  0.2137 -0.1815
27219W        W43028   1.653  13.788   5.683 -0.1846 -0.2408 -0.0844
27220W        W43029   3.200   0.828   1.516  0.1887  0.1770 -0.2163
27221W        W43030  15.525   9.015  13.714  0.1105 -0.0309 -0.2409
27222W        W43031  17.731   0.541   2.802  0.0284  0.0142 -0.0107
27223W        W43032   0.577   9.876   0.604  0.1797 -0.1535  0.1973
27224W        W43033  14.545   5.943  14.071 -0.1085  0.0138 -0.0722
27225W        W43034  15.807  17.453   2.517  0.2770  0.2304 -0.2367
27226W        W43035   9.254   1.895   5.467 -0.0644  0.2666 -0.2248
27227W        W43036  11.724   4.413  16.423 -0.0431  0.2724 -0.0324
27228W        W43037  11.491  11.526   5.278  0.2521  0.0582  0.3589
27229W        W43038   4.757   0.396  13.511 -0.0614  0.2288 -0.0202
27230W        W43039   7.843  12.119   1.834 -0.1374 -0.4764 -0.1417
27231W        W43040  14.906  12.232   3.535  0.1224 -0.0284 -0.2011
27232W        W43041  14.062  15.426  12.400 -0.0511  0.2031  0.1955
27233W        W43042  11.333  17.025  11.844  0.1341 -0.1046 -0.1856
27234W        W43043  16.174  16.739  15.914 -0.0834 -0.0149 -0.3152
27235W        W43044   0.001   2.646  15.862 -0.1130  0.1187  0.2856
27236W        W43045   0.593  12.940   1.309  0.3647  0.2605  0.1480
27237W        W43046   0.956   6.977  12.636 -0.1304  0.0727  0.0916
27238W        W43047  11.846  10.498  14.763  0.2695  0.0642 -0.1095
27239W        W43048  17.622  11.423  14.942 -0.1093  0.3732  0.0104
27240W        W43049   2.563   8.130   1.776  0.4209  0.1051 -0.3086
27241W        W43050  10.402  17.369   1.661 -0.0359 -0.2593  0.0721
27242W        W43051   8.834   5.774   2.891  0.1426  0.4059 -0.1499
27243W        W43052  16.238   1.634  14.296 -0.2488  0.1141 -0.1281
27244W        W43053   3.408   5.394   0.427 -0.1266 -0.0442 -0.1463
27245W        W43054   4.460   0.538  14.362  0.0917 -0.2885  0.1682
27246W        W43055   9.799  12.968   2.529 -0.1471 -0.3361  0.1864
27247W        W43056  13.419  14.209  11.159 -0.3030 -0.0446  0.0693
27248W        W43057  13.542  14.134  11.659  0.0726 -0.1081 -0.1422
27249W        W43058   5.405  11.704   6.539 -0.1618 -0.0815  0.1518
27250W        W43059  14.963  16.107  13.411 -0.0278  0.0662  0.3286
27251W        W43060  12.729   3.103  14.123 -0.0469  0.1243 -0.0795
27252W        W43061   7.344  12.784  11.707  0.1074  0.2719  0.1155
27253W        W43062   3.333  12.646  13.901 -0.0248  0.2935  0.1752
27254W        W43063  16.648   4.689  15.263 -0.2592  0.0058 -0.1960
27255W        W43064  11.546   1.343  12.232  0.2855 -0.0203 -0.2659
27256W        W43065   4.078   6.590   5.640 -0.0300  0.1124 -0.0880
27257W        W43066   0.925  10.246  15.453  0.2457  0.1936 -0.1767
27258W        W43067   4.610   7.686  16.451  0.2829 -0.0378 -0.2053
27259W        W43068  14.239   9.486   6.478 -0.1736  0.0440  0.4302
27260W        W43069  12.560  10.763   2.199  0.0973 -0.3141 -0.1003
27261W        W43070   4.778   3.961   5.370  0.2002 -0.1710  0.0615
27262W        W43071   2.879  10.140  16.575  0.0520  0.0702  0.0369
27263W        W43072   8.098   5.506   0.294 -0.2388  0.1333 -0.0647
27264W        W43073  17.121  10.058   0.814 -0.0665  0.2709 -0.0536
27265W        W43074  14.949  11.142   1.260  0.3499  0.1456 -0.0184
27266W        W43075  15.970  14.827  11.111 -0.1680 -0.1604  0.2815
27267W        W43076   5.416  14.647  12.280  0.1605 -0.0396 -0.4320
27268W        W43077  13.957  10.920   0.189  0.0939 -0.2169  0.0555
27269W        W43078  14.619   9.800  12.847 -0.1904  0.1079 -0.0019
27270W        W43079  10.855  15.370  12.667  0.0918 -0.2089  0.0598
27271W        W43080   1.338   7.912   2.991  0.1480  0.2089 -0.2859
27272W        W43081  15.717  14.446  12.032  0.0875 -0.1630  0.0144
27273W        W43082   0.867   2.376   0.525  0.1227  0.2034  0.3022
27274W        W43083   7.795  10.833   5.500 -0.2136  0.0077 -0.4870
27275W        W43084  12.387   5.642   2.014  0.2289 -0.0071 -0.0421
27276W        W43085  15.843  10.271   2.113  0.0506  0.1597 -0.1232
27277W        W43086  16.302  11.374   0.899  0.1379  0.1522 -0.3034
27278W        W43087  14.364  11.562   5.222 -0.1062  0.0442  0.1269
27279W        W43088  11.051   7.681   5.491 -0.1507 -0.2958 -0.3396
27280W        W43089  12.004   7.094  14.181 -0.1419 -0.1474  0.1539
27281W        W43090   0.646   7.445  15.163  0.3073  0.1828 -0.1356
27282W        W43091   0.416   1.937  16.852  0.0981  0.2080 -0.1933
27283W        W43092  14.555   9.107   1.399 -0.0398 -0.0215  0.1487
27284W        W43093   3.438   3.945  15.686  0.4030 -0.3914  0.0706
27285W        W43094   8.219   0.060  16.055  0.0622  0.0533 -0.1100
27286W        W43095  11.924   6.465  16.704 -0.1155 -0.2567 -0.2326
27287W        W43096  16.527  13.486  14.592 -0.2002  0.1392 -0.0957
27288W        W43097   2.627  15.844  15.556 -0.0256 -0.3264  0.3000
27289W        W43098  15.608  10.707  13.371 -0.1092  0.0913 -0.0552
27290W        W43099  12.872   2.351  15.495 -0.0854 -0.0145 -0.2293
27291W        W43100   5.532  11.067   4.354  0.0753 -0.3364 -0.0862
27292W        W43101   0.916   8.534   5.379 -0.1216  0.1634 -0.2681
27293W        W43102  11.914  15.534  16.906 -0.1280  0.2468 -0.0396
27294W        W43103  11.580   7.831   6.184  0.0325 -0.2524 -0.0511
27295W        W43104  13.235  15.713   0.751  0.0979 -0.0679 -0.0160
27296W        W43105   4.718   1.289   2.258  0.1266  0.1928  0.0348
27297W        W43106  16.341   3.058  13.768  0.0017  0.0046  0.0678
27298W        W43107   1.507  11.496  15.560 -0.1064 -0.2215  0.1412
27299W        W43108   3.313   6.985  15.329 -0.0193  0.2565 -0.0155
27300W        W43109  14.548  15.488  12.224  0.1305 -0.0374 -0.1377
27301W        W43110   1.254  15.328   0.702  0.1420  0.0531  0.2088
27302W        W43111   3.140  16.573   5.313  0.3305  0.0522 -0.2955
27303W        W43112   1.398  14.122  14.810  0.0611 -0.0804  0.0894
27304W        W43113  13.958  12.900  11.924 -0.0827  0.2258  0.3181
27305W        W43114  15.626  12.842   4.506  0.0470 -0.1056 -0.1005
27306W        W43115  15.140   5.081   0.591  0.2200  0.0925  0.0168
27307W        W43116  11.735   0.991  13.144  0.2870  0.1071 -0.0357
27308W        W43117   9.774   2.560   0.402 -0.0238  0.1837 -0.0523
27309W        W43118  12.921  15.826   4.561  0.2856 -0.0341  0.4197
27310W        W43119   6.969   5.249   5.542 -0.0990  0.0283  0.1363
27311W        W43120  14.134   8.062   0.339 -0.1411 -0.0037 -0.2166
27312W        W43121  12.753   8.261  15.765 -0.2315  0.0642  0.2413
27313W        W43122  12.324   5.839   5.750  0.2365  0.1792  0.3142
27314W        W43123   3.195   4.102   2.515 -0.0172 -0.0890  0.0180
27315W        W43124   6.852   3.824   1.302 -0.1626  0.3541  0.1212
27316W        W43125   8.049  15.832  14.818 -0.0887  0.0555 -0.3032
27317W        W43126   7.366  16.050   4.087 -0.0242  0.1355 -0.1860
27318W        W43127  16.210   1.339  14.702 -0.0621 -0.0673 -0.2132
27319W        W43128   9.814   8.358   5.597  0.0115 -0.2788 -0.0396
27320W        W43129   0.400   4.033   4.272  0.1946 -0.0004 -0.1358
27321W        W43130  17.181   4.617   6.818  0.2052 -0.0988  0.1732
27322W        W43131   8.939  14.235  12.535  0.2746 -0.2272 -0.1828
27323W        W43132   2.760  17.438   2.919  0.1538 -0.3284 -0.0031
27324W        W43133   8.596  16.865  14.451 -0.1526 -0.0009 -0.0028
27325W        W43134   5.263   1.538   3.073  0.0119  0.2852  0.2186
27326W        W43135   0.068   6.101   6.652 -0.0284 -0.0608 -0.1434
27327W        W43136  14.827  12.528   2.263  0.0781 -0.0589  0.0168
27328W        W43137  11.830   5.623  13.524  0.2233 -0.0374  0.0009
27329W        W43138  10.524  12.344   1.557 -0.2182  0.0376  0.1220
27330W        W43139   6.196  13.497   0.187 -0.0275  0.0630  0.2847
27331W        W43140   2.467   2.855  13.724 -0.0975  0.1126 -0.0454
27332W        W43141  15.992  15.487  14.255  0.0319 -0.1897  0.3651
27333W        W43142   9.593   4.334   3.968  0.3518  0.0891  0.3793
27334W        W43143  12.782   2.298  16.020  0.1816  0.2785 -0.2710
27335W        W43144  13.614   4.263  13.206 -0.2813  0.0708 -0.1804
27336W        W43145  17.622   8.076  13.264  0.2492 -0.3325 -0.0951
27337W        W43146   8.211   6.481   1.956  0.5046 -0.0126  0.0445
27338W        W43147   0.427   8.423  14.008 -0.4908  0.1324  0.2143
27339W        W43148   8.180   8.593   6.604 -0.0837 -0.1182  0.0101
27340W        W43149   9.490   3.868   6.153  0.0467 -0.0183  0.3263
27341W        W43150  11.466  16.841  16.889 -0.0158 -0.0826 -0.2599
27342W        W43151  10.057  16.513  13.852 -0.0402 -0.1668 -0.2913
27343W        W43152  17.655  13.609   2.823 -0.1281  0.1635  0.3192
27344W        W43153   0.683  10.205   4.221 -0.0816 -0.1378  0.0361
27345W        W43154   6.195   5.158   0.241  0.1724 -0.0862  0.2710
27346W        W43155  16.669  17.587  14.092 -0.1895  0.0693  0.5196
27347W        W43156   9.658   8.868   3.247  0.0143  0.1078  0.0777
27348W        W43157   2.456   4.280  14.737  0.3494  0.2889 -0.1209
27349W        W43158  13.445  11.453  16.489  0.0580  0.0226  0.1928
27350W        W43159  16.463   9.470   5.630  0.3238  0.1934  0.1999
27351W        W43160   9.453  12.258   4.631  0.1079  0.5113  0.3460
27352W        W43161   8.279   1.063  13.581  0.0829 -0.2500  0.0497
27353W        W43162   6.525  10.240   4.770  0.2680 -0.0087 -0.0299
27354W        W43163   8.669  14.655   3.478  0.0855  0.0643  0.2865
27355W        W43164   7.304   2.448  14.268  0.0047  0.1805 -0.2166
27356W        W43165   8.534   4.132  14.119 -0.0663  0.0647  0.0042
27357W        W43166  12.835  10.604  14.856 -0.2187  0.1402  0.0664
27358W        W43167   5.024  11.777  11.747  0.0797 -0.2145 -0.1200
27359W        W43168  10.652  11.239   0.754 -0.2836 -0.0173  0.0209
27360W        W43169   9.379   7.231   4.520 -0.1876 -0.1788 -0.0337
27361W        W43170   1.281   3.183   0.902 -0.1817  0.0330  0.2145
27362W        W43171  14.350   9.307   3.693 -0.0597 -0.2496 -0.0967
27363W        W43172  11.934   0.104  16.023 -0.2372 -0.0716 -0.1621
27364W        W43173   9.881   4.238  15.768 -0.1820 -0.1056 -0.1000
27365W        W43174   5.433  10.468   3.397 -0.0170 -0.2849  0.0414
27366W        W43175   7.615  16.109   5.121 -0.2651 -0.3169 -0.0613
27367W        W43176   5.552  12.198   2.380 -0.2616  0.0480 -0.2098
27368W        W43177   3.579   2.527  11.951 -0.0738  0.0167 -0.1074
27369W        W43178   3.210  10.830  16.215 -0.0536 -0.2510 -0.2084
27370W        W43179  10.861  15.311  15.366 -0.1482  0.2387  0.0816
27371W        W43180   8.357   5.124  11.959 -0.0522 -0.0728 -0.1851
27372W        W43181   9.943   6.558   0.540  0.2861  0.3132  0.2721
27373W        W43182   2.398  17.511   6.462  0.0059 -0.0892 -0.1980
27374W        W43183  13.414   2.742  16.840 -0.0749 -0.4264 -0.0238
27375W        W43184   7.203  16.206   3.106 -0.0576  0.0718 -0.1429
27376W        W43185  13.028  14.630  16.896 -0.1003 -0.1691 -0.3490
27377W        W43186  14.550  16.903   2.187  0.0261 -0.0090  0.0079
27378W        W43187   6.718  10.301  16.971 -0.4880 -0.0889 -0.0681
27379W        W43188   8.632   3.034  12.271 -0.0338  0.1496  0.0377
27380W        W43189   1.630   2.787  16.349 -0.3588 -0.3528  0.1742
27381W        W43190   3.198   3.245   4.904 -0.1292  0.1516  0.1844
27382W        W43191  15.164  17.616   5.126 -0.1707  0.4736 -0.0158
27383W        W43192   5.027  16.390   0.243 -0.0389 -0.0881 -0.0284
27384W        W43193  14.041   8.328  16.735  0.0085  0.2166 -0.1449
27385W        W43194   9.188  12.162  15.318 -0.1270  0.1631 -0.0358
27386W        W43195   9.977  13.147   5.220 -0.0589 -0.3427 -0.2733
27387W        W43196   8.078   7.866  13.842 -0.0861  0.0729  0.1717
27388W        W43197  11.943  10.062   0.607  0.0457 -0.2727 -0.0453
27389W        W43198   9.741  13.973   1.187 -0.0592 -0.0475 -0.1447
27390W        W43199  14.470  10.659  12.282 -0.0989 -0.1969 -0.2118
27391W        W43200  10.509  12.667  16.995 -0.1982 -0.0146  0.0421
27392W        W43201   2.885  16.385  11.177 -0.1840  0.0218  0.0923
27393W        W43202  16.311  10.200  15.425  0.0528  0.0112  0.0927
27394W        W43203  16.909   5.688   4.667 -0.2806 -0.0649 -0.1051
27395W        W43204   5.881   5.802   2.567  0.0786  0.2960  0.0270
27396W        W43205   6.595  10.146  16.443  0.2499 -0.1331 -0.0556
27397W        W43206   0.349   6.615   6.338  0.1993  0.0622 -0.3477
27398W        W43207   9.253   1.253  16.532 -0.1382 -0.1585 -0.0392
27399W        W43208   4.300  15.490  13.626 -0.0536 -0.1333  0.0655
27400W        W43209  15.540  12.561  13.680 -0.3019  0.0807  0.2138
27401W        W43210   8.237   1.550  13.690  0.0689  0.2506 -0.1095
27402W        W43211  14.063  16.530   1.375  0.4106 -0.0745 -0.0374
27403W        W43212  11.193  15.975   1.700  0.2358  0.1997 -0.2234
27404W        W43213   6.787  10.634   2.071  0.0773 -0.1007  0.0726
27405W        W43214  13.627   9.165   5.472 -0.1367  0.5255  0.0639
27406W        W43215  10.710   1.532   3.124 -0.1045  0.1702  0.3132
27407W        W43216  15.303  17.238   0.180  0.1870  0.1331  0.1663
27408W        W43217   9.833  10.631  12.467  0.3083  0.2462  0.2005
27409W        W43218  15.473   2.501  16.188  0.1599 -0.1666  0.3768
27410W        W43219   4.281  16.730   6.766 -0.0599 -0.1260 -0.0998
27411W        W43220   8.814   4.918  15.680  0.1983  0.0425  0.2316
27412W        W43221   6.078  10.221   0.719  0.4528 -0.1435 -0.0775
27413W        W43222   3.949   5.487  15.540 -0.2594  0.1152  0.1887
27414W        W43223   1.845  15.947   3.860  0.2392  0.1096  0.1991
27415W        W43224   8.010   6.338  10.791 -0.0544  0.0908  0.1816
27416W        W43225   1.770  14.764  14.898 -0.1694 -0.1601  0.1191
27417W        W43226   0.588   7.689  12.246  0.0336 -0.0500 -0.0446
27418W        W43227   2.562   8.810  14.838 -0.0035 -0.0642  0.1002
27419W        W43228   2.994  17.236  13.846 -0.0820 -0.1380 -0.0276
27420W        W43229  15.417  15.905   1.324  0.1386  0.2291  0.1134
27421W        W43230   2.653  13.256  16.488  0.2035 -0.0512 -0.0362
27422W        W43231  12.140  16.477  12.551 -0.0898  0.0883 -0.2107
27423W        W43232  17.164  14.061   5.036 -0.0423 -0.0286  0.2382
27424W        W43233  15.490  15.110  16.311  0.3817 -0.3276 -0.0526
27425W        W43234   7.683   7.985   5.527 -0.1860  0.5220  0.1263
27426W        W43235  17.735   2.394  14.935 -0.0429  0.1152 -0.2882
27427W        W43236  12.533  12.585  16.544  0.1384 -0.2649 -0.0367
27428W        W43237  10.172   2.777   0.793  0.1742  0.2542 -0.0447
27429W        W43238  14.088  12.059   3.040  0.2289  0.1869  0.0587
27430W        W43239   1.638   0.917  16.402  0.0356  0.1847 -0.0485
27431W        W43240   2.020  11.299  12.436 -0.0529  0.0069  0.0653
27432W        W43241  13.314  15.033  11.119  0.4736  0.0225  0.0494
27433W        W43242   0.995   8.072  12.010 -0.2588 -0.0349 -0.2363
27434W        W43243   1.259   3.124  11.837  0.0626  0.3779  0.0688
27435W        W43244  12.195  13.506  14.953  0.1666  0.0937  0.1114
27436W        W43245  14.523   0.175   4.451 -0.0553 -0.0872 -0.1242
27437W        W43246   8.529  12.782   1.679  0.0494  0.2571  0.2996
27438W        W43247  15.231   6.149  13.681  0.0863  0.1878 -0.0669
27439W        W43248   4.655   1.172   6.209  0.0661 -0.0378 -0.0220
27440W        W43249  10.459  15.962   4.775  0.1127 -0.0810 -0.3508
27441W        W43250  12.627   5.200   2.184 -0.2968  0.4631  0.0030
27442W        W43251  16.383   7.800  15.328  0.4276 -0.1298  0.0221
27443W        W43252  17.048   9.562  12.259 -0.2610 -0.0181  0.1382
27444W        W43253   4.498   2.654   2.457 -0.2536 -0.2104 -0.1363
27445W        W43254   2.537   8.792  16.979 -0.0479  0.0410 -0.2320
27446W        W43255  16.009  15.904  14.795  0.1210 -0.0096  0.2269
27447W        W43256   7.577  16.607   4.893  0.2157  0.2025 -0.3711
27448W        W43257   6.937  16.420   2.649  0.2081  0.0314 -0.4025
27449W        W43258   3.214  12.453   5.150 -0.1045  0.2056 -0.3079
27450W        W43259  13.818   6.742  13.122 -0.0816 -0.0655  0.2560
27451W        W43260   5.634  11.351  15.833  0.2074 -0.0568  0.2879
27452W        W43261   0.297   5.317  14.201 -0.0655 -0.1329 -0.0803
27453W        W43262   8.018  11.668  11.734 -0.1912 -0.1706 -0.1755
27454W        W43263   1.690   6.236  12.363  0.0483  0.1106 -0.0847
27455W        W43264   0.451  10.228  15.430 -0.1243 -0.0109 -0.0594
27456W        W43265  11.072  13.157   1.001  0.1264  0.0918 -0.1471
27457W        W43266   5.204   6.028  14.096  0.1490 -0.3158  0.1217
27458W        W43267  16.400   3.527   4.489  0.2602  0.1621  0.0542
27459W        W43268  14.545   0.363  15.046  0.1623 -0.0858 -0.0434
27460W        W43269   0.054   3.446   0.334 -0.0694 -0.0254  0.0867
27461W        W43270  13.054   6.380   1.570  0.1128  0.1222 -0.1723
27462W        W43271  12.760   8.506  16.767 -0.0872 -0.0499 -0.0257
27463W        W43272  10.825  11.160  12.294  0.0994  0.2349 -0.0855
27464W        W43273  15.667   8.575   1.942 -0.1815  0.0942 -0.0319
27465W        W43274  13.694   2.531   2.907  0.1332 -0.0851  0.0699
27466W        W43275  12.242  14.084  16.563 -0.2981 -0.0320  0.2028
27467W        W43276  13.375  10.607  12.845 -0.0136  0.2360 -0.0541
27468W        W43277  16.936  15.401  14.897 -0.1446 -0.0633 -0.2126
27469W        W43278   7.164   5.799   3.601  0.1412 -0.0351 -0.0067
27470W        W43279   4.979   9.869  15.181 -0.1249 -0.0521 -0.0645
27471W        W43280   5.384  12.270  12.369 -0.0835  0.1753 -0.3315
27472W        W43281   8.461   8.265   4.487 -0.3163  0.0025 -0.1618
27473W        W43282   3.022   9.098  13.081  0.2152 -0.0770  0.0222
27474W        W43283  13.289   6.027  12.241 -0.2011  0.0604  0.1772
27475W        W43284   1.562  10.497   3.490  0.0121  0.0066  0.3262
27476W        W43285  10.391   4.338   0.315  0.0427  0.0521 -0.0190
27477W        W43286  12.223   7.023   4.010  0.1601  0.3157  0.0546
27478W        W43287  15.584   6.397  15.516  0.2176 -0.2357  0.0368
27479W        W43288   1.418  12.416   2.167 -0.2407 -0.0203  0.0349
27480W        W43289  10.124   9.515   5.086 -0.0809 -0.1406 -0.1848
27481W        W43290  14.394   3.807  16.226 -0.1351 -0.2431 -0.0074
27482W        W43291   4.738   0.998  12.820  0.0195  0.0156  0.2760
27483W        W43292   9.771   8.559  15.504  0.3974  0.1756  0.0180
27484W        W43293   0.326  13.192   4.578 -0.1369 -0.0548 -0.0695
27485W        W43294  11.988   3.080  11.979 -0.1381  0.2827 -0.0357
27486W        W43295  16.881  13.174  14.450 -0.0200  0.0808  0.1051
27487W        W43296   3.306   2.127   2.172  0.3360  0.2597  0.2521
27488W        W43297  14.069   7.231   6.220 -0.1094  0.0894  0.0826
27489W        W43298   6.972   4.321  14.229 -0.1143 -0.0483  0.2758
27490W        W43299   0.232   1.168   3.682 -0.0335 -0.2372 -0.0406
27491W        W43300   0.998  13.622   0.802  0.0772  0.0566 -0.0852
27492W        W43301  17.200  14.173  14.302 -0.2671  0.2281 -0.1634
27493W        W43302  15.902   9.656  14.155 -0.1109 -0.1987  0.1829
27494W        W43303  10.678  12.101  16.720 -0.0934  0.2830 -0.1479
27495W        W43304   2.144   2.402  14.200 -0.3129  0.2285  0.1756
27496W        W43305   7.200  13.954   2.862  0.0588  0.3061 -0.0265
27497W        W43306  12.423   4.120  16.234 -0.3350 -0.1609  0.1189
27498W        W43307   0.976   0.161   0.188  0.2411 -0.2155  0.1816
27499W        W43308   0.272  16.046   4.185 -0.2302  0.1971 -0.0063
27500W        W43309   8.082   1.913   0.927  0.0782  0.1269  0.1410
27501W        W43310  13.959   3.888  11.234  0.2749  0.2972  0.0338
27502W        W43311   0.659   8.186   2.577  0.0320 -0.3259 -0.1235
27503W        W43312   8.572  13.754  11.714  0.0190 -0.3298 -0.0454
27504W        W43313   5.843  13.992  11.838  0.1185  0.1566  0.0338
27505W        W43314  16.627  16.528  12.530 -0.1093  0.1531  0.2201
27506W        W43315   8.478   6.912   4.815 -0.0906 -0.0731  0.0629
27507W        W43316   0.457  11.620  12.394 -0.3893  0.0863  0.0661
27508W        W43317   5.549  11.718  12.055  0.1803  0.0048  0.0036
27509W        W43318   4.792   1.947   5.967  0.0010 -0.1029  0.3379
27510W        W43319   4.154  14.229   6.236 -0.0765  0.1149  0.0643
27511W        W43320  13.477   9.922  14.682  0.2598  0.0544 -0.0241
27512W        W43321   9.887  14.647  10.097  0.2940 -0.1249 -0.1565
27513W        W43322  16.551   2.036  15.537  0.1722  0.2345 -0.1591
27514W        W43323  16.185  13.069   2.440 -0.0374  0.0919 -0.0609
27515W        W43324  16.792   0.674   1.379  0.0334  0.1892  0.1871
27516W        W43325   3.512   2.548   2.368 -0.0227 -0.1758  0.1071
27517W        W43326   8.235   6.078  16.682 -0.0471  0.2136 -0.0452
27518W        W43327   0.010   2.234  12.402  0.2517 -0.4029 -0.2254
27519W        W43328   5.590  16.031  16.200  0.0587  0.1735 -0.0285
27520W        W43329  14.356   0.944  13.585 -0.0064  0.0678  0.1066
27521W        W43330   5.217   8.604   2.129  0.1706  0.0103  0.3031
27522W        W43331  12.290  16.480   2.758  0.2044  0.2049 -0.0427
27523W        W43332   8.515  12.062  14.147 -0.1192  0.1672  0.1010
27524W        W43333  17.025   4.525  16.868 -0.0008  0.3677  0.2479
27525W        W43334  14.424  12.612   1.839  0.1066  0.3622  0.0840
27526W        W43335   9.098   4.522   2.122 -0.4087  0.1646 -0.0467
27527W        W43336  17.216  14.228   6.054  0.0040  0.0077  0.2733
27528W        W43337   0.367  17.714  15.116 -0.1977 -0.1504 -0.2687
27529W        W43338  11.876   1.576  16.132 -0.1490  0.2620  0.1807
27530W        W43339   8.042  17.305  14.388 -0.1392 -0.2372  0.0339
27531W        W43340  16.133   3.540   3.007  0.0031  0.0891 -0.0521
27532W        W43341  17.414  12.440  14.421 -0.3268 -0.1206 -0.3817
27533W        W43342   3.220   2.454  14.842 -0.1308  0.1130  0.1416
27534W        W43343   8.646   1.580   1.566 -0.0676  0.1285 -0.0696
27535W        W43344  14.536  16.565  13.811 -0.1531  0.1987 -0.0231
27536W        W43345  17.178  13.513  13.338 -0.0652  0.2843 -0.1362
27537W        W43346  12.644  10.738  14.291  0.2107 -0.0515  0.0142
27538W        W43347   1.257   3.624  16.285 -0.1516  0.0429 -0.0520
27539W        W43348  12.242  10.704  13.888  0.3366 -0.2685 -0.0782
27540W        W43349  16.462  15.468  14.121  0.0163 -0.0711 -0.0439
27541W        W43350   3.963  14.551   5.854 -0.0569 -0.2712 -0.0601
27542W        W43351  11.523   5.459   6.007  0.0870  0.1070  0.1573
27543W        W43352   5.499   9.961  14.402  0.0040  0.1104 -0.1003
27544W        W43353   6.723  14.346  15.834  0.1035 -0.0668 -0.0082
27545W        W43354  12.516   7.265   0.667 -0.0561 -0.1314  0.2540
27546W        W43355   0.625  17.429   2.797 -0.1723  0.0501  0.2718
27547W        W43356   5.014  11.192  15.351 -0.0679  0.0546 -0.0456
27548W        W43357  12.858   2.135   1.994  0.1569 -0.1911 -0.0724
27549W        W43358   9.542  14.691  16.198  0.0643  0.0203  0.0167
27550W        W43359  14.071   9.472   0.696 -0.1603  0.0301 -0.1611
27551W        W43360  12.472   7.178   2.825 -0.1231 -0.2449  0.0333
27552W        W43361   1.260   7.619  15.988 -0.3383  0.1317  0.0555
27553W        W43362  16.598  15.687   1.922 -0.0985 -0.4187 -0.1644
27554W        W43363   7.687   1.120  12.862 -0.0950  0.1439  0.2841
27555W        W43364   5.748   5.751  15.564 -0.0711  0.0104 -0.1601
27556W        W43365  16.555  13.921   0.510  0.1298  0.1164  0.3164
27557W        W43366   5.808   3.064  13.033  0.1375  0.1009 -0.1086
27558W        W43367  17.110  11.068  13.078 -0.1282 -0.0207 -0.0270
27559W        W43368  16.518   3.892  13.481 -0.3233  0.3190  0.1724
27560W        W43369   2.728  11.071   5.495  0.2265  0.0474  0.2197
27561W        W43370   5.743  10.275   4.487 -0.1352 -0.0336 -0.0676
27562W        W43371  11.680  12.210  15.137 -0.1972  0.1401  0.0735
27563W        W43372   6.514   0.610   3.515 -0.1149 -0.2678 -0.0553
27564W        W43373   2.546  10.846  12.834 -0.1893  0.0463 -0.1991
27565W        W43374   7.203   1.411   6.076  0.0305 -0.1383 -0.1253
27566W        W43375   0.300  14.519   3.661 -0.2975  0.5298  0.0209
27567W        W43376   6.931  11.004  12.902  0.0933 -0.0356  0.2629
27568W        W43377  11.145   4.446  13.064  0.1927 -0.1511 -0.0499
27569W        W43378   7.214  11.456  15.734  0.2184 -0.1097  0.1845
27570W        W43379   7.471  13.057   5.585 -0.0231 -0.2121 -0.2292
27571W        W43380  10.172   6.216   1.338  0.0824 -0.1943 -0.0143
27572W        W43381   5.558   0.285  16.888  0.0181  0.1221  0.2359
27573W        W43382  14.124   8.186  13.624 -0.2118 -0.1019 -0.2806
27574W        W43383  17.456   9.290   5.556 -0.1676 -0.1207 -0.0444
27575W        W43384   6.253   4.462   4.208  0.2786 -0.0650 -0.0308
27576W        W43385   4.268   7.645  15.648 -0.1485 -0.0805  0.0766
27577W        W43386   3.554   5.564  16.084  0.2723  0.1363 -0.0444
27578W        W43387   4.613  17.266   1.656  0.3171 -0.2593  0.2615
27579W        W43388   3.701   1.005   0.378  0.3943  0.0410 -0.1340
27580W        W43389   1.248   6.016  15.521 -0.1058  0.0630 -0.0300
27581W        W43390   3.087   4.657   1.008 -0.0765 -0.0865  0.0635
27582W        W43391  15.602  11.347  15.102 -0.1042  0.2308  0.0170
27583W        W43392  16.215  10.732  11.925 -0.2206  0.0658  0.2044
27584W        W43393   4.954  10.137  14.765 -0.3289  0.2303 -0.2178
27585W        W43394  16.796   2.141  15.122  0.1895 -0.1186 -0.1452
27586W        W43395  17.319   2.117  12.620  0.1915 -0.0639  0.1841
27587W        W43396   3.670   4.682  16.533  0.0424  0.1298  0.2130
27588W        W43397  13.284  10.415  14.854  0.0265  0.0832 -0.1032
27589W        W43398   6.862  10.967   0.940 -0.0747  0.3814 -0.0041
27590W        W43399   1.538   4.744   1.003  0.0288  0.2666  0.0584
27591W        W43400   0.532  15.533   5.483  0.0503 -0.1657  0.0290
27592W        W43401   3.426  16.471  13.769  0.1244 -0.2548 -0.0713
27593W        W43402  17.578   2.308   1.945 -0.0878  0.2528 -0.0252
27594W        W43403   1.294   7.025  14.285 -0.0392  0.1182  0.0907
27595W        W43404  17.721  15.089   4.675  0.0995 -0.4165  0.2135
27596W        W43405  11.253  14.432  12.629  0.0278 -0.0583  0.2525
27597W        W43406   2.060   0.978  12.420 -0.2927 -0.4052  0.0660
27598W        W43407  17.637  15.859  13.436  0.0957 -0.0282  0.2731
27599W        W43408  15.928  15.197  15.043 -0.1194 -0.0339 -0.0505
27600W        W43409  16.998   3.065  13.922  0.3233  0.2167 -0.1120
27601W        W43410  13.173  11.785  14.261 -0.2742 -0.0202  0.2695
27602W        W43411  13.736   2.979  13.721  0.0656  0.2892 -0.0353
27603W        W43412  13.131   2.890  14.441 -0.2149  0.0486  0.0468
27604W        W43413  15.739  16.195   2.091  0.0439 -0.0682 -0.0663
27605W        W43414   8.975   6.259   2.976  0.2443 -0.0024  0.1615
27606W        W43415  17.399  16.098   2.947  0.2715  0.3475  0.1953
27607W        W43416  14.941  10.367   1.132 -0.3981  0.0385  0.2510
27608W        W43417   2.522  14.949   3.228  0.3006  0.1238 -0.2566
27609W        W43418  13.137   9.321   6.155  0.2403 -0.1502 -0.0466
27610W        W43419  13.659  10.223   2.543  0.2091 -0.0221 -0.0103
27611W        W43420  14.740   4.022   2.979  0.3667 -0.0583 -0.0022
27612W        W43421  16.962   3.409  12.525  0.1425  0.0622 -0.3973
27613W        W43422   6.177   7.610  16.005 -0.0830 -0.1650  0.0577
27614W        W43423   7.141   2.398   2.203  0.1282  0.0860  0.1133
27615W        W43424   4.814  10.493   1.635  0.0461 -0.0217  0.0366
27616W        W43425   7.662   7.690  14.989  0.1534  0.2710 -0.0151
27617W        W43426   7.094   9.218   5.180  0.2168 -0.2853 -0.2684
27618W        W43427   1.055   2.693   6.562  0.0261  0.0174  0.0724
27619W        W43428   3.504   6.027  12.825  0.0339  0.0809 -0.2223
27620W        W43429  12.806   5.376  16.429 -0.0570 -0.1354  0.1032
27621W        W43430   0.067  16.894  15.554 -0.0746  0.0683 -0.1628
27622W        W43431  13.333  12.752   3.105  0.0434  0.0234 -0.2762
27623W        W43432   2.854  17.687  14.685 -0.1216 -0.3216  0.1497
27624W        W43433   9.924   7.376   5.442  0.2108  0.0889  0.0403
27625W        W43434   9.416   0.689   0.383  0.1339 -0.0709  0.0621
27626W        W43435   9.657  12.333  12.708 -0.3333 -0.0477  0.1667
27627W        W43436   0.026  14.262   2.353 -0.1706 -0.0901 -0.1930
27628W        W43437   4.400   4.661   1.617 -0.1866 -0.0953  0.1295
27629W        W43438  11.433   3.582  14.319 -0.1621  0.0176  0.2527
27630W        W43439   4.367  10.089  13.401 -0.0940 -0.2537 -0.0359
27631W        W43440  12.090   6.794  15.742 -0.2774 -0.1257  0.1093
27632W        W43441  12.874   1.895   4.343 -0.2802 -0.0727 -0.5168
27633W        W43442   0.989   3.797  13.380  0.2717  0.2040  0.1797
27634W        W43443   5.864   2.468  16.215 -0.0232 -0.2964  0.1411
27635W        W43444   5.960   4.871  13.116 -0.0372  0.1814  0.0532
27636W        W43445   0.304   9.043  14.686  0.0481 -0.2530  0.4483
27637W        W43446  17.078  14.124  13.457  0.4157 -0.1395  0.2754
27638W        W43447   5.612   5.106  14.479  0.3914 -0.0231  0.1085
27639W        W43448  11.037   9.581   2.877 -0.2564  0.0537  0.0403
27640W        W43449  11.028  14.417  13.093 -0.0699 -0.0453 -0.1105
27641W        W43450   3.211  14.358   1.879  0.0598  0.2646 -0.3287
27642W        W43451   1.067  17.416  12.741  0.0102  0.2400 -0.2504
27643W        W43452   2.305  13.440  14.477 -0.0844 -0.1566 -0.2728
27644W        W43453  14.226  10.961   5.243  0.2342 -0.0842 -0.1158
27645W        W43454  13.088   5.315   3.903  0.3313 -0.1552 -0.0546
27646W        W43455   3.388  16.843   0.621  0.2561 -0.1349  0.1128
27647W        W43456   5.107  11.132   1.799 -0.2347 -0.1182 -0.2090
27648W        W43457  15.166   0.488   3.813 -0.1179  0.0855 -0.1830
27649W        W43458  10.319   1.622  13.053 -0.0790 -0.0877  0.2498
27650W        W43459   9.512   0.961   4.441  0.2073  0.1568 -0.0018
27651W        W43460  15.219   9.771   1.552  0.2613 -0.1094 -0.0892
27652W        W43461   6.647   1.444  14.250  0.3324 -0.2865  0.2013
27653W        W43462  11.914   2.054   2.395  0.0217 -0.0969  0.1850
27654W        W43463   4.472  12.257  14.400  0.1057  0.2618  0.1434
27655W        W43464   2.848  17.080  11.708 -0.3495  0.3698 -0.0859
27656W        W43465   9.349   9.196   4.087  0.3895 -0.0761  0.1201
27657W        W43466   3.032  13.862   2.340  0.0417  0.0017  0.0794
27658W        W43467  14.529   1.268   2.267  0.0026 -0.0502  0.0224
27659W        W43468  11.791  12.758  11.099 -0.1621  0.1615  0.1437
27660W        W43469  13.117   7.534   3.765  0.1119  0.0566  0.0506
27661W        W43470   5.273   5.961  13.117 -0.0613 -0.0990 -0.1447
27662W        W43471  17.157   7.086  12.862  0.0572 -0.0404 -0.3659
27663W        W43472   5.194  11.067  15.977  0.0107  0.0609  0.0498
27664W        W43473  10.770  14.302   5.361 -0.1170  0.0163 -0.0213
27665W        W43474   3.977  16.416  15.946 -0.1262 -0.1961  0.0870
27666W        W43475  16.858  13.088   4.450 -0.0076 -0.2722 -0.1351
27667W        W43476   7.334   9.939  13.537 -0.1781 -0.2563 -0.1821
27668W        W43477  17.487  14.674   2.561  0.0761  0.1870  0.0343
27669W        W43478  13.846   6.971   3.370  0.3063  0.0341  0.0786
27670W        W43479   5.983   0.351  14.332 -0.1660  0.2129  0.1302
27671W        W43480  17.031  11.906  16.997 -0.1944  0.1835  0.1975
27672W        W43481   7.068  16.062   3.645 -0.0615 -0.0837 -0.3233
27673W        W43482  13.951   7.446  13.831  0.1588 -0.0448  0.1263
27674W        W43483   4.564  15.821   5.714  0.0257 -0.2953  0.1502
27675W        W43484  14.784   0.858   2.611  0.0768  0.0835 -0.2273
27676W        W43485  12.641   0.527   3.776  0.0421 -0.0537  0.1289
27677W        W43486   6.475   6.575  14.605 -0.0518 -0.0985  0.0360
27678W        W43487   0.886   8.640  12.028  0.1033  0.1380 -0.2403
27679W        W43488  14.360   8.397  14.685 -0.2868 -0.0681 -0.1443
27680W        W43489   1.124   2.587  13.240  0.0237 -0.1734 -0.2809
27681W        W43490   1.700  10.114   6.505 -0.0766  0.0595 -0.0143
27682W        W43491  15.103   4.591  16.784 -0.0778 -0.1607 -0.0405
27683W        W43492  12.331  10.307  12.573  0.0387 -0.0896  0.0341
27684W        W43493   7.529  14.654  14.366  0.0273  0.2716  0.1032
27685W        W43494   2.412  13.311   3.386  0.2271  0.3615  0.2264
27686W        W43495   6.234  12.418   2.948  0.1034 -0.2617 -0.1520
27687W        W43496  12.945  10.016   2.953 -0.0606  0.5440  0.0380
27688W        W43497   4.955  11.959  12.253 -0.0937  0.1034 -0.1799
27689W        W43498  10.867   0.218   3.782  0.2179 -0.0390  0.2522
27690W        W43499   4.974  14.492  13.092  0.0240 -0.0173 -0.1212
27691W        W43500  17.249   9.873   2.526  0.0215 -0.2302 -0.1447
27692W        W43501  17.480   7.124   1.343  0.1172  0.1463  0.0144
27693W        W43502   2.362   0.449  14.962  0.0170  0.2320  0.2096
27694W        W43503   4.986   2.134   1.529 -0.2418  0.0042  0.1527
27695W        W43504   3.565   2.262  13.965  0.2804  0.2014 -0.0265
27696W        W43505   1.725  10.587   6.921  0.4491  0.0686 -0.2256
27697W        W43506   8.136   9.600  16.597 -0.2255 -0.0451 -0.0878
27698W        W43507   6.552  14.156  14.476  0.0754  0.0354 -0.0312
27699W        W43508   9.608   2.936  14.320  0.0351  0.0716  0.3633
27700W        W43509   5.403  16.090   4.180  0.2233  0.0431  0.0255
27701W        W43510  16.463  12.124   1.620 -0.2511  0.2549  0.0510
27702W        W43511   7.743   1.733   3.648 -0.0277 -0.2361  0.2345
27703W        W43512   7.227   0.230   2.576  0.0203  0.0281 -0.1022
27704W        W43513   4.588  14.796   3.306 -0.3097  0.0364  0.0880
27705W        W43514  15.437  11.089   4.582 -0.1200  0.0350  0.1264
27706W        W43515  16.950   3.850  16.273 -0.1430 -0.0507 -0.2336
27707W        W43516   9.159   3.458  15.713  0.0101 -0.0223 -0.0958
27708W        W43517  12.716  13.643   6.179  0.1536 -0.2604  0.0601
27709W        W43518   8.623  17.506   0.132 -0.1255 -0.0462  0.3264
27710W        W43519   2.121   5.878  15.745 -0.2869 -0.3977 -0.1248
27711W        W43520  15.900  17.461   4.181 -0.0762  0.1321 -0.0716
27712W        W43521   3.290   4.416   1.877  0.0585  0.4166 -0.3463
27713W        W43522   8.870   4.308   2.634 -0.0698 -0.0958  0.1118
27714W        W43523  13.067   7.923  14.928  0.1585  0.1380 -0.0575
27715W        W43524   6.024  11.305   2.455  0.2387 -0.1176 -0.3375
27716W        W43525   3.928   1.234  16.950 -0.1575  0.0735 -0.1601
27717W        W43526   6.830   7.216  13.704 -0.1359  0.0115  0.2768
27718W        W43527   8.962   9.055  15.274 -0.5187 -0.2137  0.0556
27719W        W43528  15.487   7.690  16.201 -0.0626  0.3404 -0.0219
27720W        W43529  10.804  17.451   4.324  0.1845 -0.0501  0.1913
27721W        W43530   3.332  16.974   1.582 -0.0272 -0.0468 -0.0137
27722W        W43531   6.083   8.624  11.878  0.0696 -0.2801  0.0943
27723W        W43532  13.444  13.565   0.662  0.2270 -0.4551  0.0007
27724W        W43533   7.664  14.419  15.817  0.1034  0.0677  0.1721
27725W        W43534   9.534   8.465  16.037 -0.0904  0.2623  0.0043
27726W        W43535  14.337   2.253  12.129 -0.0268 -0.0749  0.3346
27727W        W43536   6.340   0.704   0.414 -0.0546 -0.2026  0.3165
27728W        W43537   0.299   4.168  12.530 -0.0432 -0.0303  0.1353
27729W        W43538  12.479  14.140  15.722 -0.0730  0.0028  0.2568
27730W        W43539  14.461   2.904   3.453  0.1775  0.1830  0.4127
27731W        W43540   4.829  13.006  14.441  0.1145  0.0463  0.0991
27732W        W43541   0.427   9.285  12.475  0.0126 -0.0781 -0.0198
27733W        W43542  11.012   0.812   1.297  0.0782 -0.0737  0.0195
27734W        W43543  12.974  17.481  11.531  0.0184 -0.2659  0.1285
27735W        W43544   2.986   2.849   0.297 -0.0897 -0.0268 -0.0374
27736W        W43545  12.283   9.428   1.466 -0.0861 -0.1379  0.1241
27737W        W43546  14.688  11.118  13.174  0.2834 -0.1464 -0.1199
27738W        W43547   0.066   8.286   5.279  0.2998 -0.0407  0.2394
27739W        W43548   1.397   5.949   2.909  0.1378  0.0731 -0.0900
27740W        W43549  14.217   8.305   1.663  0.0488 -0.1180  0.1385
27741W        W43550   1.027  13.023  13.202  0.1081 -0.1108 -0.0733
27742W        W43551  10.718  13.472  15.428  0.1427  0.3960  0.5656
27743W        W43552   2.699  15.516  12.701  0.1333 -0.0784 -0.1889
27744W        W43553   9.790   1.907  13.600  0.1029  0.1971 -0.0840
27745W        W43554   9.039   3.688   6.197 -0.1045  0.2053 -0.0204
27746W        W43555   0.526   7.707   5.901 -0.3279  0.1114  0.2450
27747W        W43556  15.355   8.026  16.567 -0.2111 -0.1917 -0.0605
27748W        W43557  13.964   8.995   2.238 -0.3754  0.2963  0.2663
27749W        W43558   6.129  11.611   1.977 -0.1274  0.0240 -0.0532
27750W        W43559   0.233  12.447  16.404  0.1764 -0.0558  0.1330
27751W        W43560  16.849  15.723   0.389  0.1840  0.0461 -0.2867
27752W        W43561   3.604   0.885  15.958 -0.2442  0.0449  0.2608
27753W        W43562   2.895  15.641   1.261  0.1276 -0.1424  0.1525
27754W        W43563  17.620   7.138  11.777 -0.5578 -0.0532 -0.1776
27755W        W43564   8.304   1.740   0.310 -0.1908 -0.1797 -0.0431
27756W        W43565   1.484  10.924   2.250  0.1938 -0.0361 -0.0120
27757W        W43566   0.416   2.958  13.601  0.1757 -0.1494 -0.0922
27758W        W43567   3.630   7.997  15.067 -0.0764  0.2065  0.1543
27759W        W43568  11.052   7.711   1.093 -0.1786  0.1042 -0.0482
27760W        W43569   1.829   0.506   2.475 -0.3067  0.2863  0.2717
27761W        W43570  13.917   0.619  15.379  0.1631  0.0083  0.0602
27762W        W43571   9.333   2.310   1.048 -0.1124 -0.2506  0.0342
27763W        W43572  17.177  12.826  13.168 -0.0112  0.0370  0.1812
27764W        W43573  16.907   9.550  15.418  0.1294 -0.3694  0.0610
27765W        W43574  15.567  12.393  14.203 -0.0351  0.1789  0.2026
27766W        W43575  16.509   6.657  12.360  0.2856 -0.0471 -0.1937
27767W        W43576  14.093   0.214  15.149 -0.1383 -0.0866 -0.2539
27768W        W43577   7.367   5.946   2.753  0.5619  0.1066 -0.4516
27769W        W43578  17.596  14.210   2.850  0.1969 -0.0525  0.0302
27770W        W43579   9.096   0.212  15.549 -0.3707  0.0390 -0.5201
27771W        W43580   4.381  16.566  11.821  0.0364 -0.0430  0.4205
27772W        W43581  17.138   4.526  12.265  0.0946  0.0078  0.0478
27773W        W43582  13.763  10.391   3.909  0.1675  0.1540 -0.2590
27774W        W43583  10.961   6.352   4.474 -0.1793 -0.1105 -0.0996
27775W        W43584  15.761   7.368  16.984 -0.0080  0.0021 -0.1932
27776W        W43585   7.858  17.023  13.458 -0.1208  0.2024 -0.2067
27777W        W43586  17.154   0.081  14.148  0.1199 -0.1273  0.0716
27778W        W43587   7.701   8.840  14.563 -0.2534  0.2938 -0.0788
27779W        W43588   2.335  17.528   1.455 -0.1014 -0.1399 -0.0518
27780W        W43589  16.087  10.590   5.431 -0.1480  0.2270  0.0808
27781W        W43590   7.948   4.150  14.170 -0.2510 -0.1978 -0.0534
27782W        W43591   5.871   6.750   4.710 -0.0439 -0.1220 -0.0954
27783W        W43592   2.561  15.164  16.521  0.2685  0.2511  0.1704
27784W        W43593   4.629   7.431   5.195  0.1847 -0.3392  0.0553
27785W        W43594   9.213   4.716   3.823  0.0060 -0.2790 -0.0152
27786W        W43595   7.015  16.633  15.623 -0.4587  0.2383 -0.4190
27787W        W43596   0.818  17.076   1.906 -0.0434  0.1196 -0.1629
27788W        W43597   3.170  12.806   0.360 -0.0865 -0.0257  0.0263
27789W        W43598  16.486  13.348  16.547  0.1901  0.1096  0.0973
27790W        W43599   6.092   0.212  15.664 -0.1388 -0.1073 -0.1235
27791W        W43600  13.035  11.666   5.286  0.2017  0.1610  0.1394
27792W        W43601   0.164   6.740   1.217 -0.1449  0.2160 -0.0134
27793W        W43602   9.915   9.357   0.554  0.0862  0.1072 -0.3163
27794W        W43603   1.198  10.050   3.352  0.1738  0.2578  0.1271
27795W        W43604   1.084   4.204  13.703 -0.0915 -0.0262 -0.2373
27796W        W43605   6.235   1.332   1.027 -0.0488  0.0904  0.0767
27797W        W43606  14.252   2.407   0.377  0.4100 -0.2698 -0.1470
27798W        W43607  13.468   9.979  14.177 -0.1028  0.0666 -0.1423
27799W        W43608  16.841   7.695   2.698 -0.2633 -0.2325  0.1805
27800W        W43609  17.220   8.727  15.549  0.3531  0.1478  0.0076
27801W        W43610  13.314   7.364  15.889  0.3707  0.0463 -0.1792
27802W        W43611   2.225   1.218   3.854 -0.1230 -0.4069  0.0630
27803W        W43612  12.778   8.009   0.609 -0.0690  0.0770 -0.3459
27804W        W43613  15.812   7.162  10.928  0.2482 -0.1240 -0.0449
27805W        W43614   7.049  12.730  14.584 -0.1452  0.0117 -0.1217
27806W        W43615  11.474   9.090   1.410 -0.2070  0.2162 -0.0621
27807W        W43616   6.287   8.198  16.096 -0.1555  0.0361 -0.1259
27808W        W43617  10.129   2.137   4.383  0.0312  0.1774 -0.0263
27809W        W43618  13.038   4.115   1.841 -0.0211 -0.3340 -0.1703
27810W        W43619   9.137   9.826   2.036  0.0049 -0.1877  0.1065
27811W        W43620   2.976   4.141  12.037 -0.0578 -0.0187  0.1003
27812W        W43621  17.420  11.083   3.000  0.0292 -0.1192 -0.0165
27813W        W43622   0.679   1.209  12.304  0.3584 -0.1130  0.1194
27814W        W43623   9.184   0.400  16.008 -0.2393  0.1072  0.1101
27815W        W43624   2.586   4.594  14.272  0.1821 -0.3068 -0.0400
27816W        W43625   5.412  10.518   4.051  0.0890  0.1451 -0.0981
27817W        W43626   9.567  13.864  15.142  0.0285 -0.2135  0.0519
27818W        W43627   3.096   6.392  16.616  0.2055 -0.0506 -0.2205
27819W        W43628  12.503   6.451  15.570 -0.0459  0.0801 -0.0652
27820W        W43629   1.166  13.510   6.035 -0.2512 -0.0255 -0.4131
27821W        W43630  10.131   6.076   0.517  0.1381  0.1304  0.0903
27822W        W43631  15.524   3.157  15.063  0.1594 -0.0735 -0.0433
27823W        W43632   5.908   4.235   1.955 -0.2494  0.0134 -0.1718
27824W        W43633  13.604  14.693  14.835  0.2785  0.0982 -0.0511
27825W        W43634   3.403  16.528   3.449  0.0755  0.0384  0.1472
27826W        W43635   0.648   2.851   0.299 -0.2331 -0.2314 -0.2002
27827W        W43636  13.612  17.099  11.443 -0.1417  0.2500  0.1083
27828W        W43637   8.452   4.008   2.708 -0.0552 -0.1971  0.2527
27829W        W43638   6.920  14.665   1.193  0.2263  0.2904  0.3771
27830W        W43639   3.353  15.515   4.866  0.0341  0.2524  0.2226
27831W        W43640   5.823   4.625   2.997  0.2734  0.2390  0.0302
27832W        W43641   8.504   5.214   0.456  0.0303 -0.0297  0.0196
27833W        W43642  14.578   7.493  15.036 -0.0588 -0.0940 -0.0220
27834W        W43643  16.468   1.831  16.776  0.1643  0.3870 -0.1924
27835W        W43644   6.207   5.626  15.784  0.2541  0.1239 -0.2105
27836W        W43645  11.661  16.293   1.082  0.0260  0.1713  0.0121
27837W        W43646   2.414   9.845   5.823  0.3975 -0.0238 -0.1533
27838W        W43647   0.317   6.863   1.971  0.1153 -0.0690 -0.1410
27839W        W43648   0.652  11.693  13.529  0.0613 -0.0504  0.1788
27840W        W43649   8.587   7.757  14.382 -0.0124  0.0949  0.1655
27841W        W43650   1.936  12.330  13.891  0.1222 -0.1099 -0.0895
27842W        W43651  13.453   2.614  14.748  0.0668  0.0816  0.1491
27843W        W43652  10.749   0.006  13.440  0.2235 -0.1413  0.1827
27844W        W43653   8.381   6.919  16.979  0.1597 -0.1083  0.2902
27845W        W43654   5.587   2.624   2.697 -0.1842  0.1401 -0.0998
27846W        W43655   8.432  11.731   1.316 -0.3990 -0.2674 -0.1028
27847W        W43656  11.457  12.265   5.564  0.0026 -0.0451  0.0067
27848W        W43657   3.621   0.614   6.100 -0.0215 -0.3217 -0.2419
27849W        W43658   0.529  14.694  12.528 -0.0386  0.2788 -0.0421
27850W        W43659  14.681   4.857   4.730  0.1278  0.0121  0.2277
27851W        W43660   1.700   6.569   5.720  0.0360 -0.2443  0.2097
27852W        W43661   3.070  14.888   0.310 -0.1001 -0.3459 -0.2028
27853W        W43662  12.229   2.474  14.671 -0.0892 -0.0696  0.2444
27854W        W43663   3.653   2.030  16.672  0.1080  0.1118  0.2480
27855W        W43664   7.300   6.269  12.831  0.0487  0.0072 -0.0205
27856W        W43665  11.670  13.081   0.193  0.0296  0.1284  0.0202
27857W        W43666  13.444  12.578   5.427  0.0560 -0.0808  0.1382
27858W        W43667  15.591   4.915   1.837 -0.0889 -0.1101  0.0094
27859W        W43668  12.632   4.048   5.352  0.1093 -0.2905  0.2823
27860W        W43669   4.171   5.502  16.744  0.1383  0.2066  0.0262
27861W        W43670   2.122   6.603   2.447 -0.2471  0.1147 -0.0380
27862W        W43671   9.865   7.091  12.640  0.0087  0.0760  0.2845
27863W        W43672  16.142   0.444   3.788 -0.0434 -0.1726 -0.1180
27864W        W43673   5.332  12.149  12.909  0.1612  0.0204  0.3607
27865W        W43674   1.081  14.768  14.298 -0.1186 -0.1984 -0.0050
27866W        W43675   9.305  15.454  11.234 -0.0679 -0.1003 -0.0208
27867W        W43676  14.467   3.347  15.192 -0.0344  0.0488  0.0535
27868W        W43677   5.848   4.139   4.221  0.1970 -0.0984 -0.0613
27869W        W43678   1.371  16.233   2.173 -0.0872  0.0019  0.1384
27870W        W43679  14.442   6.489   0.761  0.1585 -0.1948 -0.0666
27871W        W43680  12.259  17.552   4.285 -0.1602  0.0440  0.3353
27872W        W43681   5.201   8.426   0.175 -0.1170  0.2400 -0.4390
27873W        W43682  11.329  12.200   2.170  0.2970 -0.0021  0.0578
27874W        W43683   9.063   1.868  12.565 -0.2826  0.1882  0.0129
27875W        W43684  12.295   7.674  13.963  0.1495  0.0183  0.0782
27876W        W43685  14.037  15.810   0.221  0.0835  0.0323  0.0915
27877W        W43686   6.689   4.458   2.123  0.1195  0.0700  0.1286
27878W        W43687   4.410   0.879   3.731 -0.1431  0.0633 -0.0040
27879W        W43688   5.516  14.075   2.200  0.0865 -0.0430 -0.0618
27880W        W43689  15.636  11.164   1.590  0.2205 -0.0037 -0.1849
27881W        W43690   0.225   1.572   4.052 -0.1053  0.0035  0.2524
27882W        W43691  13.905   4.093   0.437  0.0537  0.0101  0.0650
27883W        W43692   6.232   7.956   3.070  0.1680  0.0046 -0.0683
27884W        W43693   1.925  14.342  14.093  0.0228 -0.0734 -0.0379
27885W        W43694  10.961  10.001  15.884 -0.4536  0.1126  0.0345
27886W        W43695  11.762   9.268  13.473  0.0673 -0.0451 -0.0922
27887W        W43696  10.678  13.323  14.058  0.2452 -0.0072  0.0053
27888W        W43697   3.787  13.211   1.680  0.0029 -0.2018  0.3688
27889W        W43698  17.559   1.672   0.983  0.0585 -0.0966 -0.0023
27890W        W43699  13.832   7.654  14.244 -0.2434  0.1375  0.0999
27891W        W43700   0.824  17.627  14.205  0.1844 -0.1093  0.0618
27892W        W43701   6.928   8.463   2.659 -0.0158  0.0504 -0.3036
27893W        W43702   5.850  15.018   0.585  0.0587  0.1566 -0.1925
27894W        W43703   4.035  12.396   2.274  0.3180  0.0047  0.5206
27895W        W43704  13.011   2.924  11.936  0.0094 -0.3028  0.0569
27896W        W43705   0.761  11.107   3.695  0.0143  0.2058 -0.0019
27897W        W43706   9.617   2.365  15.125 -0.2268 -0.0684  0.1135
27898W        W43707   4.454  13.784   1.171 -0.0273  0.1258  0.2426
27899W        W43708  13.148   5.118  12.278 -0.4783 -0.0569  0.2672
27900W        W43709   9.689   0.508   4.924  0.0129 -0.3950 -0.1893
27901W        W43710  12.685   2.696  16.295 -0.0355 -0.2388 -0.1381
27902W        W43711   5.719   7.607  14.473 -0.0163 -0.3885 -0.2375
27903W        W43712  12.384   0.813  11.929 -0.1944 -0.2015 -0.1861
27904W        W43713   6.902  14.165   4.159  0.2304 -0.0929 -0.2098
27905W        W43714   2.757   6.293   3.152  0.1132 -0.1850  0.0492
27906W        W43715   5.562  14.070  16.029 -0.1315  0.0368  0.0358
27907W        W43716  11.831   9.726   2.126 -0.0865 -0.1555 -0.1371
27908W        W43717  16.858   8.256  16.535 -0.1738 -0.0218 -0.0506
27909W        W43718  16.743  15.526  15.944 -0.0023  0.4476  0.0329
27910W        W43719   5.348  11.164   1.314 -0.1602 -0.0317 -0.3259
27911W        W43720   5.612   3.664   5.832  0.1931  0.0616  0.0659
27912W        W43721  14.102  14.818  15.099  0.1524  0.0880  0.1338
27913W        W43722  14.061   5.059  16.717  0.1205  0.2954 -0.2003
27914W        W43723   8.459  14.427   5.681  0.2177 -0.0255  0.1444
27915W        W43724   1.745   7.033  15.929  0.0626  0.0520  0.0425
27916W        W43725  15.034   1.967  15.080  0.1201 -0.2329 -0.0306
27917W        W43726  14.717   8.341  11.859 -0.0115 -0.0986  0.0102
27918W        W43727   2.356   4.643  12.569  0.0773  0.1441 -0.0103
27919W        W43728  15.022   1.825  15.581  0.0066  0.3591  0.3375
27920W        W43729   3.677  17.583  14.233 -0.0004  0.2914 -0.1822
27921W        W43730   3.528  16.124   0.019 -0.2812  0.0725 -0.0330
27922W        W43731   4.380   7.496  13.967 -0.1616 -0.4343 -0.0692
27923W        W43732   3.635   7.156  11.576 -0.1311 -0.0232  0.0053
27924W        W43733   0.990   0.578   0.577 -0.1091  0.1653 -0.1074
27925W        W43734  14.144   8.530  12.785 -0.2232  0.0501  0.1696
27926W        W43735  13.384   3.806   1.738  0.0659  0.4475 -0.0340
27927W        W43736   6.519   0.241  11.067 -0.1125 -0.1172 -0.0568
27928W        W43737   2.153   4.130  16.011 -0.2944  0.2481 -0.0884
27929W        W43738  10.227   0.519   4.993  0.2348 -0.3842 -0.1738
27930W        W43739  10.074   9.695  11.685  0.1333  0.2367 -0.0012
27931W        W43740  15.745  15.696   2.248  0.1063 -0.3787 -0.0698
27932W        W43741  11.145   5.609  12.153  0.3660  0.2345  0.0799
27933W        W43742  17.312   0.237   2.659 -0.3278  0.2448 -0.0799
27934W        W43743  13.673  16.852   0.798  0.4560  0.4223  0.2398
27935W        W43744   5.035   8.167   4.110 -0.0502  0.1801  0.1262
27936W        W43745  14.709   1.338   3.204 -0.1274 -0.2377  0.1436
27937W        W43746   8.090   7.119   5.044 -0.1476  0.2236 -0.1385
27938W        W43747  10.501   7.335   0.504  0.1726 -0.2979  0.0879
27939W        W43748   8.087  16.450  15.767 -0.0444 -0.2115 -0.3676
27940W        W43749  16.665   2.763  16.683 -0.0650 -0.0360 -0.2023
27941W        W43750  12.885   8.380  14.761  0.2059 -0.1678 -0.0835
27942W        W43751  14.938   3.096  15.145 -0.1454  0.2593  0.2616
27943W        W43752  10.210   8.975   0.273  0.2151 -0.1888 -0.5027
27944W        W43753   8.141   1.253   0.285  0.0970  0.0199 -0.4103
27945W        W43754   7.211  16.913   0.317  0.1622 -0.3593  0.2576
27946W        W43755   1.916  15.569  15.161  0.0620 -0.2159  0.1349
27947W        W43756   9.070   3.639   4.682  0.3987 -0.2271  0.1257
27948W        W43757   8.789   3.293   4.487 -0.0815  0.2606  0.1638
27949W        W43758  16.091   4.577   0.516 -0.0878 -0.0774 -0.2283
27950W        W43759   6.517  11.806  10.325 -0.0436  0.0304 -0.1368
27951W        W43760   3.455  10.708  12.502 -0.0047 -0.1289 -0.3264
27952W        W43761  11.612   9.450  16.385 -0.3937 -0.0389 -0.1297
27953W        W43762   7.697   3.637   5.527  0.1667  0.0198  0.0106
27954W        W43763   3.913   9.174  16.065  0.1798  0.0688 -0.0774
27955W        W43764  16.628  12.283  12.644  0.0912 -0.1040 -0.3364
27956W        W43765   3.960  15.458  14.900  0.0889 -0.0200  0.0722
27957W        W43766  14.686   3.699   5.570  0.3582  0.2979 -0.4240
27958W        W43767   4.202  14.518  13.812 -0.1408 -0.0820  0.2675
27959W        W43768   0.920   0.426  12.614  0.0033  0.0684  0.1945
27960W        W43769   8.704  12.726   0.312  0.1756 -0.0888 -0.0659
27961W        W43770  10.158   3.857   0.717 -0.0194  0.1915 -0.2286
27962W        W43771   1.715   0.682  13.308  0.0472 -0.1650 -0.0647
27963W        W43772   0.547  17.200  14.959 -0.0348 -0.0285  0.0605
27964W        W43773   4.696  12.106  13.840  0.3602 -0.2314  0.0364
27965W        W43774  17.547   5.050  12.233 -0.1502 -0.2253  0.0311
27966W        W43775   8.430   3.598   4.388  0.1408 -0.3613 -0.2600
27967W        W43776   2.995  11.507  11.621  0.1975 -0.2670  0.0105
27968W        W43777   3.784  13.064   5.456  0.1854 -0.1400 -0.1217
27969W        W43778  14.302  16.665   4.603  0.0276 -0.1097  0.0182
27970W        W43779   8.234   4.762   4.977  0.0057 -0.1569  0.2839
27971W        W43780   9.711   3.031   0.514  0.0301 -0.2268 -0.0320
27972W        W43781  17.707   7.139   3.922  0.2969 -0.4526  0.0942
27973W        W43782  13.640  12.290   2.949  0.2160  0.1263  0.2119
27974W        W43783  17.438   3.960  16.312  0.0288  0.0853  0.1624
27975W        W43784   5.229  15.041   1.741  0.1418  0.0740  0.0477
27976W        W43785  11.778   3.037   0.802 -0.3060 -0.1386 -0.3383
27977W        W43786   9.667   9.365   5.261  0.1137 -0.2025  0.2560
27978W        W43787   3.889  15.675   6.421 -0.1471 -0.2038  0.4516
27979W        W43788   9.324   2.419  16.506  0.1410  0.0278  0.3224
27980W        W43789  15.357  13.192  15.717 -0.2191  0.0220  0.1262
27981W        W43790   3.483  17.220   0.252  0.0500  0.0094 -0.1646
27982W        W43791   0.413   5.116  12.879  0.0035 -0.0046  0.3675
27983W        W43792   5.996  10.484  13.342 -0.1886 -0.1146 -0.1214
27984W        W43793  14.752  12.347   5.767 -0.2159  0.1348 -0.0697
27985W        W43794  17.306   7.975   1.514 -0.0929 -0.0702 -0.3084
27986W        W43795  11.674  16.019   1.576  0.0504  0.1822 -0.0915
27987W        W43796   1.999  15.266   3.979 -0.1605  0.0912  0.1614
27988W        W43797  15.462  10.680  16.730  0.5406  0.0169 -0.0856
27989W        W43798  14.655  15.795   5.033  0.0037  0.1319 -0.0873
27990W        W43799  15.197   1.598   1.688 -0.3373 -0.0298 -0.3758
27991W        W43800  14.602   1.703  16.431  0.0263  0.1228 -0.0251
27992W        W43801  17.691  16.919   4.231  0.2729 -0.2013 -0.0317
27993W        W43802  13.672   7.624   1.272 -0.0853  0.0818  0.1205
27994W        W43803  17.337  16.019   3.956 -0.0930 -0.2282  0.2513
27995W        W43804   8.459  16.729  13.040  0.0360 -0.2835  0.1825
27996W        W43805   3.354  12.278  16.763  0.1136  0.0335  0.6025
27997W        W43806  10.335  12.804  12.638 -0.2015 -0.1845  0.1703
27998W        W43807   9.901   0.549  14.387 -0.2031  0.0911 -0.1487
27999W        W43808  17.730   8.976  15.706  0.0464  0.0305  0.1489
28000W        W43809  12.314   6.130   6.244 -0.2164  0.0735  0.2261
28001W        W43810   6.352   6.159   4.595 -0.2975 -0.1764 -0.0677
28002W        W43811   1.277  16.890  11.826 -0.1452 -0.1137 -0.1929
28003W        W43812   8.670  15.909  11.608 -0.0489 -0.0345 -0.2743
28004W        W43813  15.042   9.389  12.844 -0.1381 -0.4387 -0.1704
28005W        W43814  10.138   4.382  14.081 -0.2578 -0.2355  0.0650
28006W        W43815   4.133   4.724   3.225  0.1486 -0.3032  0.0210
28007W        W43816  10.304   8.173   0.744 -0.0495  0.1383  0.0022
28008W        W43817  16.841   4.616  14.208 -0.2647 -0.1343  0.1941
28009W        W43818   5.581  17.370  10.633  0.0929 -0.0599 -0.2949
28010W        W43819  14.936   8.123  16.816  0.2834  0.0177  0.1246
28011W        W43820  13.048  13.311   2.570 -0.1502 -0.2614 -0.2427
28012W        W43821   0.291   1.745   0.676  0.1526  0.1244 -0.0492
28013W        W43822  13.350   7.707  15.343  0.2158  0.0758  0.1766
28014W        W43823   5.482   5.569   2.387 -0.1238  0.0790  0.1927
28015W        W43824   0.434  14.516  16.822  0.1724  0.0071 -0.3711
28016W        W43825   9.424   9.242   5.678  0.0503  0.1754  0.3006
28017W        W43826  16.846   1.559   4.737 -0.0479  0.3104  0.2151
28018W        W43827   9.867   0.171   5.303 -0.2693 -0.1537  0.2598
28019W        W43828  12.444   9.808  13.709  0.0173  0.1420 -0.0034
28020W        W43829   4.121  16.818  15.586  0.0925  0.0434  0.3066
28021W        W43830  15.869  11.086  12.031 -0.0505  0.0205  0.3622
28022W        W43831   3.396   4.163  16.182  0.1766 -0.0313 -0.1071
28023W        W43832   5.429   0.102  13.226  0.0343  0.3094 -0.1786
28024W        W43833  15.623  10.729   5.498 -0.0559  0.0967 -0.0737
28025W        W43834  10.260   7.623   4.504  0.0410 -0.0411  0.0403
28026W        W43835  17.686   4.176   4.476 -0.1310  0.2045 -0.2120
28027W        W43836  15.111  16.510   3.855 -0.0162 -0.1043 -0.0575
28028W        W43837   8.660  16.380  11.779 -0.1692  0.0499  0.1616
28029W        W43838   4.106  11.071   3.559  0.2336  0.2620 -0.1771
28030W        W43839   9.019  13.897   2.376  0.0994 -0.1308 -0.2957
28031W        W43840  11.694   6.271   3.818  0.1048 -0.0299  0.2499
28032W        W43841   3.309  17.638   6.195  0.2388  0.1725  0.0532
28033W        W43842   8.396   4.950   3.330 -0.1291 -0.1216 -0.3620
28034W        W43843   9.844  14.412  12.585  0.1771  0.1996  0.1283
28035W        W43844  16.081   7.406  12.670 -0.0283  0.2750  0.0438
28036W        W43845   3.981  17.215  14.405  0.2543  0.0630 -0.4326
28037W        W43846  10.530   3.570   4.384 -0.0493 -0.2404  0.1480
28038W        W43847  10.306  11.707   4.455  0.0124  0.1208 -0.0131
28039W        W43848   4.225   2.187   0.730 -0.0791 -0.1571  0.0817
28040W        W43849  14.810  13.457  14.166  0.1512  0.1070  0.3663
28041W        W43850  14.625  12.806  13.721 -0.2351 -0.2503  0.1758
28042W        W43851  16.775  14.640   3.445 -0.0122 -0.1837  0.2462
28043W        W43852   1.657   0.844  15.918  0.1584  0.0169  0.0062
28044W        W43853   6.806  10.181   2.961 -0.0993 -0.2847  0.1896
28045W        W43854   9.315  10.620   4.273 -0.1372  0.2974  0.0647
28046W        W43855  17.734   1.698  13.832  0.2710  0.2715 -0.1098
28047W        W43856  14.461   2.855   6.066 -0.1924  0.2540 -0.0777
28048W        W43857  13.274   7.175  15.339  0.0522 -0.0569 -0.0541
28049W        W43858   8.580  15.518  13.088 -0.3059 -0.0391  0.1562
28050W        W43859  14.370   4.333   0.411 -0.1853  0.2196  0.0608
28051W        W43860  10.697  13.565   5.543 -0.2471  0.0411 -0.0004
28052W        W43861   1.219   8.599  13.918  0.1605  0.1411  0.0068
28053W        W43862   4.406  14.989   2.810  0.1972  0.2132  0.0247
28054W        W43863   9.622  17.004  13.309 -0.0296 -0.2748 -0.0089
28055W        W43864  13.256   6.742   5.700 -0.3135 -0.1461 -0.1431
28056W        W43865   5.120   3.152  13.577  0.0267  0.0335  0.1603
28057W        W43866   0.639  14.096  12.316 -0.0020 -0.1660  0.2642
28058W        W43867   3.869   9.136  14.652  0.1445 -0.2644  0.1625
28059W        W43868  17.272   8.341   0.709 -0.0498 -0.1991 -0.3777
28060W        W43869  14.306   4.050  14.814  0.1652 -0.1244 -0.1284
28061W        W43870   1.041  10.998  12.449  0.0442  0.0335 -0.1153
28062W        W43871  10.308  11.006  14.444 -0.1153 -0.0977 -0.3939
28063W        W43872   8.722  17.493  14.694  0.1287 -0.3013 -0.1248
28064W        W43873   8.155   2.134   3.550 -0.1322  0.1664  0.2959
28065W        W43874  12.809  14.513  12.402 -0.1656 -0.2529 -0.0443
28066W        W43875   3.534  15.740  15.038 -0.3588 -0.1977 -0.0429
28067W        W43876   1.171   2.094   4.640 -0.1461 -0.2420 -0.2457
28068W        W43877   9.127  10.656   3.460 -0.2134 -0.0762 -0.1517
28069W        W43878   9.764   9.488  15.963 -0.2392  0.1348  0.0701
28070W        W43879   9.475   2.715  16.066 -0.0403  0.2010 -0.0238
28071W        W43880   8.971   6.987  14.088  0.0912 -0.2590  0.2259
28072W        W43881   7.384   2.043  13.249 -0.3696  0.0322  0.0112
28073W        W43882   4.177   0.135   1.216 -0.0650 -0.2011 -0.0729
28074W        W43883  11.975   1.112   5.250  0.1084 -0.0076 -0.1861
28075W        W43884   2.016  12.833   5.404  0.2087 -0.0145  0.0968
28076W        W43885   6.257  17.646  12.992 -0.2347 -0.0399 -0.0477
28077W        W43886  14.669   5.068   4.139  0.1696 -0.1505 -0.1397
28078W        W43887  10.691  14.909  13.454  0.1892 -0.2560  0.0036
28079W        W43888  17.165   6.603  14.472  0.1812 -0.0105  0.1820
28080W        W43889  10.880  16.933  12.329  0.0424 -0.0109  0.2038
28081W        W43890  14.633   8.199  13.706  0.0313  0.0784  0.0685
28082W        W43891  12.855  12.893  16.808 -0.1057  0.0272  0.1393
28083W        W43892  16.016  16.798   4.956 -0.1628  0.1187 -0.0039
28084W        W43893   6.675  14.234   5.002  0.1226  0.0809 -0.2642
28085W        W43894   0.656   0.959   5.205  0.2974  0.1135 -0.0247
28086W        W43895  17.203   9.301  11.864 -0.1456  0.1027  0.1427
28087W        W43896   0.859   5.114  15.486 -0.1367  0.1163 -0.1366
28088W        W43897   4.904   6.334  15.458  0.2050  0.0499  0.3708
28089W        W43898   2.261   0.401  15.506 -0.0810  0.0378  0.1059
28090W        W43899   1.502  15.102  12.465  0.2642 -0.1479 -0.1384
28091W        W43900  12.099  13.803  12.307 -0.1250 -0.1794 -0.1720
28092W        W43901   1.195  14.881   5.495  0.2978  0.1122 -0.2441
28093W        W43902   2.961   0.162   3.133  0.1846  0.2076  0.0031
28094W        W43903  17.033  16.450  16.910 -0.0943 -0.2606 -0.1749
28095W        W43904  13.989   0.382  14.201 -0.0882 -0.1752 -0.0746
28096W        W43905  10.362  17.335   3.981 -0.2274 -0.0233 -0.2181
28097W        W43906  12.902  11.619  12.348 -0.0859 -0.0314 -0.0322
28098W        W43907   2.196   3.421  13.976  0.1697 -0.0041 -0.1853
28099W        W43908  16.384  14.213  11.992 -0.1320 -0.1418 -0.0832
28100W        W43909  14.841   1.519  12.620  0.1242  0.2017 -0.2583
28101W        W43910   5.895  17.589   1.518  0.1801 -0.1653 -0.1191
28102W        W43911   8.148  15.733   2.822  0.0379  0.5186  0.0720
28103W        W43912   9.807  11.977   4.890  0.1682  0.1291 -0.2737
28104W        W43913   8.052   5.779   4.793  0.2926  0.1813 -0.1872
28105W        W43914  11.781   1.640  15.594 -0.0960 -0.1221  0.2688
28106W        W43915   6.283  10.671   3.667  0.0762 -0.0145 -0.3406
28107W        W43916  16.726  16.586  14.592  0.0835 -0.0080 -0.0180
28108W        W43917  10.015  16.964  13.588 -0.0431 -0.1414 -0.0927
28109W        W43918  15.622   4.225  12.592  0.2318  0.1901  0.1087
28110W        W43919  12.477  14.880  14.458 -0.1922 -0.3114 -0.0474
28111W        W43920   0.349  14.110   3.292 -0.2264 -0.1172  0.0156
28112W        W43921   2.914  11.526   5.521 -0.1811  0.1814 -0.0023
28113W        W43922  15.355   5.762   6.188 -0.0462  0.5142 -0.0686
28114W        W43923  14.147   9.957   2.687  0.2796 -0.1512 -0.1969
28115W        W43924   7.210  16.157  15.460 -0.2588 -0.0634 -0.0801
28116W        W43925   5.961   2.506  12.343 -0.1144  0.0460 -0.0190
28117W        W43926  15.988   2.306   4.482 -0.1854  0.1156  0.1292
28118W        W43927  16.876  13.634   5.138 -0.2021  0.0215 -0.0038
28119W        W43928   0.900   3.892   6.547 -0.0310  0.0337  0.1724
28120W        W43929  13.447  14.172  14.145 -0.0642 -0.0742 -0.1854
28121W        W43930   6.795  12.633  16.566  0.1311 -0.3442 -0.1909
28122W        W43931   2.764  17.517   5.039 -0.1292  0.0178 -0.0665
28123W        W43932   1.992  15.120  13.956 -0.0217  0.1244  0.0587
28124W        W43933   6.114   2.293   3.556  0.2829 -0.1307 -0.0794
28125W        W43934  10.696   3.071   5.039 -0.4278 -0.2377 -0.0549
28126W        W43935   0.780  13.563  14.075  0.0512  0.0141 -0.0101
28127W        W43936   5.079   8.669   2.949  0.2115 -0.2655  0.2839
28128W        W43937  16.798   7.684  13.161 -0.2542  0.1842 -0.1170
28129W        W43938  16.453   8.647   3.478 -0.0097  0.0284 -0.1681
28130W        W43939  15.749   1.767  16.659  0.0449  0.1572  0.3502
28131W        W43940  11.961  13.809  15.824  0.2606 -0.0375 -0.0099
28132W        W43941  12.568  13.230   1.070  0.1636  0.0426 -0.1713
28133W        W43942  16.126   9.510   1.546  0.1966  0.0271  0.3804
28134W        W43943  14.134   5.052  12.781  0.3281 -0.0462  0.2111
28135W        W43944  13.305   3.218   1.949 -0.1068 -0.0848 -0.0089
28136W        W43945   6.327  16.717   1.329 -0.1039  0.0269 -0.1567
28137W        W43946  16.921  12.264   5.196 -0.1336 -0.2510 -0.0096
28138W        W43947  12.170   8.433   5.863  0.2633  0.2318 -0.2311
28139W        W43948   4.496  13.767  14.846 -0.2516 -0.0380  0.3393
28140W        W43949   3.342  13.537   3.096 -0.1266 -0.0772 -0.2052
28141W        W43950   8.304   4.947   1.005  0.0889 -0.0936 -0.0908
28142W        W43951   8.619   2.963  16.989 -0.2689  0.1524  0.1210
28143W        W43952   9.783  12.713  14.101  0.0191  0.1377  0.0471
28144W        W43953  16.483  15.126  15.109 -0.0911  0.0235 -0.0501
28145W        W43954   9.881   8.725  14.141  0.2209 -0.0619  0.0268
28146W        W43955   4.995   1.697   3.466  0.0291 -0.0698 -0.1080
28147W        W43956   8.695   6.372   1.995 -0.1365  0.0944  0.2015
28148W        W43957   1.891  16.122   1.574  0.1262  0.2051  0.1883
28149W        W43958   3.236   0.795   5.765  0.0125 -0.0724 -0.0171
28150W        W43959  16.498  11.709   1.859  0.1351 -0.2572  0.0601
28151W        W43960  13.951  12.460  14.350 -0.1489 -0.1373 -0.0941
28152W        W43961   9.923   5.790   3.762 -0.1339 -0.1938  0.0446
28153W        W43962   1.876   3.739   5.366  0.1142  0.0687 -0.3432
28154W        W43963  16.712   7.593  16.530  0.2811 -0.2979  0.1791
28155W        W43964   6.164  16.640  11.890 -0.1448 -0.1270  0.1815
28156W        W43965   8.903   4.479  12.624  0.0567 -0.0175  0.0767
28157W        W43966   3.385   6.231   2.105 -0.0575 -0.2393  0.3508
28158W        W43967   9.346  13.693  13.835 -0.3143  0.3816  0.1032
28159W        W43968   4.299   3.728   5.383  0.2965 -0.0275 -0.1083
28160W        W43969  12.658   7.698   2.786  0.0057 -0.0422 -0.0108
28161W        W43970   8.094   0.326  14.512  0.1017  0.0072 -0.0979
28162W        W43971  11.748   3.051  16.845 -0.0071  0.1212  0.3019
28163W        W43972  13.977   9.479  12.618 -0.0989 -0.2234 -0.0244
28164W        W43973   6.124   1.445  14.054 -0.3208  0.4077 -0.0927
28165W        W43974  13.295  13.626  14.114  0.1107 -0.1639  0.4877
28166W        W43975   7.196  11.375   0.992 -0.2749  0.0148  0.3367
28167W        W43976   7.753  15.267  14.011  0.1202 -0.1021 -0.1552
28168W        W43977  14.043   9.050   0.230 -0.0041  0.1097  0.2867
28169W        W43978   7.116   6.761  12.805  0.2274  0.3066 -0.1978
28170W        W43979   2.087  12.880   4.544 -0.1403  0.0012  0.1600
28171W        W43980   2.657   3.423  16.502  0.2226 -0.1777 -0.0946
28172W        W43981   2.873   3.604  12.376  0.0125 -0.0198 -0.0085
28173W        W43982   2.016   6.708  15.176 -0.1517  0.1198  0.2494
28174W        W43983   2.921  12.191   1.644 -0.0086 -0.0463 -0.0139
28175W        W43984  15.195   3.399  15.408 -0.2421 -0.0870  0.2485
28176W        W43985   2.109   7.362  16.886  0.1014 -0.3160 -0.1443
28177W        W43986  14.944   3.549   2.206 -0.1129 -0.1491  0.2317
28178W        W43987   0.829   4.543   5.633  0.1225  0.0644 -0.0852
28179W        W43988   5.993  16.689  13.989  0.1602  0.0184  0.2823
28180W        W43989  11.115  11.339  16.525  0.2409 -0.1913 -0.2482
28181W        W43990  11.819  16.677   0.857  0.0427  0.0540 -0.1406
28182W        W43991  12.214  12.582   4.384  0.0615 -0.2011  0.0917
28183W        W43992   6.254   9.856   0.395  0.0431  0.5935  0.1138
28184W        W43993   8.900  16.449   1.638 -0.2628 -0.1193 -0.2599
28185W        W43994  10.468  10.175  16.773 -0.1190 -0.0842  0.1219
28186W        W43995   0.030   7.837  12.286 -0.2043 -0.4295 -0.0608
28187W        W43996  17.283  11.779   0.487  0.4002  0.0821  0.3425
28188W        W43997   3.831   9.027   2.075 -0.0365  0.0928  0.1820
28189W        W43998  12.860  12.449  14.847 -0.1200  0.2167  0.1834
28190W        W43999   7.038   4.257   4.736  0.0421  0.1666  0.2901
28191W        W44000   5.903  17.131  13.667  0.0409 -0.2023 -0.0898
28192W        W44001   4.425   1.738   4.397  0.0369 -0.1183  0.2393
28193W        W44002  15.483   9.514   3.581  0.0882  0.1104 -0.1928
28194W        W44003  16.535   7.115  12.607  0.0198  0.3110  0.0398
28195W        W44004  11.089  16.305   4.230 -0.1005 -0.0935  0.1793
28196W        W44005  15.633  15.417   1.184 -0.0246  0.2063  0.1157
28197W        W44006  14.473  17.357  11.597  0.4139  0.0815 -0.0608
28198W        W44007   2.159   4.317   4.345  0.0400 -0.3837 -0.1618
28199W        W44008   2.442   8.072  13.349  0.1431  0.2452  0.2060
28200W        W44009  13.451  16.223  16.625 -0.0104  0.1578  0.0380
28201W        W44010  10.927   7.986   1.626  0.3174 -0.0435 -0.0685
28202W        W44011   5.224   4.267  16.554  0.4905  0.3725 -0.2902
28203W        W44012  15.335  13.794  15.755  0.0779 -0.1020  0.1524
28204W        W44013  10.463  13.740   1.529  0.2081 -0.0325 -0.0881
28205W        W44014   6.168  13.026   2.192 -0.0283 -0.2068 -0.1391
28206W        W44015   3.877   3.143   0.684  0.1756  0.0182 -0.2167
28207W        W44016  16.325  11.141  16.698  0.1121 -0.1987  0.0451
28208W        W44017  13.971  10.219   4.345 -0.1274  0.3826 -0.1898
28209W        W44018  15.806  11.005   6.296  0.0234 -0.1473 -0.2219
28210W        W44019  13.658   3.350   0.717 -0.1326  0.0839  0.0427
28211W        W44020  14.328   2.492  16.925 -0.0642  0.2192 -0.1998
28212W        W44021  15.806  10.329  16.725  0.1568  0.0550  0.2879
28213W        W44022   6.754   3.723  13.247  0.2207 -0.5532 -0.1041
28214W        W44023   2.458   1.809  15.197  0.2733 -0.1303  0.2041
28215W        W44024   7.057  11.980  11.709  0.0113 -0.0645  0.0565
28216W        W44025   5.819   8.475  16.136  0.0803  0.2973 -0.1999
28217W        W44026   2.006  11.339  13.769  0.1258 -0.3269  0.5361
28218W        W44027   6.207  10.560  15.124 -0.0359  0.3119 -0.1784
28219W        W44028   8.123  13.255  11.189  0.0019 -0.0589  0.0832
28220W        W44029   6.457  13.437   4.327  0.1796  0.1207  0.1513
28221W        W44030  14.294  14.072  12.352  0.0433 -0.3110  0.1300
28222W        W44031   3.496   1.901   5.351 -0.1975  0.0507  0.0182
28223W        W44032   1.893  11.852  12.137 -0.0698  0.1855  0.0380
28224W        W44033  17.723   5.029  13.889 -0.0022  0.0460  0.2813
28225W        W44034   8.503  12.952  15.278 -0.0046 -0.0704  0.1422
28226W        W44035   6.494  11.320  12.809  0.2577 -0.0090 -0.0209
28227W        W44036  12.228   8.285   0.444 -0.1550  0.1668 -0.2001
28228W        W44037  12.263   8.234   5.409  0.1280  0.2563  0.2565
28229W        W44038   1.887   5.491  16.987  0.0430  0.3169 -0.1040
28230W        W44039  15.523  14.868  15.321  0.0534 -0.1703  0.1959
28231W        W44040  11.389   5.391   3.610 -0.1799  0.0259 -0.0834
28232W        W44041  11.558  11.453  14.924  0.0685  0.1277  0.0169
28233W        W44042  10.165  10.924   2.110  0.2038  0.0142  0.0112
28234W        W44043   3.069   6.395   4.276  0.3986  0.2837  0.1787
28235W        W44044   2.247   9.764   4.023  0.0751  0.1057  0.0651
28236W        W44045  12.769  15.504  11.823  0.1294  0.1992 -0.3359
28237W        W44046  12.704   6.994   4.232  0.1628 -0.1713  0.2141
28238W        W44047   0.176  12.049  12.298  0.0108  0.2639  0.1589
28239W        W44048  11.931   1.073   3.354  0.2134 -0.0958  0.0651
28240W        W44049  15.940   5.992  16.502 -0.0522 -0.0194  0.3352
28241W        W44050   0.182   4.734  14.953  0.0701 -0.1990 -0.2579
28242W        W44051   3.920   5.585   3.088 -0.0565 -0.0998 -0.0940
28243W        W44052   4.290  11.428  15.857 -0.1833  0.2821 -0.2043
28244W        W44053   6.395   4.726   0.604  0.2389 -0.0445 -0.0181
28245W        W44054   3.293   4.033   5.224 -0.0127  0.3447  0.0851
28246W        W44055   7.680  13.630  13.830 -0.2440 -0.0842 -0.2013
28247W        W44056   5.670   7.783   4.258 -0.3092 -0.0726 -0.0278
28248W        W44057   2.738   9.956   4.062 -0.1441  0.1265  0.0475
28249W        W44058   7.488   9.544  12.435 -0.0726  0.0600  0.2941
28250W        W44059   0.626  15.519  16.298  0.1151  0.0103 -0.0529
28251W        W44060  10.715   8.662  12.452 -0.0347  0.1046 -0.1425
28252W        W44061   5.267   8.047  15.832 -0.3075 -0.1267  0.0903
28253W        W44062  12.017   8.925  13.249 -0.1077 -0.2374  0.4059
28254W        W44063   5.316   8.849   5.643  0.1597  0.0635  0.0143
28255W        W44064  10.926   4.656   5.291 -0.4146  0.2572  0.0281
28256W        W44065   9.809   4.822   2.252  0.0537  0.0872  0.2060
28257W        W44066  16.720   4.583  12.987 -0.0119 -0.0784 -0.4086
28258W        W44067  14.452  12.466  11.716  0.1018 -0.2262  0.0529
28259W        W44068   2.103  17.585   5.514  0.1493  0.1905 -0.0430
28260W        W44069   2.023  16.354   4.677 -0.0453  0.1204 -0.0631
28261W        W44070   2.019  12.151   1.570 -0.2257 -0.1689 -0.0884
28262W        W44071   5.461   7.719   2.377 -0.3873  0.1681  0.0450
28263W        W44072  12.130  16.700   1.551  0.0974 -0.2534  0.2867
28264W        W44073  14.741   9.283   1.838 -0.3045  0.1753 -0.1978
28265W        W44074  12.801  12.957  13.381 -0.1640  0.0602  0.1320
28266W        W44075  17.408   5.656   2.355  0.0769  0.5048 -0.1874
28267W        W44076   0.052   7.620  13.091  0.0020 -0.1451 -0.0013
28268W        W44077   9.349  15.659   2.726  0.1053 -0.0967  0.1757
28269W        W44078  14.421  15.302  15.761 -0.1373 -0.0707 -0.1841
28270W        W44079  11.164   7.973  14.601  0.0321 -0.0478  0.0520
28271W        W44080  12.282   0.548   2.850 -0.3855  0.0884  0.3925
28272W        W44081  13.448  13.948   2.323 -0.0141  0.0409 -0.1855
28273W        W44082   8.513   5.283   4.328  0.1348  0.1433 -0.1143
28274W        W44083  10.622  11.433  15.015 -0.0190  0.1187  0.3937
28275W        W44084  13.974   5.424  12.431  0.0619 -0.0777  0.1438
28276W        W44085   1.477   0.196   0.386  0.0701  0.1245 -0.1164
28277W        W44086  14.692  17.156   5.465 -0.0713  0.1454  0.0742
28278W        W44087  13.321  10.653  15.887 -0.0743 -0.2804 -0.0550
28279W        W44088   2.396  14.122  14.068  0.0086  0.1206 -0.2439
28280W        W44089   5.462   3.391   1.936  0.3645 -0.0263 -0.2440
28281W        W44090  10.617   5.813  11.693  0.0107 -0.1859  0.0469
28282W        W44091  15.314  13.182   4.287  0.1234 -0.2118  0.0341
28283W        W44092   4.548  14.421  11.541 -0.0180 -0.1196 -0.0798
28284W        W44093  15.699   8.279  11.934  0.4249 -0.0728  0.2451
28285W        W44094   8.296  17.205  11.448 -0.2720  0.2162  0.0579
28286W        W44095  14.109  14.655  11.627 -0.0581  0.1702 -0.0445
28287W        W44096  14.917   0.466   1.197  0.2844  0.1190  0.3594
28288W        W44097  17.370   3.393   2.672  0.2180 -0.0124  0.3317
28289W        W44098   4.269  13.402  16.368  0.0307 -0.1104 -0.1453
28290W        W44099   6.420  12.636   2.123  0.1131 -0.2731  0.0867
28291W        W44100   1.168   7.436   0.537 -0.1486 -0.0441 -0.0888
28292W        W44101   3.107   6.943   4.042 -0.3116 -0.0666 -0.1080
28293W        W44102  17.538  16.279  14.259 -0.0678  0.0874  0.0694
28294W        W44103  15.529  12.971   0.036 -0.1467 -0.1077 -0.0134
28295W        W44104  11.502  15.400  11.598 -0.4581 -0.0810 -0.0642
28296W        W44105   2.958   1.784  14.285 -0.0558  0.1756 -0.0781
28297W        W44106  16.543   6.194  12.040 -0.0944  0.0869  0.1656
28298W        W44107   9.852   7.695  14.877  0.1725 -0.0238 -0.0160
28299W        W44108  11.375  16.072  12.410 -0.2368 -0.1425 -0.1165
28300W        W44109  17.656   3.426  11.668 -0.2680  0.4155  0.1405
28301W        W44110   4.604  16.634  14.798 -0.0835  0.3364  0.1947
28302W        W44111   2.437   3.044   2.920  0.1584  0.4275  0.5322
28303W        W44112   9.200   1.963  14.239  0.1273 -0.2524 -0.1435
28304W        W44113   4.695   4.316  12.786  0.1614 -0.0316  0.0753
28305W        W44114  11.044   8.259   5.565  0.0692  0.0415  0.1901
28306W        W44115  17.638   5.141  12.710  0.0610  0.2580  0.3781
28307W        W44116  17.590  14.702   3.066 -0.3393 -0.0147 -0.0865
28308W        W44117   5.904   8.651  13.443 -0.0720  0.1656  0.0654
28309W        W44118  12.428   2.195   6.125  0.0219  0.0463 -0.1041
28310W        W44119  15.892   2.384  13.127 -0.2161  0.0696 -0.2348
28311W        W44120   7.471  12.260  12.443  0.0711  0.0412 -0.0152
28312W        W44121  17.321   9.402   5.002 -0.0734  0.0026  0.0076
28313W        W44122  12.659   9.462  12.881 -0.0111  0.3512  0.0547
28314W        W44123   6.435   1.260  16.312  0.1981  0.0076 -0.0588
28315W        W44124  15.358  16.462  11.993  0.3147 -0.0866 -0.1502
28316W        W44125   4.550   4.396   3.198  0.0014 -0.1782  0.4242
28317W        W44126  17.269  13.819  13.880 -0.0573  0.0074  0.4336
28318W        W44127  14.587   4.765  12.169 -0.1820  0.2813 -0.1728
28319W        W44128  16.136   4.201  16.536 -0.0412  0.1244 -0.4057
28320W        W44129   1.921   9.837   0.599  0.0207  0.0274  0.0883
28321W        W44130   9.757   6.481  14.487 -0.0140  0.0445  0.2449
28322W        W44131   2.267   2.598  15.628 -0.0652  0.0806  0.1869
28323W        W44132   9.637   2.208   2.485  0.0991 -0.1237 -0.0554
28324W        W44133   1.802   8.977  15.122 -0.1440 -0.2275 -0.0032
28325W        W44134  12.713   4.408  16.577 -0.1471  0.0103  0.0797
28326W        W44135   4.230   2.088   4.046 -0.3179  0.3891 -0.2509
28327W        W44136   3.960   8.573  11.898 -0.0194 -0.0378  0.0529
28328W        W44137   5.146   5.582  13.882 -0.2256  0.0530 -0.0258
28329W        W44138  12.039  12.570  14.921  0.1672  0.0541  0.2780
28330W        W44139  15.934  10.296   4.674 -0.0703  0.3556 -0.1737
28331W        W44140   6.758  14.041   3.211 -0.0088  0.2550 -0.3401
28332W        W44141  13.560   3.061  16.431 -0.3595 -0.2247  0.2094
28333W        W44142  11.317   7.624  15.791 -0.3141 -0.0808  0.0292
28334W        W44143   0.404   6.131  15.224 -0.0635 -0.2363  0.0241
28335W        W44144   8.804  16.998  15.354 -0.3086  0.2572 -0.0312
28336W        W44145   4.831   8.098  12.076 -0.0426  0.1100  0.1269
28337W        W44146  14.884   3.638   3.902  0.2130  0.2426  0.0663
28338W        W44147   9.192  16.081  12.680 -0.0187  0.1730 -0.1490
28339W        W44148  11.074   0.023  13.898 -0.0674 -0.0537  0.4660
28340W        W44149   6.564   7.355  16.222  0.0026 -0.1520  0.2376
28341W        W44150   4.759   2.771   0.245  0.0620 -0.1996  0.2987
28342W        W44151  11.793  15.461   5.256  0.1402  0.0595  0.0442
28343W        W44152  11.900   3.975  15.809 -0.1840  0.0235 -0.1231
28344W        W44153   5.540   4.448  13.895 -0.1237 -0.1323  0.0048
28345W        W44154   5.291  11.371  13.623 -0.0322  0.1851  0.0903
28346W        W44155   7.520  14.458   1.995 -0.2246 -0.0693 -0.0714
28347W        W44156  13.564  16.778   1.305 -0.0048 -0.0682 -0.1404
28348W        W44157   1.915  17.607   0.387  0.1282  0.0458  0.2431
28349W        W44158   8.120  17.649  13.038 -0.0922  0.2449 -0.1002
28350W        W44159   7.413  13.285  15.869  0.0768 -0.0260 -0.1010
28351W        W44160  15.946  10.597  15.667  0.2272 -0.2377 -0.1632
28352W        W44161  17.052   8.331   5.619 -0.1620 -0.1673 -0.1671
28353W        W44162   8.443  14.378  15.599 -0.1654  0.0559 -0.1270
28354W        W44163   4.141   0.063   2.507 -0.1599 -0.0883  0.0690
28355W        W44164   4.809   5.050  11.906 -0.0215  0.0011  0.2041
28356W        W44165   0.492  16.771  13.975  0.1396  0.1349  0.0682
28357W        W44166   7.779   9.912  13.282  0.2217  0.1766 -0.3671
28358W        W44167   7.347  10.962   0.784  0.1131 -0.2563  0.0903
28359W        W44168   6.898  15.802   4.029  0.2821  0.1425  0.0677
28360W        W44169   9.210  16.647  11.866 -0.2463 -0.2114 -0.1843
28361W        W44170  11.721   4.434  15.586  0.2155 -0.3076  0.1977
28362W        W44171   9.067   6.693   1.961 -0.0055  0.3339  0.0848
28363W        W44172  14.332   3.025  13.861 -0.1789  0.3357  0.0305
28364W        W44173   6.624   3.518  14.189  0.0851  0.0586 -0.2485
28365W        W44174  13.328   6.269   0.128 -0.4038 -0.0496 -0.1198
28366W        W44175  16.070   3.316   1.773  0.3652 -0.0600 -0.2858
28367W        W44176  16.212  14.912  12.643  0.0049  0.0711 -0.0112
28368W        W44177   3.882  13.736   3.903 -0.0661  0.2509 -0.0463
28369W        W44178   4.955  12.933  15.667 -0.0555 -0.0709 -0.2096
28370W        W44179   9.679   1.396  11.801  0.0755 -0.1420  0.0383
28371W        W44180   2.804  10.175  15.299 -0.3080  0.0270 -0.2328
28372W        W44181   5.042   7.585  12.117  0.1880  0.3558  0.1565
28373W        W44182   5.329  15.638   0.973  0.1329  0.1501  0.2291
28374W        W44183   7.511  10.950   5.073  0.1592  0.1953 -0.2237
28375W        W44184  12.371  12.110   0.791  0.1205 -0.1059  0.0252
28376W        W44185  12.976   5.839   0.151 -0.3302 -0.4134 -0.1251
28377W        W44186   9.479   7.374  14.948  0.1346  0.3528  0.4578
28378W        W44187  16.500  11.107  16.240  0.1251 -0.0182  0.2173
28379W        W44188   3.095   2.189  15.871 -0.3767  0.1286  0.0374
28380W        W44189   8.481   2.752  12.670 -0.0116  0.0408 -0.0778
28381W        W44190  10.763   0.759   2.225 -0.0571 -0.0127  0.2359
28382W        W44191   6.233   3.550  11.044  0.0791  0.0325 -0.1375
28383W        W44192   9.135  16.859   1.926  0.1672  0.0464 -0.2747
28384W        W44193  14.265   5.743  12.137 -0.0758  0.3455  0.0630
28385W        W44194   5.036  12.531  16.522  0.1278  0.0197 -0.2542
28386W        W44195   6.601  12.801  12.850  0.2063 -0.1797 -0.0603
28387W        W44196   8.489   4.323   1.516 -0.0840  0.0759 -0.0521
28388W        W44197   7.371  16.942   3.627  0.0855 -0.0322  0.0531
28389W        W44198  10.054   5.925   5.259  0.2178 -0.0628 -0.0225
28390W        W44199   3.647   6.660  15.049 -0.1140 -0.0923 -0.2289
28391W        W44200   1.710  16.290  14.584  0.1293 -0.5513 -0.0297
28392W        W44201  12.328  13.559   0.370 -0.1870 -0.1126  0.0162
28393W        W44202   5.542   2.667   5.620  0.2846  0.0844 -0.3007
28394W        W44203  14.204  12.618   3.237 -0.1958  0.3889  0.1679
28395W        W44204   5.222   8.711  14.670  0.1832  0.1396 -0.0235
28396W        W44205  15.386   9.634  16.279 -0.1483  0.0639  0.0408
28397W        W44206   9.163   4.047   5.799  0.2786  0.2614 -0.1005
28398W        W44207  14.204   9.315   1.637 -0.2210  0.0799 -0.2902
28399W        W44208   9.096  10.270   1.868  0.0793 -0.0534  0.0255
28400W        W44209   6.370  16.028  14.288  0.1953  0.2734  0.0242
28401W        W44210   0.171  11.999  15.464 -0.0200  0.0975 -0.1904
28402W        W44211   9.258  10.908   0.716 -0.1678 -0.1430 -0.1416
28403W        W44212  11.330   4.067   1.217 -0.0055 -0.0480  0.1528
28404W        W44213  11.306  16.583  13.233 -0.0427  0.2119  0.1930
28405W        W44214  12.075   4.032  15.310 -0.3986  0.0615  0.1446
28406W        W44215   7.884  17.126   2.813  0.0624  0.1212 -0.0852
28407W        W44216   1.479  12.969   2.064  0.0076  0.1084  0.1977
28408W        W44217   7.452   4.314  14.399 -0.1301  0.0909 -0.0882
28409W        W44218   4.942  12.704   1.825  0.0163 -0.0887  0.1877
28410W        W44219  11.438  12.715  12.359 -0.1124  0.2192 -0.1370
28411W        W44220  13.958  15.028  14.593 -0.0031  0.3041 -0.0693
28412W        W44221   4.875   5.049  16.486 -0.1775 -0.1424 -0.3678
28413W        W44222   2.926   4.148  14.457  0.2005  0.0507  0.0505
28414W        W44223   6.534   8.297   1.881  0.1517 -0.0049  0.2662
28415W        W44224   2.094   8.707  16.699  0.0076  0.0109  0.1461
28416W        W44225  13.173  12.580  13.143  0.1177  0.1475 -0.1638
28417W        W44226   2.599  15.759  14.314 -0.0675 -0.0638  0.3962
28418W        W44227  12.025   6.552   5.084 -0.0088  0.2542  0.5195
28419W        W44228   6.224   6.881   6.060  0.2536  0.0887 -0.2755
28420W        W44229   7.598   0.541   2.252  0.0110  0.0418  0.0441
28421W        W44230  16.524   4.987  14.761 -0.5044 -0.1255 -0.1274
28422W        W44231  17.314  13.218   0.138 -0.0896 -0.3206  0.1106
28423W        W44232   2.665   4.100   2.506 -0.1900 -0.2491 -0.2143
28424W        W44233   1.903   6.949  13.368 -0.0385 -0.0937 -0.1432
28425W        W44234   3.467  16.950   5.082  0.2631 -0.3884  0.0316
28426W        W44235   6.114   5.506   5.016 -0.2672  0.2199  0.0838
28427W        W44236   8.087   0.695  14.821  0.1835  0.1163  0.0172
28428W        W44237   1.829   1.120  14.292 -0.1370  0.1333  0.0974
28429W        W44238  15.113  10.748  13.138  0.3443 -0.1524  0.3218
28430W        W44239  11.133  11.006   0.925  0.1601  0.1517  0.1014
28431W        W44240   5.442   5.447   1.895 -0.2226  0.2337  0.1060
28432W        W44241  13.178  11.173   2.333  0.1758  0.0188 -0.1836
28433W        W44242  16.072   5.006   1.765  0.0346  0.0179 -0.1780
28434W        W44243   8.815  11.644  11.333  0.0053 -0.0043  0.0447
28435W        W44244   4.364  14.374   1.406  0.1269 -0.0233 -0.0813
28436W        W44245   9.185  15.050   1.022 -0.2793 -0.0631 -0.1131
28437W        W44246   6.937  17.530  14.063 -0.3076 -0.1379 -0.0496
28438W        W44247  12.845   5.114   2.684  0.1969  0.2487 -0.1454
28439W        W44248   3.985  11.282  13.086 -0.1091  0.1794 -0.2944
28440W        W44249  15.053   9.259   0.120  0.1897  0.3213 -0.1945
28441W        W44250  11.373   6.752   1.611 -0.0473  0.0226 -0.0499
28442W        W44251  12.221   6.869  13.689  0.0163  0.1279 -0.0402
28443W        W44252  10.039  13.508   4.829  0.2290  0.1861  0.0755
28444W        W44253  11.355   9.790  15.064 -0.1957 -0.0476  0.0256
28445W        W44254   5.189   8.419  15.353  0.2677 -0.0370 -0.0572
28446W        W44255   6.347   9.374   0.634 -0.1914 -0.0965  0.1343
28447W        W44256   4.472   5.599   3.451  0.4172 -0.0015 -0.2285
28448W        W44257   0.128   5.189   0.577 -0.0014 -0.2993 -0.2046
28449W        W44258  10.559   7.028   3.752 -0.2092 -0.0740 -0.1474
28450W        W44259  11.122   0.166   1.434  0.2188 -0.2205  0.0280
28451W        W44260   4.427  16.578   4.823  0.0538  0.0139 -0.2895
28452W        W44261  16.371   5.562   6.163  0.0663 -0.2496 -0.0425
28453W        W44262  16.907   0.571  16.619  0.2461 -0.0923 -0.1080
28454W        W44263   7.951  15.849   4.770  0.0418 -0.1288  0.2178
28455W        W44264   5.114  14.192   0.316 -0.0645 -0.2172  0.1242
28456W        W44265  14.191  11.137  13.953 -0.1893 -0.1306  0.3489
28457W        W44266   5.935   4.915   3.431 -0.0251 -0.1799 -0.1257
28458W        W44267  13.989  10.566   3.484 -0.0478  0.1147  0.1594
28459W        W44268   9.958   6.398   4.002  0.0834  0.0769 -0.0503
28460W        W44269  16.833  12.313   0.181 -0.0289 -0.2907 -0.0286
28461W        W44270   6.831   7.912   3.088 -0.1500  0.1226 -0.0527
28462W        W44271  16.624   9.122   0.745  0.0554  0.2043  0.0617
28463W        W44272  13.630  15.702   3.656  0.0614 -0.0656 -0.3479
28464W        W44273  17.512  10.356   0.578  0.0594  0.0714  0.1397
28465W        W44274  14.293  16.945   4.196  0.3619  0.0941 -0.0823
28466W        W44275   7.431   1.674  11.613 -0.0554  0.1637 -0.2441
28467W        W44276   8.195   6.259   3.470 -0.0203 -0.1194 -0.1493
28468W        W44277  17.430   0.375   0.253  0.2659  0.1641  0.2941
28469W        W44278  15.394   7.587  15.645  0.0956  0.0833  0.0343
28470W        W44279  15.747  14.039  16.159  0.3001  0.0162 -0.0863
28471W        W44280   7.373   6.869   0.168  0.0945 -0.1508 -0.0110
28472W        W44281  13.059  15.650   3.814 -0.0789  0.0730  0.2968
28473W        W44282   4.134   5.789   6.488  0.0416  0.3760  0.1051
28474W        W44283   7.340   8.969   2.672  0.0443  0.0359  0.0291
28475W        W44284   6.387  12.666   1.481 -0.1096  0.0622 -0.1414
28476W        W44285  14.805   0.546  13.407 -0.1639 -0.0084  0.0357
28477W        W44286  17.454  17.387   5.532  0.0336  0.0690  0.1224
28478W        W44287  12.345   3.415  13.696  0.1173 -0.1646  0.2762
28479W        W44288   8.437   8.345   2.537  0.0435 -0.0403 -0.1872
28480W        W44289   1.809  13.270   1.867  0.3314  0.0130  0.2673
28481W        W44290   1.408  16.926   1.444 -0.4554  0.2703 -0.2397
28482W        W44291   8.596   7.968  13.899 -0.0602 -0.1369  0.0329
28483W        W44292   7.051   9.410  12.159  0.0124  0.1426  0.1032
28484W        W44293   1.389  17.734  15.421 -0.3075 -0.1402  0.4755
28485W        W44294  14.748   9.719  14.615  0.2956  0.1219 -0.2243
28486W        W44295   1.000   6.305   2.939 -0.0732 -0.3001 -0.1811
28487W        W44296  11.718  11.072   5.089 -0.2945  0.0520 -0.3091
28488W        W44297   7.884  14.369   1.009 -0.0002 -0.0381 -0.1189
28489W        W44298   4.631  12.815   0.674 -0.0256  0.0752 -0.2167
28490W        W44299   2.707  12.815  15.567  0.1877 -0.2366  0.3232
28491W        W44300  16.659  12.704  11.058  0.2110 -0.0298 -0.0117
28492W        W44301  13.533  14.440  16.925  0.0960  0.1012  0.1709
28493W        W44302   7.073   2.663   4.407 -0.1371 -0.0386  0.0724
28494W        W44303  12.534   7.746  11.990 -0.0256 -0.2106  0.1257
28495W        W44304   6.017   1.471  14.970  0.1495 -0.0418  0.2335
28496W        W44305   2.114  12.563   1.305  0.0612 -0.2174 -0.0966
28497W        W44306   9.386   9.538  16.315 -0.0484 -0.2366 -0.0871
28498W        W44307   5.342  11.526   3.748 -0.0711  0.2561 -0.1112
28499W        W44308   6.029   8.495  14.776  0.0715 -0.0061 -0.2016
28500W        W44309  16.305   8.289   2.722  0.1169 -0.2309  0.1866
28501W        W44310  15.539   4.189  13.557 -0.1006  0.0346  0.0071
28502W        W44311  14.562   4.987   0.923  0.0669 -0.1725 -0.0531
28503W        W44312   7.398  13.583  15.427  0.2514 -0.1463 -0.1962
28504W        W44313  17.154   1.343  16.731 -0.0062  0.1080  0.2217
28505W        W44314  16.833  10.079  13.163  0.0540 -0.0327  0.1195
28506W        W44315  14.764  12.079  11.962  0.2395  0.1051  0.0864
28507W        W44316   0.566  16.854   2.745  0.2351 -0.2564 -0.0784
28508W        W44317   9.783   2.290  12.171 -0.0256  0.2710 -0.0891
28509W        W44318  11.572   1.686  13.615  0.1063 -0.1965 -0.1276
28510W        W44319   1.636   0.708   4.222  0.2504 -0.0665 -0.0150
28511W        W44320   0.510  12.526   5.407 -0.0470  0.1515  0.0294
28512W        W44321   6.529  12.761   5.276  0.0660 -0.1857  0.4351
28513W        W44322   0.896   5.593  13.261  0.1234 -0.1993  0.0975
28514W        W44323  15.755  10.409   0.613  0.2965  0.1628 -0.0997
28515W        W44324   3.030   2.062  13.086  0.1063 -0.0035 -0.3720
28516W        W44325  16.518   9.776   2.135 -0.1417 -0.3130 -0.0018
28517W        W44326   1.473   9.435  12.091  0.1598  0.0089  0.1137
28518W        W44327  17.350   9.664  11.412  0.0519 -0.0934  0.0583
28519W        W44328  11.884  15.289  13.697 -0.2512 -0.1159  0.1346
28520W        W44329  10.015   8.126  15.343  0.0345 -0.0856  0.0646
28521W        W44330   2.548   2.162  13.320  0.2755  0.1282  0.0749
28522W        W44331   3.051  16.161  16.214  0.1393 -0.0875  0.0532
28523W        W44332  14.636   3.859  14.237 -0.3364  0.0201  0.4646
28524W        W44333   6.202  12.932  14.226  0.1729  0.0942 -0.1024
28525W        W44334   8.812  13.535  10.514  0.1285 -0.2848  0.0520
28526W        W44335  12.289  17.356   2.656  0.2058 -0.0042 -0.1038
28527W        W44336   7.543   6.226   4.239  0.1411  0.0401  0.0178
28528W        W44337  10.954   4.828   1.188  0.1569 -0.0134 -0.1330
28529W        W44338   1.525  13.874   0.459  0.1592  0.3640 -0.2666
28530W        W44339  10.883  14.148   2.604 -0.1833 -0.0343  0.0421
28531W        W44340  12.258   2.417  15.736  0.1683 -0.0157  0.0752
28532W        W44341   2.840   5.338   0.234  0.1185 -0.1530 -0.1677
28533W        W44342  15.952   3.496   6.057 -0.2244 -0.1620 -0.2726
28534W        W44343   1.146  13.577   4.664 -0.1633  0.0483 -0.0585
28535W        W44344  17.077  12.294  16.699 -0.0953  0.1030  0.0822
28536W        W44345  16.575  10.904   2.343  0.0161 -0.2059  0.1179
28537W        W44346   8.426   9.096   5.312 -0.3709 -0.0552  0.1282
28538W        W44347   6.847   9.292  14.925  0.0981  0.0400  0.1392
28539W        W44348   7.694   2.883   1.799 -0.0838 -0.0544 -0.1932
28540W        W44349   1.226   5.419   3.792  0.2545 -0.1548  0.0250
28541W        W44350  16.715   4.205   1.026 -0.0200 -0.0863  0.1497
28542W        W44351  14.170   4.613  16.520 -0.0679  0.0392 -0.0053
28543W        W44352   8.539   3.604  13.166 -0.1251 -0.1450 -0.3122
28544W        W44353   9.150  13.150  12.580 -0.1495 -0.0206 -0.0418
28545W        W44354   0.972  15.248   2.356 -0.0487  0.0344  0.0592
28546W        W44355  11.953   3.602  14.559 -0.0597  0.2230 -0.0647
28547W        W44356  13.036   3.908   3.677  0.0112  0.0657 -0.0031
28548W        W44357   5.667   9.564   0.466 -0.0121  0.1164  0.2913
28549W        W44358  10.846   1.855   1.883  0.0958  0.0880 -0.2464
28550W        W44359   8.773  15.343  15.502 -0.3490 -0.0772 -0.1315
28551W        W44360   7.123   7.202  14.831 -0.1057  0.1204 -0.1062
28552W        W44361  15.629  14.248  13.237  0.1679 -0.2210 -0.0223
28553W        W44362   0.832   6.929  16.966 -0.2350 -0.0903 -0.0870
28554W        W44363  16.092   2.711   4.790 -0.1851 -0.0796  0.1355
28555W        W44364   5.466  12.548  16.843  0.1292  0.0578  0.1967
28556W        W44365  15.371  13.422   2.379 -0.0251 -0.0839  0.1793
28557W        W44366   1.501   1.864  12.559  0.0059  0.1615  0.0663
28558W        W44367  11.619  14.538   1.317 -0.3426 -0.0516  0.1940
28559W        W44368   7.590   9.351  15.217  0.0442 -0.0268 -0.0526
28560W        W44369  13.722   9.253   2.550  0.1953 -0.3548  0.1187
28561W        W44370   1.165  16.787   4.001 -0.1483  0.0208  0.0649
28562W        W44371  14.407  14.778   0.898 -0.0021  0.0747  0.2106
28563W        W44372  17.037   7.408   1.128  0.1374 -0.0374  0.2628
28564W        W44373   3.313   2.136  11.711 -0.0882  0.3958 -0.2510
28565W        W44374   6.712   9.674  12.444 -0.2128 -0.0781  0.0105
28566W        W44375  17.640  15.266   4.169 -0.0764  0.0509 -0.0144
28567W        W44376  16.252  10.220  14.515 -0.1028  0.0282 -0.0794
28568W        W44377  13.489  16.704   3.896 -0.1874  0.0207 -0.0077
28569W        W44378  11.855  11.171  12.091 -0.1332  0.0314 -0.1897
28570W        W44379   3.903  14.448  14.223 -0.1812  0.1150 -0.0276
28571W        W44380   0.672   6.376  14.823 -0.1693  0.0355 -0.1198
28572W        W44381   9.836   3.879   2.680 -0.0087 -0.0047  0.0778
28573W        W44382   0.946   9.784   3.008 -0.2714  0.2892  0.1154
28574W        W44383   0.002  15.383   3.302 -0.0521 -0.1334 -0.2025
28575W        W44384   5.004   9.800   0.799  0.0529  0.1108 -0.1678
28576W        W44385   1.835   3.985  15.685  0.1172 -0.1681  0.1065
28577W        W44386   6.116  12.148  11.309 -0.1101  0.1318 -0.4143
28578W        W44387  17.354  11.313  11.342  0.1116 -0.1488  0.0506
28579W        W44388   5.428   3.381  16.394 -0.0731  0.0382  0.1453
28580W        W44389  14.772  13.089  12.433  0.0451  0.2401  0.0990
28581W        W44390  14.642   3.907  12.323  0.2356  0.0960 -0.2802
28582W        W44391   8.407   6.753   5.310  0.0069 -0.3976  0.0737
28583W        W44392  11.052   7.205   5.576 -0.3188 -0.1066  0.2857
28584W        W44393  11.235  17.098  13.084 -0.3190  0.1255 -0.1012
28585W        W44394   2.919  13.833  15.706 -0.0319  0.0654  0.1348
28586W        W44395   1.028   0.436  15.411  0.0345 -0.0985 -0.2725
28587W        W44396  16.909  12.666  14.594 -0.0900  0.2256 -0.0219
28588W        W44397  15.766   4.708   4.089 -0.3376 -0.0489 -0.2135
28589W        W44398  11.454   3.388  12.124 -0.0179 -0.0105  0.1689
28590W        W44399  16.664   9.081   4.499  0.1120 -0.3490 -0.0028
28591W        W44400   5.823  11.165  13.477  0.0921 -0.1178 -0.0037
28592W        W44401   5.873   3.733   1.835 -0.2144 -0.2191 -0.1600
28593W        W44402   5.916  15.552   4.733 -0.1200 -0.1262 -0.1915
28594W        W44403  15.089   7.456   4.392 -0.1403  0.3289 -0.1362
28595W        W44404  11.456  16.880   2.705  0.0894  0.0026 -0.1092
28596W        W44405  11.916  14.234  16.208 -0.0441  0.0773 -0.2056
28597W        W44406   3.342  14.538   5.040 -0.0837  0.0979  0.1121
28598W        W44407  15.730   7.318   2.948 -0.1419 -0.1904 -0.0417
28599W        W44408   7.927   5.657  12.661  0.3806  0.1470  0.0410
28600W        W44409   0.684  12.617  16.527  0.1143 -0.2705 -0.1786
28601W        W44410   3.878  12.966  14.598  0.2692  0.0315 -0.1069
28602W        W44411   6.825  12.227   4.147  0.0373 -0.1351 -0.0973
28603W        W44412  13.340  12.706  16.661 -0.0949 -0.0887  0.3502
28604W        W44413  15.948  16.614   0.890  0.3624  0.1427 -0.0417
28605W        W44414  17.655   6.098   0.796 -0.0118  0.2819  0.1275
28606W        W44415  15.080   0.903   3.050  0.2008  0.0938  0.0529
28607W        W44416   9.746   6.895  14.172  0.0360 -0.0611 -0.1916
28608W        W44417   3.461   7.844  11.774  0.2919 -0.3845  0.0546
28609W        W44418  14.762   1.848   1.967  0.0920  0.2662 -0.0640
28610W        W44419   3.302  17.047  12.920 -0.3593 -0.0277 -0.4197
28611W        W44420  10.836   6.602  11.954 -0.2216 -0.0828 -0.1877
28612W        W44421   7.388  16.671  13.534 -0.3330 -0.0094 -0.2567
28613W        W44422  13.135  10.138   5.576  0.0791  0.3183  0.0393
28614W        W44423   2.005   5.608  12.312 -0.1370  0.0476 -0.0554
28615W        W44424   9.437   8.452   2.574 -0.0716 -0.0016  0.2767
28616W        W44425  12.583   3.202  13.292  0.1543  0.2231  0.0096
28617W        W44426   1.164  12.005   5.026  0.1638 -0.2031 -0.3699
28618W        W44427   1.400   0.222  13.282  0.2877  0.1968 -0.1055
28619W        W44428   2.022   2.707   0.076 -0.0474 -0.3340  0.3325
28620W        W44429  11.807   6.811   1.400 -0.0857  0.0126 -0.0835
28621W        W44430   0.367  17.162  16.948 -0.0064 -0.0933 -0.1424
28622W        W44431   2.250  10.516  14.026  0.2094  0.0082 -0.0680
28623W        W44432   1.889   1.316   4.836 -0.0271  0.1208 -0.0603
28624W        W44433   2.049   9.870   5.007 -0.1166 -0.0535  0.1346
28625W        W44434   4.955   2.082   4.637 -0.2587  0.2053  0.0484
28626W        W44435   0.863   9.334   5.658 -0.3410 -0.2951  0.0119
28627W        W44436   1.847   1.741  16.345  0.0620  0.2317 -0.0865
28628W        W44437   3.470   5.917   2.527  0.2954  0.0120 -0.0360
28629W        W44438  13.507   4.373   4.156  0.1145 -0.0582  0.0933
28630W        W44439   1.953  13.936   4.531 -0.1088 -0.2803 -0.3297
28631W        W44440   9.597  17.615   3.247  0.1056  0.1779 -0.1201
28632W        W44441   1.327   9.620   3.527  0.1005  0.1320  0.1177
28633W        W44442  16.660  13.549   1.652 -0.0139 -0.2535 -0.3194
28634W        W44443  12.296  13.992   4.350 -0.0161  0.2211 -0.1914
28635W        W44444   5.429   9.378  16.371 -0.0632 -0.2726  0.2274
28636W        W44445  16.427   5.173  15.307  0.1003 -0.1375 -0.0374
28637W        W44446  16.617   1.307   3.846 -0.3392 -0.0774  0.0662
28638W        W44447  14.189  11.321  13.159 -0.1717  0.1770 -0.2079
28639W        W44448  12.668   1.538   3.722 -0.1059  0.0442 -0.1633
28640W        W44449   9.571  11.737   2.803  0.1569  0.1186 -0.0415
28641W        W44450  12.659   5.324  15.061 -0.2053 -0.0033  0.1190
28642W        W44451   3.358   3.882   3.626  0.2772  0.1423 -0.2738
28643W        W44452   9.739  13.964  11.538  0.0151 -0.0481  0.0657
28644W        W44453  12.825   7.261   5.711  0.1239 -0.2585  0.0451
28645W        W44454  12.403   1.982  15.574 -0.0171 -0.0720 -0.0998
28646W        W44455   1.514  17.404   1.467  0.0285 -0.3350 -0.1938
28647W        W44456  17.488   4.911   4.870  0.1060 -0.0950  0.0061
28648W        W44457  13.407   6.880  12.812 -0.2575 -0.1240 -0.0049
28649W        W44458   5.926  12.852  11.646 -0.1403  0.2171  0.1445
28650W        W44459   9.526   1.026   3.816  0.2671  0.1131  0.2446
28651W        W44460  13.936  15.798  13.195  0.1272  0.0216 -0.2894
28652W        W44461   1.219   6.690  16.578  0.1017  0.0495 -0.0465
28653W        W44462   4.013   9.920  14.450 -0.1072 -0.1732 -0.2558
28654W        W44463   2.601   1.162   5.831  0.0010 -0.0364  0.1864
28655W        W44464  14.158   3.529   1.831  0.0998  0.1452  0.1729
28656W        W44465   8.725  16.167  12.252 -0.1045  0.2256  0.2362
28657W        W44466   7.331   5.158  13.229 -0.0175  0.1993 -0.0791
28658W        W44467   3.928  16.457  11.895  0.2131  0.3386  0.1554
28659W        W44468   5.200   5.657   6.315 -0.1001 -0.2333  0.0078
28660W        W44469  10.954   1.807   4.518  0.3629  0.0149 -0.0187
28661W        W44470   5.995   9.631   0.873  0.1363 -0.0412 -0.2594
28662W        W44471  16.943   2.875  12.756 -0.1405  0.1494 -0.1259
28663W        W44472  11.484  15.016  14.944  0.3011  0.1466 -0.0151
28664W        W44473   7.924   4.455  13.114  0.0992  0.2319  0.1693
28665W        W44474   0.697   7.112   0.491 -0.4028  0.0357  0.2890
28666W        W44475  10.145  16.002  14.814 -0.1114  0.2463 -0.0488
28667W        W44476  13.152   3.523   4.753 -0.1842 -0.0545 -0.0243
28668W        W44477  17.305   9.840  15.375  0.0355  0.1064  0.0754
28669W        W44478  16.439   7.769  12.829  0.1713 -0.1673 -0.3855
28670W        W44479   9.515   6.254   3.261  0.1799 -0.2081  0.1357
28671W        W44480   6.477  11.574  16.464  0.0804  0.0350 -0.0195
28672W        W44481  17.478  10.052   2.015 -0.0142  0.0242  0.1383
28673W        W44482  16.260  15.562  15.151  0.0644  0.0796 -0.1138
28674W        W44483   2.805  15.242  16.947 -0.1572  0.1027 -0.2148
28675W        W44484  11.305   1.700   5.110 -0.0100  0.0388  0.0486
28676W        W44485   5.933  17.253   0.558  0.1405  0.0857 -0.2914
28677W        W44486   8.628   2.493  15.682 -0.2629  0.0802 -0.0400
28678W        W44487   2.255   7.510   2.266  0.3029  0.0932  0.0081
28679W        W44488   4.618  13.706  10.385 -0.3642  0.0738  0.2320
28680W        W44489   5.511   2.398  12.969 -0.4854  0.1703 -0.0975
28681W        W44490  11.274  14.773   2.099 -0.2745 -0.1508  0.0154
28682W        W44491  14.532  17.731   4.902  0.1028  0.2840  0.4880
28683W        W44492  16.578   5.459  13.161  0.0492  0.1383  0.0615
28684W        W44493  12.870   0.506  13.594  0.2662  0.1973 -0.0429
28685W        W44494  14.436   4.321   5.934 -0.0898  0.0343  0.0152
28686W        W44495  14.852  17.430   3.369 -0.0089  0.0992 -0.2860
28687W        W44496   1.718  14.309   1.860 -0.1697 -0.0227  0.2329
28688W        W44497  14.373   3.268   5.385  0.1188  0.4242 -0.1601
28689W        W44498   1.779  14.402   4.856 -0.1044  0.0319  0.2842
28690W        W44499   6.365   0.054   1.606 -0.2908  0.1103 -0.3340
28691W        W44500   5.774   3.292  11.982 -0.2339  0.0006  0.5434
28692W        W44501  12.531  11.185  16.397 -0.1845  0.2548 -0.0050
28693W        W44502  13.674  10.074  11.839  0.1345  0.0824 -0.3825
28694W        W44503   4.018  12.946   2.475  0.3827  0.0361  0.1044
28695W        W44504   3.376   4.135  14.651  0.1261  0.1324  0.0049
28696W        W44505  17.304  15.314   4.590  0.0436  0.0614 -0.0262
28697W        W44506   2.681   7.321  16.168  0.0033 -0.1036 -0.3694
28698W        W44507  13.772  12.193  13.034 -0.0686  0.0482  0.2376
28699W        W44508   4.233   5.299  11.841 -0.0624  0.1302 -0.3400
28700W        W44509   1.171   8.360   0.139  0.0848 -0.0778  0.1217
28701W        W44510   7.945  10.331   4.620 -0.2102 -0.1082  0.1562
28702W        W44511   3.888   8.603  15.989 -0.0613 -0.0694 -0.1873
28703W        W44512   6.697  12.675   1.090 -0.0239  0.2583  0.0104
28704W        W44513   8.677  17.521  10.913  0.0077  0.0114 -0.1031
28705W        W44514   1.341   0.349  16.930 -0.0420  0.4149  0.5549
28706W        W44515  12.318  13.506   2.923  0.0672  0.2050 -0.0661
28707W        W44516  16.253   7.201   0.496 -0.2321  0.1569 -0.2612
28708W        W44517  15.133   9.802  12.584 -0.4435  0.1814  0.1375
28709W        W44518   4.146   9.253   4.724  0.0023 -0.1112 -0.1810
28710W        W44519   6.499   9.856  10.909 -0.2037  0.0708  0.0300
28711W        W44520  17.416   6.681   5.504 -0.0505  0.3195 -0.0198
28712W        W44521  16.586   3.861   0.672 -0.0866  0.3305  0.2418
28713W        W44522   4.925  16.376  14.447 -0.2259 -0.0622 -0.0928
28714W        W44523  14.364   6.721   3.570  0.0222  0.3019  0.0822
28715W        W44524  12.816   5.955   1.870  0.0075  0.0869 -0.0842
28716W        W44525  13.580   9.908   3.552  0.2763 -0.1791 -0.0142
28717W        W44526  13.998  11.784  15.637  0.1087  0.1000  0.1837
28718W        W44527  14.588  16.930   3.233 -0.2867  0.2315  0.0958
28719W        W44528   7.757  12.932  12.872  0.1476  0.1326 -0.0298
28720W        W44529   1.014  13.788  15.054  0.2224  0.1227 -0.0661
28721W        W44530  17.187   8.423   3.111 -0.1604  0.1691  0.1695
28722W        W44531   0.304   1.491   1.172  0.1137  0.1094 -0.1130
28723W        W44532  13.160   4.606   1.048  0.1448 -0.1913  0.2417
28724W        W44533  12.208   7.283   1.196  0.0245  0.1703  0.2179
28725W        W44534   8.770  12.183  14.569 -0.0884 -0.2689 -0.0776
28726W        W44535  14.453  10.083  13.289 -0.2573 -0.0319 -0.1037
28727W        W44536   3.209   1.678  15.864 -0.2647 -0.0988 -0.3150
28728W        W44537  13.474   0.758   2.980 -0.0160 -0.0548  0.0341
28729W        W44538  11.112   6.431  15.421  0.1275  0.0545  0.2032
28730W        W44539   5.534  16.079   5.635  0.2350 -0.2388  0.1338
28731W        W44540  13.765   3.178  13.264  0.1072  0.0229  0.1894
28732W        W44541   6.649  13.081   1.326 -0.0078 -0.1657  0.0053
28733W        W44542  10.501   5.432   6.348  0.0580  0.1978  0.0944
28734W        W44543   1.300   4.998   2.549 -0.0941  0.0116  0.3644
28735W        W44544   4.010   4.750  14.483 -0.0110 -0.0686 -0.0479
28736W        W44545  17.578  13.638  15.778  0.1437 -0.2021 -0.0856
28737W        W44546  13.455  15.012  12.839  0.4205 -0.0679  0.0316
28738W        W44547  17.587   7.193  13.605 -0.1410 -0.1769 -0.0714
28739W        W44548   9.019  12.335  12.069 -0.1111  0.3194 -0.1653
28740W        W44549  16.734   9.343   3.196 -0.2991  0.1988  0.2487
28741W        W44550  13.725   7.829  15.743 -0.0850  0.0493  0.1560
28742W        W44551  12.328   1.297  16.297  0.2271  0.0648  0.2138
28743W        W44552  14.212  14.609  14.526 -0.1547  0.1642 -0.0569
28744W        W44553  11.486  14.909   0.926 -0.1151  0.3633 -0.3354
28745W        W44554   2.162  14.013   2.805  0.0494  0.0320  0.1428
28746W        W44555   7.962  16.532   2.167  0.0322  0.2165  0.1074
28747W        W44556  15.852  13.840   3.044  0.0617 -0.0773 -0.0826
28748W        W44557   0.989  17.288   1.464 -0.1413  0.2392  0.0882
28749W        W44558   1.439  14.178   3.241 -0.0984 -0.0301  0.0726
28750W        W44559  16.333  11.515  13.308 -0.0779  0.0325 -0.0684
28751W        W44560   0.526  15.954  14.599 -0.1490 -0.0026  0.3942
28752W        W44561   4.249  12.132  16.265 -0.1109 -0.0075  0.0919
28753W        W44562  17.277   6.479  14.007  0.1102  0.0837  0.1433
28754W        W44563   4.111  10.679   3.951  0.0190  0.1497  0.2076
28755W        W44564   2.058  16.785  12.408 -0.1571 -0.1172  0.1373
28756W        W44565  16.021  14.472   0.128 -0.1793  0.0687 -0.2619
28757W        W44566  14.821   9.721   0.114 -0.1256  0.2860 -0.2674
28758W        W44567   6.479   1.914   1.638  0.0617  0.0971  0.5393
28759W        W44568  12.134   7.057  12.924 -0.0447 -0.3489  0.1369
28760W        W44569   5.150   8.911   5.012 -0.1853 -0.2472 -0.1233
28761W        W44570   5.549   4.868   0.637  0.1059 -0.2425  0.2078
28762W        W44571   4.368   3.186  12.433  0.2018  0.3998  0.0197
28763W        W44572   6.211  14.440  13.134 -0.0854 -0.0001  0.1373
28764W        W44573  17.473  16.322  16.807  0.2206  0.0792 -0.1715
28765W        W44574  16.579  11.798  14.223  0.0767  0.2195  0.2420
28766W        W44575   2.884  14.631   1.222  0.1817 -0.0349 -0.1495
28767W        W44576  16.635  14.656   1.656  0.0026 -0.0633 -0.3898
28768W        W44577  10.913   5.175  13.269 -0.0344  0.1945 -0.0188
28769W        W44578   5.041   4.138   6.572 -0.0829  0.2757  0.1112
28770W        W44579   0.539   3.329  15.290 -0.2498 -0.0512 -0.0706
28771W        W44580   0.859   3.741   2.617  0.0119  0.1303 -0.0976
28772W        W44581  17.684   5.929  13.221 -0.0421  0.0014  0.0265
28773W        W44582  14.038   2.452  16.050 -0.0847  0.1244  0.0683
28774W        W44583   4.173   1.621   1.454 -0.0999  0.1052 -0.1279
28775W        W44584   4.514  12.730  16.080 -0.1367  0.2079 -0.1571
28776W        W44585   8.601   4.262   0.097  0.0110  0.2733  0.3085
28777W        W44586  12.792   9.717   1.518 -0.3018 -0.1208  0.1368
28778W        W44587   5.809  15.406  13.472 -0.0036 -0.0154 -0.1602
28779W        W44588  11.089   5.848   5.683 -0.0790  0.1129 -0.2464
28780W        W44589  11.301   0.472   3.148 -0.2233  0.1213  0.1234
28781W        W44590  16.454   1.263   1.708  0.0825  0.3993  0.0766
28782W        W44591  17.251  14.526  16.295  0.0089 -0.3525  0.3496
28783W        W44592   9.336  10.584   1.134 -0.0280  0.2231  0.0941
28784W        W44593  16.939  14.539  15.771 -0.0475  0.0815  0.1016
28785W        W44594   9.963  14.955  16.102  0.0512 -0.4655 -0.0155
28786W        W44595  13.189  11.189  13.100 -0.1349 -0.2354 -0.1698
28787W        W44596   1.009  14.667  13.102 -0.1584 -0.1588 -0.0473
28788W        W44597   1.103   8.023   0.504  0.1049  0.2794  0.0223
28789W        W44598   6.683  14.760  13.275  0.0313  0.0985  0.2435
28790W        W44599   2.501  13.167  14.929 -0.0361  0.0980  0.1029
28791W        W44600   3.384   7.348   1.182  0.2221 -0.0167 -0.3544
28792W        W44601   3.540  15.775  13.225  0.2701  0.1631  0.1182
28793W        W44602   2.309   2.001   2.627 -0.1902 -0.1054 -0.2875
28794W        W44603   6.840  15.569  13.083  0.0103  0.0919 -0.1139
28795W        W44604  15.566  12.542   0.255  0.4058 -0.1566 -0.2273
28796W        W44605  12.054   5.483  14.867 -0.0156  0.0550  0.3142
28797W        W44606   7.987  14.670   4.327 -0.1486 -0.2413 -0.0737
28798W        W44607   8.719   9.660  15.783  0.3409 -0.1932  0.2062
28799W        W44608   8.940   9.247   5.481  0.0863 -0.0703  0.0019
28800W        W44609   1.923  14.473   1.456 -0.0537 -0.2684 -0.3314
28801W        W44610   5.620   8.427  12.085  0.0157  0.1532 -0.0364
28802W        W44611   4.752   6.502  12.458 -0.1688  0.1298  0.3718
28803W        W44612  16.588   2.513   5.615 -0.1177 -0.1174  0.0646
28804W        W44613   4.197   0.220  13.356 -0.1483  0.0115 -0.1121
28805W        W44614   5.586   6.221  12.366 -0.3520 -0.0130 -0.2346
28806W        W44615  10.824  15.251  16.543 -0.0235  0.0412 -0.2181
28807W        W44616  16.844  16.226  12.960  0.0119 -0.3312 -0.0279
28808W        W44617  15.720  12.496   1.505  0.1625  0.1258  0.0647
28809W        W44618  15.436   9.378   5.476  0.1173  0.3944 -0.2132
28810W        W44619   6.924   0.384   2.906 -0.3988  0.1433 -0.2504
28811W        W44620  14.931  14.169   2.790 -0.1930  0.2432 -0.1157
28812W        W44621  10.028  13.953  15.351  0.2085 -0.0180 -0.0177
28813W        W44622   0.414   5.572  13.791 -0.1318  0.1532 -0.0490
28814W        W44623   8.327   8.019  11.537  0.2599 -0.0215  0.1060
28815W        W44624  16.142   9.579   2.493 -0.0960 -0.0533  0.2072
28816W        W44625   1.625  17.381  12.563 -0.0146  0.0614 -0.1170
28817W        W44626   5.270   3.925   0.605 -0.1375 -0.2237  0.0657
28818W        W44627  15.836  10.922   4.372 -0.2144  0.0443 -0.0693
28819W        W44628   6.284   8.025  12.123 -0.1023  0.1724  0.1455
28820W        W44629   6.255   1.227  12.189 -0.1170  0.0098 -0.1438
28821W        W44630  10.643   3.416  13.426 -0.1863 -0.2114  0.3134
28822W        W44631  11.049   4.734  15.855 -0.1184 -0.1386  0.2492
28823W        W44632   3.543   5.606  11.995  0.1845 -0.2856  0.0405
28824W        W44633   6.585  10.063   5.746  0.1593 -0.1204  0.1268
28825W        W44634   4.661   5.396  13.905 -0.0008 -0.0172  0.0144
28826W        W44635  16.458  10.991  15.096 -0.0580 -0.0380 -0.0344
28827W        W44636   7.616   7.198  14.799 -0.0571  0.1063 -0.2004
28828W        W44637   6.003  15.432   3.989  0.2847  0.0577  0.1167
28829W        W44638  14.098  17.634   0.631  0.0508 -0.0479 -0.1382
28830W        W44639   5.963   5.895  14.106 -0.3178 -0.1463 -0.3328
28831W        W44640   4.782  13.269   4.121 -0.0893  0.3717 -0.2266
28832W        W44641   7.683   3.933   1.822  0.0552  0.2048  0.0873
28833W        W44642   2.567   5.299  15.702  0.0195 -0.0107  0.0793
28834W        W44643   5.405  12.119  13.413 -0.1157 -0.2405  0.0275
28835W        W44644  14.790   4.209  14.816  0.2259 -0.0903 -0.2058
28836W        W44645  12.161   4.129   2.485  0.2370  0.2717 -0.1313
28837W        W44646  15.263   4.861  13.703  0.0462 -0.1187  0.0414
28838W        W44647   0.060   0.852  10.800 -0.0499  0.1614 -0.1914
28839W        W44648  15.455   5.870  14.478 -0.0235  0.1376 -0.1548
28840W        W44649  11.134  11.374  12.820 -0.1574  0.0571 -0.0453
28841W        W44650   9.411  16.366  15.642 -0.0063  0.0410 -0.1909
28842W        W44651  16.968  15.713   5.036  0.1354 -0.0832 -0.0301
28843W        W44652  11.612  13.973  13.636  0.4342 -0.0248  0.3424
28844W        W44653  13.967  13.495   1.151  0.1374 -0.0359  0.0628
28845W        W44654   1.307  10.070  12.945 -0.1754 -0.1973  0.3694
28846W        W44655   6.806  14.804  12.343  0.1546  0.1858  0.2813
28847W        W44656  15.969   4.724   3.047 -0.0813  0.1295  0.0114
28848W        W44657   8.432  12.357   0.006  0.3721  0.0455 -0.1406
28849W        W44658   2.060   6.224   5.956 -0.2460  0.1297  0.3432
28850W        W44659   1.190  10.817   1.566  0.3744 -0.0589  0.1433
28851W        W44660   5.893  15.548   1.107 -0.0926 -0.0306 -0.5014
28852W        W44661  13.436   8.491   0.989  0.0532 -0.4110 -0.1281
28853W        W44662  12.824   6.323   0.194 -0.3046  0.0918 -0.1133
28854W        W44663   3.872   1.154   0.796  0.0517  0.0094  0.1072
28855W        W44664  17.524  13.926   1.889  0.1911  0.0864  0.1114
28856W        W44665   7.695  17.319   1.551  0.0282  0.0923 -0.1977
28857W        W44666   0.278   7.342  14.798 -0.1558  0.0170  0.0301
28858W        W44667   3.667  14.446   6.272  0.2908 -0.0412 -0.2131
28859W        W44668   5.707   1.386  15.348 -0.1576  0.0764 -0.2500
28860W        W44669   6.372  14.487   4.588 -0.3401  0.1537 -0.1712
28861W        W44670   7.314   1.203  14.363 -0.1644 -0.0101 -0.1259
28862W        W44671  14.888   7.222   2.733  0.0240 -0.0173 -0.1608
28863W        W44672  13.189  10.886   4.982  0.0132  0.0318  0.0669
28864W        W44673  14.057  15.615  16.457 -0.0066 -0.1695  0.2158
28865W        W44674   2.598   4.870  13.836 -0.0623  0.1479 -0.2529
28866W        W44675  14.001   7.882   0.768  0.0987  0.1992 -0.2024
28867W        W44676  10.531  12.424   1.076  0.2454 -0.1481 -0.2473
28868W        W44677  14.997  15.977   1.700 -0.0930  0.1066  0.0501
28869W        W44678   3.744  15.488  15.382  0.0184 -0.1994  0.1413
28870W        W44679  12.241   9.663   3.549  0.2997  0.0725 -0.3232
28871W        W44680  16.024  14.532  13.366 -0.0442  0.0641  0.1081
28872W        W44681  13.971   4.415  13.655 -0.2963  0.1061 -0.1723
28873W        W44682   0.123   5.699   6.062  0.0245 -0.0654 -0.0170
28874W        W44683  12.724   0.987   2.316 -0.1964 -0.0263  0.1096
28875W        W44684   5.682   5.452  13.799  0.3691  0.0764  0.2003
28876W        W44685  16.450   8.967  12.111 -0.2490  0.1736 -0.0072
28877W        W44686   4.458   8.457   5.580  0.0931 -0.0858 -0.0831
28878W        W44687   8.632   9.466  15.339 -0.1344  0.0309 -0.0232
28879W        W44688   5.898  16.926  16.591  0.1659 -0.3348  0.1655
28880W        W44689   8.561   0.601  11.378  0.3534 -0.4013 -0.0946
28881W        W44690  14.122   7.607  14.858  0.3863 -0.0113  0.2984
28882W        W44691   1.781  17.388  16.966  0.1051  0.0661 -0.0869
28883W        W44692  15.943   2.416   0.853  0.0370  0.0239 -0.1473
28884W        W44693   3.698   5.361   4.635 -0.1459  0.1786  0.0782
28885W        W44694   9.342  10.642  15.436  0.1228 -0.1034  0.2132
28886W        W44695  12.801   9.912   0.996  0.0259 -0.0061 -0.1173
28887W        W44696   8.503   3.139   2.424  0.1790  0.0287 -0.2251
28888W        W44697   9.696   7.545  12.433  0.0066 -0.4278  0.1867
28889W        W44698   5.912   0.322   1.717 -0.1375 -0.2581 -0.1096
28890W        W44699  11.153   1.851  14.945  0.2905 -0.1297  0.0290
28891W        W44700   3.172   8.820   0.709  0.0313 -0.2323 -0.0663
28892W        W44701   5.072   1.971  12.650  0.2295  0.0077  0.3099
28893W        W44702   1.410   7.319  12.520  0.1254  0.1489 -0.0474
28894W        W44703  15.228   9.726   4.310 -0.0821  0.1423  0.2386
28895W        W44704   2.074   2.185   3.588 -0.2817  0.0387 -0.0318
28896W        W44705  16.591   0.187   5.953 -0.3352 -0.0740  0.0162
28897W        W44706   2.845   0.930  14.182 -0.0358 -0.1461  0.0667
28898W        W44707   5.070   6.115  15.057  0.3984 -0.0544 -0.2196
28899W        W44708  13.104   6.984   3.854  0.0283  0.0518 -0.1078
28900W        W44709  14.362  12.100  15.934  0.1782  0.0894  0.1544
28901W        W44710   6.488  13.028  16.274  0.1243 -0.2519  0.0792
28902W        W44711   9.083  13.819  14.463 -0.1531  0.2904  0.0852
28903W        W44712   1.319   9.229   4.881 -0.1060  0.3209  0.0295
28904W        W44713   1.450  12.060  13.852  0.1453  0.0469 -0.3157
28905W        W44714  16.548   2.995   5.426  0.1162  0.0366  0.1126
28906W        W44715  11.446   9.888   1.775 -0.0121  0.1616 -0.2340
28907W        W44716   2.967   3.873  15.823 -0.3266 -0.2096  0.1422
28908W        W44717   7.409  12.750  12.510  0.0519 -0.0684 -0.1596
28909W        W44718   1.465   4.275   1.114  0.4114  0.0858 -0.0861
28910W        W44719  16.705  10.052   0.547 -0.0689 -0.0023 -0.0759
28911W        W44720  13.407  17.490  13.995 -0.1704 -0.1909  0.1570
28912W        W44721   5.653   9.481  12.398  0.2403  0.3375 -0.2039
28913W        W44722  13.673  15.328  16.217 -0.0641  0.3540 -0.0991
28914W        W44723  10.732  11.775  11.490 -0.2464 -0.0713 -0.3612
28915W        W44724   2.209  12.601  11.762 -0.3317 -0.2028 -0.2077
28916W        W44725   6.286   7.918   4.100  0.1425 -0.5580 -0.0837
28917W        W44726   9.412   3.968   1.300 -0.1489  0.1284 -0.0465
28918W        W44727   6.170   6.622   3.805  0.0812 -0.1364  0.1177
28919W        W44728  11.016   0.766  11.135 -0.3547 -0.0685 -0.3545
28920W        W44729  15.745   2.925  16.430  0.0607  0.0699  0.5949
28921W        W44730  13.400  16.346   0.654 -0.1144 -0.3021  0.1430
28922W        W44731   6.791   8.734   1.828 -0.2443 -0.1181 -0.2806
28923W        W44732   8.441   7.211  12.718  0.0046  0.0251 -0.0199
28924W        W44733   1.676  13.981  13.217  0.2453 -0.1296 -0.3286
28925W        W44734   9.604  13.030   4.334  0.0176  0.1606 -0.0579
28926W        W44735  11.650  16.533   4.162  0.2476  0.0101 -0.2194
28927W        W44736  12.387  12.645   0.830 -0.0382  0.0363 -0.4209
28928W        W44737  10.050   0.019   0.513 -0.1758 -0.2176 -0.1181
28929W        W44738  17.293   5.139   2.502 -0.0471  0.0206 -0.1707
28930W        W44739   0.143  13.092   3.682  0.1025  0.2055 -0.0891
28931W        W44740   9.025   8.337  11.604 -0.0039 -0.2756  0.1100
28932W        W44741  16.193   5.763   0.846 -0.2012 -0.0541  0.2115
28933W        W44742  11.441  13.086  11.247 -0.0012 -0.1494  0.0073
28934W        W44743   8.930   9.090   3.815  0.1663  0.1430  0.1526
28935W        W44744   8.884   2.363   1.826 -0.3803 -0.0431  0.0189
28936W        W44745   8.353   7.441   4.119  0.2314 -0.0209 -0.1216
28937W        W44746   1.527   2.781   5.737  0.1466  0.0837 -0.2023
28938W        W44747   7.521   3.419   0.898 -0.2271  0.0424 -0.2096
28939W        W44748   6.321  14.873   0.685 -0.2838  0.2450 -0.1143
28940W        W44749  11.086   5.705   0.444 -0.2952  0.2372 -0.0585
28941W        W44750  13.187   4.348  16.719 -0.0583 -0.0782 -0.1039
28942W        W44751  10.618  16.509   2.179  0.2798 -0.0216  0.0393
28943W        W44752   2.524   0.882   3.624 -0.1405  0.1342  0.0007
28944W        W44753  15.991   4.922  11.982 -0.0961  0.1614 -0.0992
28945W        W44754   9.488  10.758   5.265  0.1197  0.2023  0.0808
28946W        W44755   6.417   8.856  15.520 -0.0909  0.1869  0.0406
28947W        W44756  15.758  11.379   0.714  0.0020  0.1078  0.2710
28948W        W44757   0.035   0.241   4.435  0.1540  0.0094  0.0797
28949W        W44758  14.082  17.421   4.183 -0.0015  0.2151 -0.3321
28950W        W44759  16.266   4.518  16.172 -0.0352  0.0166 -0.2193
28951W        W44760   0.783   2.264  15.376 -0.3223  0.0842 -0.0637
28952W        W44761   8.562  16.517   3.880 -0.1057  0.1314  0.0554
28953W        W44762   3.822  13.466   6.405  0.0803  0.0288  0.1638
28954W        W44763   2.576   1.387   3.461  0.3865 -0.1477  0.0490
28955W        W44764  16.093   7.418  16.631  0.2784 -0.1746 -0.1770
28956W        W44765  10.656   8.771   4.748 -0.0448 -0.0637 -0.1707
28957W        W44766  13.304   8.738  13.890  0.1873  0.1037 -0.1534
28958W        W44767  16.657   1.219  15.482  0.1444 -0.1992 -0.1055
28959W        W44768   4.058   8.615   0.369 -0.1525  0.3199  0.1708
28960W        W44769  10.584   6.537  16.864 -0.1894 -0.0664 -0.3132
28961W        W44770   2.552  12.944   5.794  0.0643  0.2487  0.0340
28962W        W44771  14.397  17.670   2.209  0.2044 -0.0669  0.0044
28963W        W44772   9.943  10.758  14.168 -0.1703 -0.1501 -0.3215
28964W        W44773  13.767  16.308  14.879  0.3356 -0.1402  0.1315
28965W        W44774   9.833   5.352  12.562  0.0938 -0.1427  0.0091
28966W        W44775   3.653  17.204   4.082 -0.1314  0.1427  0.0480
28967W        W44776  13.589  15.124  15.227 -0.1400 -0.1930 -0.1038
28968W        W44777  10.056   3.227  16.745  0.0497 -0.1992 -0.2539
28969W        W44778  12.991  13.021   3.419  0.1155  0.2093 -0.0886
28970W        W44779  15.765   7.261   2.191 -0.1848 -0.1141  0.1043
28971W        W44780   9.972   5.037   5.657  0.1117 -0.1693  0.0156
28972W        W44781   2.984   4.003   4.173  0.1030 -0.0546 -0.0722
28973W        W44782   2.987  10.733  12.643  0.4328 -0.1537 -0.1564
28974W        W44783   2.923   1.121   4.428  0.3127  0.2947  0.1205
28975W        W44784  16.780  17.196   2.609  0.0297 -0.2973 -0.1301
28976W        W44785   7.616  13.634  14.671 -0.1477  0.0601  0.2154
28977W        W44786   9.195   7.611  14.558  0.0347  0.0279 -0.2600
28978W        W44787   4.644  12.994  11.703 -0.0205  0.0387 -0.1127
28979W        W44788   4.634  16.813  13.120 -0.0795 -0.1821  0.0881
28980W        W44789   5.946  11.691   5.256  0.0152  0.0912 -0.0173
28981W        W44790   9.134   3.611   1.497 -0.0305  0.0096 -0.1216
28982W        W44791  11.075  12.417   0.440 -0.0993 -0.0921  0.3946
28983W        W44792  12.301  10.588   2.555  0.0018 -0.0546 -0.1832
28984W        W44793   9.381  12.884  14.867  0.2538 -0.0283 -0.0620
28985W        W44794   1.205  17.497  13.165 -0.2123  0.1302 -0.0472
28986W        W44795   4.418  12.597   3.187  0.0574 -0.1432  0.2922
28987W        W44796   6.342  14.691  12.214 -0.1292  0.1801  0.0022
28988W        W44797   4.950  16.404   0.719 -0.2737  0.0629 -0.0130
28989W        W44798   5.408  13.580  13.380  0.0842  0.3302  0.1101
28990W        W44799  15.258   9.330   1.848  0.0747 -0.0594  0.2090
28991W        W44800   0.194   5.277   4.161  0.1884  0.0157  0.0373
28992W        W44801  16.602  13.882  12.360  0.2643  0.2114  0.0093
28993W        W44802   1.843  15.933   0.997  0.0342  0.2675 -0.1275
28994W        W44803  15.102  13.537  13.581 -0.1513  0.1864  0.1790
28995W        W44804  12.486   3.156   6.203  0.2338  0.1176 -0.0920
28996W        W44805  12.218  11.869   4.856 -0.0472  0.0615  0.1761
28997W        W44806   0.305   9.795   3.712 -0.0968 -0.0995  0.1084
28998W        W44807   7.047  15.928   0.317  0.1949 -0.3777  0.0543
28999W        W44808   1.129   7.178  16.674 -0.1399 -0.4256  0.2775
29000W        W44809  13.601   5.666   5.114  0.1188  0.2885 -0.1763
29001W        W44810   7.254   9.184  15.809  0.0164 -0.1256  0.2005
29002W        W44811  14.686   8.201   1.911  0.4591  0.0636 -0.1336
29003W        W44812  10.656   3.800  12.416 -0.0816  0.2669 -0.0384
29004W        W44813   9.570   2.987   4.229  0.1148  0.3244 -0.0862
29005W        W44814   7.662   6.995   3.134 -0.2461  0.0317  0.0119
29006W        W44815  13.065  16.937   2.388  0.0266  0.1365  0.3019
29007W        W44816  15.942   5.159  14.454  0.0049 -0.2823  0.1923
29008W        W44817  12.887   0.664   0.301 -0.2669  0.2562 -0.0997
29009W        W44818   7.301   4.571   1.305  0.0096 -0.0335  0.2613
29010W        W44819   1.315  12.608   1.710 -0.1084  0.2074  0.2733
29011W        W44820  11.033  11.204   3.464 -0.0064  0.2814 -0.0840
29012W        W44821  14.897  13.359   3.553  0.1827  0.1001  0.0570
29013W        W44822   7.897  15.131  15.416 -0.1217  0.1832 -0.3393
29014W        W44823  11.143  13.691   4.908 -0.0299 -0.1517  0.2471
29015W        W44824   4.563   1.890   1.497  0.0006  0.0387  0.0436
29016W        W44825   9.843   5.329   4.129  0.0017  0.0386 -0.1049
29017W        W44826   9.957   5.382  16.399 -0.1809  0.2963  0.2001
29018W        W44827  10.340   4.382   0.831  0.1631 -0.1336 -0.0715
29019W        W44828  13.860  16.139  11.490  0.1233 -0.0278  0.0738
29020W        W44829  17.687  11.311  16.098  0.4873 -0.0821  0.0496
29021W        W44830   8.840   0.895  16.541 -0.0568 -0.2469  0.0347
29022W        W44831  10.561   5.940  13.657 -0.1585 -0.2543  0.0669
29023W        W44832  14.203  15.302  12.897 -0.0315  0.0749  0.0892
29024W        W44833  13.341   1.054  13.978 -0.2653 -0.0787  0.1290
29025W        W44834  13.383   4.233   2.233 -0.0483  0.1649 -0.1464
29026W        W44835   5.257   9.830  16.958  0.1576 -0.2807 -0.2107
29027W        W44836  14.465  13.531   3.705 -0.0605  0.2551 -0.3244
29028W        W44837   0.515  10.279   6.013  0.1679  0.0247 -0.1901
29029W        W44838  13.688  14.478   0.911  0.2072  0.0893 -0.4746
29030W        W44839   3.635   0.953   4.157 -0.1383 -0.0734 -0.3136
29031W        W44840   6.025   5.982   5.639  0.5092  0.0364 -0.2458
29032W        W44841   8.788  16.176   0.144 -0.4771  0.0759 -0.0480
29033W        W44842   7.704   4.028  15.183 -0.1107  0.3162  0.1691
29034W        W44843   0.049  17.506   5.126  0.0016  0.0800  0.3343
29035W        W44844  10.849  15.702   2.039 -0.0256 -0.1181 -0.1033
29036W        W44845   1.791   9.899   2.366  0.0491 -0.1615 -0.1221
29037W        W44846   2.656   1.349  15.891  0.0009  0.0840  0.2308
29038W        W44847   6.888   9.978  13.791  0.2683 -0.1231 -0.0868
29039W        W44848   7.160   3.423  11.966 -0.0268 -0.1391 -0.2163
29040W        W44849   5.310   1.338   1.203 -0.2207 -0.2363  0.1627
29041W        W44850  13.281   6.585   4.996 -0.2947 -0.1063 -0.0765
29042W        W44851   7.865   8.136  12.791  0.2383 -0.0833  0.0791
29043W        W44852   8.998  17.320   5.339  0.0700  0.0692 -0.2541
29044W        W44853  16.905   3.107  15.032 -0.1504 -0.0158 -0.0106
29045W        W44854   1.131   4.881   5.973 -0.1279 -0.2096  0.1183
29046W        W44855  15.357   9.010   1.001 -0.0065 -0.2763  0.3395
29047W        W44856   0.272  12.909   5.105  0.2407  0.0892  0.0384
29048W        W44857  13.355   9.564   4.441  0.2240  0.2023  0.0116
29049W        W44858  17.101   5.350  10.911  0.3414 -0.0733 -0.1198
29050W        W44859  16.228   2.461  15.425  0.1170 -0.1159  0.1614
29051W        W44860  11.156   7.712  16.270  0.1353  0.0634  0.0148
29052W        W44861   9.557   3.998   1.861 -0.1455  0.1558  0.3640
29053W        W44862   8.614   4.854  12.934 -0.0029 -0.1347  0.2155
29054W        W44863   0.410   7.931   1.213 -0.0419  0.0119 -0.3323
29055W        W44864  12.048  10.519  14.275 -0.1496 -0.1054 -0.0094
29056W        W44865   7.878  16.601   2.980 -0.0447  0.0461  0.2685
29057W        W44866   1.903   7.568   0.756 -0.0733 -0.0643 -0.0049
29058W        W44867   8.646  12.402  13.539 -0.0163 -0.2068  0.0390
29059W        W44868   7.571  16.207  13.375 -0.0689 -0.0928 -0.2311
29060W        W44869  11.095   3.685   6.267 -0.2120  0.1140 -0.0791
29061W        W44870  10.280   3.364  15.893 -0.0476  0.1132  0.3408
29062W        W44871  10.091   5.183  14.471 -0.0276 -0.0532 -0.1689
29063W        W44872   5.059  11.332   4.135 -0.0830  0.1134 -0.1056
29064W        W44873  13.797   0.017   2.447 -0.0666  0.1628 -0.0636
29065W        W44874  14.185   5.688   1.532  0.1808  0.3866  0.1570
29066W        W44875  14.727  15.979  12.289  0.1709  0.0376  0.0203
29067W        W44876   2.493  16.088   5.982  0.0643 -0.2990  0.2097
29068W        W44877  11.282  17.296   2.927 -0.2550 -0.2447 -0.0660
29069W        W44878   4.506   3.653  16.609  0.2470 -0.1119  0.0267
29070W        W44879   7.818  12.868   5.120 -0.1778  0.1053  0.1398
29071W        W44880  16.790  15.541  10.490 -0.3013 -0.2315 -0.1619
29072W        W44881  16.067   4.087   4.554  0.1380 -0.1433 -0.1147
29073W        W44882   4.146   5.131   4.629  0.2265  0.1381  0.0723
29074W        W44883   4.873  16.376  12.562  0.1277  0.1623 -0.2196
29075W        W44884   3.609  10.815   2.712 -0.0359 -0.4267  0.2679
29076W        W44885  13.661   2.464   4.338  0.1258  0.2093 -0.0618
29077W        W44886  14.017   0.429   4.587 -0.2346  0.0173  0.2085
29078W        W44887  11.959   2.764   2.858  0.1559 -0.1543 -0.2540
29079W        W44888   3.947   3.677   0.294  0.0813 -0.0293 -0.0169
29080W        W44889  11.369  14.052   2.834 -0.0447 -0.0982 -0.3019
29081W        W44890   9.226  10.109  16.242  0.0508 -0.3408 -0.1689
29082W        W44891  13.337  10.167   6.051  0.0046  0.0212  0.1048
29083W        W44892  15.245   4.248   3.290  0.1116 -0.1767 -0.2241
29084W        W44893   6.831   0.938   0.508  0.2422 -0.1063 -0.1175
29085W        W44894   0.471  13.915  15.128 -0.0047  0.1638 -0.2450
29086W        W44895  15.428   0.887  14.501 -0.0488 -0.1487  0.1228
29087W        W44896  14.987  14.726  11.366 -0.0686  0.0600  0.1242
29088W        W44897   0.389   0.479  11.656  0.4887 -0.2750 -0.1114
29089W        W44898  16.327  13.121  11.027 -0.0394  0.3964  0.1081
29090W        W44899   5.446   6.971   2.387 -0.1173 -0.1496 -0.2798
29091W        W44900   0.701  14.348   4.969 -0.0172 -0.0755  0.0878
29092W        W44901   4.419   2.532  13.005  0.0336  0.1795 -0.2097
29093W        W44902  15.803  17.391   0.888  0.1460 -0.2386 -0.0333
29094W        W44903   5.183   0.878   4.017 -0.0408  0.1707  0.1267
29095W        W44904   5.539   4.898  15.706  0.2670 -0.0023 -0.0229
29096W        W44905   2.498   6.688   3.304  0.0460  0.1597 -0.3397
29097W        W44906  14.692  12.215   1.838 -0.1485 -0.1284 -0.3485
29098W        W44907   2.689  13.429  16.932 -0.2968  0.1228  0.0713
29099W        W44908   8.313  15.176   2.080 -0.0681  0.0184 -0.0445
29100W        W44909  15.161   6.329  15.005  0.0124 -0.1743 -0.0470
29101W        W44910   3.115   4.398   0.107  0.0331 -0.2646  0.2715
29102W        W44911  16.215  11.526  14.919 -0.2683 -0.2515 -0.1750
29103W        W44912   2.820   0.410  14.451 -0.0058 -0.0816 -0.2729
29104W        W44913   3.146   3.731  16.263  0.2439  0.0631 -0.1771
29105W        W44914   0.110   7.751   4.865  0.1203  0.1291 -0.1219
29106W        W44915  10.237   5.578   4.392  0.1229 -0.3861  0.0039
29107W        W44916   8.987   5.420   4.026 -0.0128  0.1090 -0.0850
29108W        W44917   0.247  15.495   4.578 -0.0311  0.3132  0.0571
29109W        W44918   0.130   3.667  14.200  0.0071  0.1732  0.1039
29110W        W44919   9.971   9.335  15.321 -0.3071 -0.2589 -0.2015
29111W        W44920  10.128   8.201   2.631  0.1048 -0.1814  0.2091
29112W        W44921  10.289   3.424   3.005 -0.1067  0.1703 -0.0016
29113W        W44922   3.268   9.792   0.559 -0.1195 -0.0430  0.0539
29114W        W44923   5.023  11.343  14.085 -0.0108 -0.1567 -0.0454
29115W        W44924  13.988   1.265  13.253 -0.0270  0.1173 -0.0655
29116W        W44925  16.041  12.487   2.822 -0.0583  0.0043  0.0134
29117W        W44926   3.129  10.579  15.248 -0.1752  0.0401 -0.3565
29118W        W44927   1.787  14.803  12.065 -0.0409  0.3189 -0.0378
29119W        W44928   6.183   4.955  16.737 -0.1972  0.1486 -0.1005
29120W        W44929  15.414   8.031  12.725 -0.2024 -0.0936  0.3309
29121W        W44930   1.234  14.541   3.545  0.3290 -0.0009 -0.1458
29122W        W44931   8.479   4.831  14.800 -0.2998  0.0020  0.0251
29123W        W44932   3.183  10.362   1.685 -0.3509 -0.3216  0.1122
29124W        W44933  12.861   8.644   2.847 -0.1235 -0.0100  0.3275
29125W        W44934   7.717   0.137   3.483 -0.2151  0.0021 -0.2148
29126W        W44935  16.385  16.792   2.610  0.0349  0.4126  0.0566
29127W        W44936   3.117  13.894   1.857  0.2872 -0.0743 -0.0296
29128W        W44937   6.136   0.627  11.467  0.2298  0.0414  0.1158
29129W        W44938  13.669   6.404  16.750  0.1376  0.0968 -0.0487
29130W        W44939  14.156   5.637   5.031  0.0884 -0.2695  0.3298
29131W        W44940  13.674   5.321   0.480 -0.1814  0.3771  0.0218
29132W        W44941   5.682  15.748   3.662  0.1817  0.0357 -0.1286
29133W        W44942   7.068  11.809   1.263 -0.0421  0.0353  0.0357
29134W        W44943   8.322  13.724   4.464  0.0434  0.1120  0.2202
29135W        W44944   3.223  11.980   4.914  0.1260  0.1389  0.2169
29136W        W44945  17.457  14.840   0.458 -0.1015 -0.1395 -0.2085
29137W        W44946  13.998  16.123   4.619  0.1023 -0.0463  0.3549
29138W        W44947  12.380   2.045   4.553 -0.1552 -0.1038  0.1362
29139W        W44948   8.169  12.700  14.981  0.0974 -0.0726  0.0391
29140W        W44949  14.260  10.905  12.814 -0.4268 -0.1051 -0.2784
29141W        W44950   8.834  15.470   5.351  0.0054 -0.2118  0.0375
29142W        W44951   4.160   4.775   2.004  0.2933  0.0373  0.1379
29143W        W44952  16.022   8.549   1.377 -0.2580 -0.2554  0.1041
29144W        W44953   6.306  15.968  15.434  0.0331 -0.1342 -0.0500
29145W        W44954   2.405   5.177   2.269 -0.0078 -0.3062 -0.0060
29146W        W44955   3.439   7.844   1.958  0.1723  0.0269  0.0219
29147W        W44956  15.888   2.909  13.476 -0.1224  0.0032  0.1662
29148W        W44957  17.515   9.686  12.002  0.1116 -0.3911  0.2346
29149W        W44958   9.105  12.542  14.324  0.3303 -0.1406  0.0284
29150W        W44959  10.092   4.271  14.599  0.1743  0.0359  0.3288
29151W        W44960  11.231   8.449  14.676  0.1055  0.1453  0.0826
29152W        W44961  13.608   6.838   5.325  0.0361  0.0023  0.0822
29153W        W44962   2.730   4.618   3.468  0.2119 -0.1394 -0.0636
29154W        W44963  16.635   4.476   5.382 -0.1140  0.0332 -0.1312
29155W        W44964   1.405   1.884  13.818  0.1420 -0.0908 -0.2839
29156W        W44965   8.884  16.772   5.259  0.0785  0.1629  0.3660
29157W        W44966  12.644   3.381   0.836  0.1172 -0.2570  0.1350
29158W        W44967  16.928   6.878   2.964  0.2455  0.0968  0.0560
29159W        W44968  12.230   9.048  14.753 -0.1861 -0.2814  0.0520
29160W        W44969  12.222   2.350  16.713 -0.1316  0.0454 -0.2770
29161W        W44970   3.334  14.657  14.035 -0.1692 -0.0471  0.2507
29162W        W44971   7.338   6.677  15.808 -0.0236  0.1075  0.1834
29163W        W44972   9.742  14.442  13.670  0.2815 -0.0320 -0.4549
29164W        W44973   8.016   6.034   1.928 -0.1676 -0.0201  0.1192
29165W        W44974  12.258  11.015   4.026 -0.0704 -0.0111 -0.2776
29166W        W44975  12.458  10.900   2.902  0.0214 -0.1994 -0.2194
29167W        W44976   9.121   9.435   0.577  0.1659  0.1982  0.5313
29168W        W44977   7.729  11.517  14.471 -0.0858  0.0103 -0.0521
29169W        W44978  17.520   6.310  16.515 -0.0045  0.0242  0.0023
29170W        W44979   6.379  13.327  14.496  0.2100 -0.1699 -0.1941
29171W        W44980   4.141   1.756   5.738 -0.0179  0.0196  0.0179
29172W        W44981  11.697  12.707  15.257  0.1136 -0.0134 -0.0713
29173W        W44982  15.219  16.684   2.005  0.3635 -0.0465  0.0206
29174W        W44983   7.745  13.539   4.743 -0.2526 -0.0777  0.1506
29175W        W44984   3.314  12.953   4.948  0.0401 -0.1137  0.1414
29176W        W44985  12.497  14.286   5.272  0.3548  0.1051 -0.0275
29177W        W44986   8.969   8.339   5.891  0.1514  0.0586  0.2989
29178W        W44987   1.668   1.380   0.630 -0.0899 -0.1627  0.2685
29179W        W44988   1.066  11.708  13.654 -0.1164 -0.0390  0.0302
29180W        W44989   8.498   4.781   4.544  0.2007  0.0161  0.0977
29181W        W44990   1.339   2.464   0.181 -0.3315 -0.1778 -0.1051
29182W        W44991  12.841  17.211   3.341  0.0390 -0.0045 -0.4702
29183W        W44992  10.287   5.910   2.788 -0.0158 -0.0939 -0.1092
29184W        W44993  12.705  11.658   1.025 -0.0733 -0.2199 -0.1600
29185W        W44994   7.078  14.375  11.422 -0.1342 -0.0300  0.2180
29186W        W44995   0.469   0.532   4.921 -0.0059  0.1148 -0.0457
29187W        W44996   6.592  11.419   1.983 -0.0088 -0.2787 -0.1651
29188W        W44997   4.713   8.339   1.003  0.0085  0.1219 -0.0678
29189W        W44998   0.026  11.098   5.149  0.1392 -0.0943  0.1887
29190W        W44999   9.155  11.925  16.320  0.1361 -0.1340  0.1331
29191W        W45000   1.339   5.553   0.237 -0.0678  0.1031  0.2646
29192W        W45001   0.045   2.092  11.874  0.2757  0.2500  0.1946
29193W        W45002   7.804   1.243  15.426  0.0859  0.1196  0.0386
29194W        W45003   3.550  12.773  15.938  0.4545 -0.0254  0.1858
29195W        W45004   9.005   3.429  14.458 -0.0632  0.2379 -0.2775
29196W        W45005   1.645   4.912  15.913 -0.0889 -0.1412 -0.0567
29197W        W45006  17.608   3.154  14.506  0.1336 -0.3127 -0.0953
29198W        W45007   3.469  15.569  14.596  0.1336 -0.1242  0.1299
29199W        W45008  12.307   3.671   5.090  0.2548  0.0391 -0.0932
29200W        W45009   0.998   7.438   1.882  0.1707 -0.1158  0.0718
29201W        W45010   4.614  13.359  13.466  0.1882 -0.1283 -0.1139
29202W        W45011   2.787  12.600  12.518 -0.2311  0.0626 -0.1665
29203W        W45012   6.771   7.255   2.543  0.1265 -0.0295 -0.4313
29204W        W45013   5.383   7.178  12.464  0.2407  0.2908 -0.1366
29205W        W45014   1.443   7.542  14.277  0.1383 -0.0812 -0.1319
29206W        W45015   9.884   0.002  16.713  0.1526 -0.2108 -0.2313
29207W        W45016   4.541  14.515  12.854 -0.0795 -0.3733 -0.2981
29208W        W45017   2.218   6.649   0.620  0.0456 -0.5172  0.0108
29209W        W45018  11.921   7.495  15.129 -0.0391  0.0687  0.1706
29210W        W45019   9.936   4.692  14.880  0.0790  0.1158  0.1361
29211W        W45020  11.401  15.656   5.062  0.3510  0.1386 -0.0804
29212W        W45021  12.306  10.817   0.844 -0.1989 -0.0012 -0.4216
29213W        W45022   4.164   3.333  15.297 -0.2548 -0.0160  0.1852
29214W        W45023  16.241  13.671   1.303 -0.4667 -0.1281  0.1133
29215W        W45024  12.131   8.114  14.722 -0.1534 -0.2685  0.1992
29216W        W45025  15.862  13.998   0.291  0.0027 -0.0499  0.0885
29217W        W45026  14.195  14.014   4.412  0.1036  0.1501  0.2788
29218W        W45027  13.524   1.747   2.429 -0.0850  0.2507 -0.1586
29219W        W45028  16.715  16.484   0.366  0.2928  0.2305 -0.1068
29220W        W45029  14.993  13.877  11.860  0.0419 -0.3344  0.2266
29221W        W45030  10.077  17.442   6.160 -0.0180  0.2708 -0.0329
29222W        W45031   6.868   0.907   5.119 -0.1362  0.2516 -0.0348
29223W        W45032   2.682  11.858   4.153  0.0483 -0.2713  0.1191
29224W        W45033   0.842  10.203  13.968  0.0778  0.1682  0.0298
29225W        W45034   3.059  12.703   1.562  0.1174  0.1216 -0.1533
29226W        W45035  11.556   6.538   6.793 -0.1557 -0.1123  0.3486
29227W        W45036  13.290  16.885  13.708 -0.1001 -0.2310  0.0718
29228W        W45037  12.695  16.033   2.562 -0.0164  0.1515 -0.2425
29229W        W45038  10.611  14.825   0.819 -0.3421  0.1895 -0.0364
29230W        W45039   4.961  12.475   5.439 -0.2440 -0.3134  0.1859
29231W        W45040   0.827   5.671   5.480  0.2463  0.2076 -0.0605
29232W        W45041   1.063  10.430   3.916  0.0174  0.4734  0.3014
29233W        W45042   6.833   2.022   5.105 -0.1275  0.1465 -0.3226
29234W        W45043   9.565   9.025  16.625 -0.0043 -0.0985  0.1161
29235W        W45044   5.424  10.787  16.396 -0.0471 -0.2288  0.4358
29236W        W45045  14.498   6.588  13.599 -0.0877 -0.3106  0.1957
29237W        W45046   8.046  15.947   5.681  0.0083  0.0099 -0.3135
29238W        W45047   3.964  13.906  14.873  0.1146  0.0517 -0.0128
29239W        W45048  11.500   8.483  15.406 -0.0269 -0.1673  0.0585
29240W        W45049  15.345  11.559  16.972  0.0081  0.0182 -0.2747
29241W        W45050   8.194  14.325  15.103  0.0149  0.0165 -0.3754
29242W        W45051   0.569   2.719  14.440  0.2182  0.1945  0.1271
29243W        W45052  14.944  14.277  16.733  0.1458  0.0611 -0.1406
29244W        W45053  11.861  16.082  12.273 -0.1696  0.1852  0.0218
29245W        W45054  11.385   0.187  13.009 -0.0321  0.2711  0.1342
29246W        W45055   1.034  11.787  11.071  0.5334  0.0175 -0.2756
29247W        W45056   7.157   3.531   2.607  0.0857  0.1836 -0.0443
29248W        W45057   4.207   1.888   2.371 -0.0186  0.1631 -0.0867
29249W        W45058   1.860  10.477  14.315  0.0081  0.0534 -0.0589
29250W        W45059   2.257   3.346  15.919 -0.0721 -0.1802 -0.2549
29251W        W45060  13.944  10.787   2.548  0.4713 -0.1204 -0.0001
29252W        W45061   6.465  12.565   4.269 -0.0082 -0.1964  0.3526
29253W        W45062  10.790  13.041  14.494 -0.0057 -0.0404 -0.2738
29254W        W45063  17.193  13.254   4.804 -0.1424 -0.3490  0.0353
29255W        W45064  14.103   3.549  13.026 -0.2940 -0.0033 -0.1396
29256W        W45065   4.754  15.324  11.466 -0.0744 -0.1135 -0.2811
29257W        W45066   3.144  12.019   0.934 -0.2115 -0.1126  0.1304
29258W        W45067   2.555   9.122  13.303 -0.0652 -0.1190  0.1524
29259W        W45068   8.890   4.899  13.439 -0.1301  0.0374  0.0509
29260W        W45069  10.542  17.094   4.754  0.1165 -0.0236 -0.0727
29261W        W45070   3.319   6.502   5.999 -0.1049 -0.0147 -0.0788
29262W        W45071  12.157   5.961  12.815 -0.3467  0.1782  0.1185
29263W        W45072   9.530   1.503  13.223 -0.3152  0.0051  0.2426
29264W        W45073   5.786   7.542   1.225  0.2129 -0.1098  0.1080
29265W        W45074   5.487   5.809   1.120  0.0747  0.0039 -0.1215
29266W        W45075   2.534   8.690   5.126 -0.1107 -0.2140 -0.0170
29267W        W45076   5.430   5.195  12.417  0.0527 -0.4841 -0.3122
29268W        W45077   9.003  15.338  16.299  0.2788 -0.1135  0.1791
29269W        W45078  15.678   9.523  13.630  0.0535 -0.2892  0.0527
29270W        W45079   1.081   9.466   2.623 -0.0335  0.0795  0.1156
29271W        W45080  14.790  14.729   4.493 -0.3386  0.3967 -0.1883
29272W        W45081   9.336  13.839  11.324  0.2496  0.1553 -0.0561
29273W        W45082  13.623  11.839  16.245  0.2105  0.0850 -0.0207
29274W        W45083   8.397  12.784  11.349  0.1964 -0.0512 -0.0858
29275W        W45084  13.750  14.194  13.241  0.0178 -0.2264  0.1116
29276W        W45085   8.715  16.136  13.912 -0.0749 -0.0384  0.0287
29277W        W45086  13.814  12.325   4.009 -0.2280 -0.0662  0.4133
29278W        W45087  11.831   7.518   5.614  0.1579  0.1809 -0.1820
29279W        W45088  13.656   9.358   1.466 -0.3484 -0.1161  0.1746
29280W        W45089   0.315  13.286  13.883  0.0120 -0.1512  0.3272
29281W        W45090  15.836   9.140  13.331 -0.2232 -0.0080  0.1560
29282W        W45091  12.914   3.634  15.963 -0.0823 -0.0277  0.2778
29283W        W45092   2.030  14.735   2.414 -0.2092 -0.3036 -0.0252
29284W        W45093   6.261   2.101  12.277  0.0750  0.2604 -0.0196
29285W        W45094  17.727  12.072   0.476 -0.0595  0.0801 -0.0788
29286W        W45095   4.912   2.424   2.886 -0.0456  0.0681  0.1639
29287W        W45096   0.710  10.988  15.979  0.1682  0.2772  0.1395
29288W        W45097  14.318  17.461  13.808  0.0420  0.0020 -0.1812
29289W        W45098  12.580  14.544  11.224 -0.0791  0.2407 -0.0023
29290W        W45099   2.638   9.687  15.149  0.2148 -0.0773  0.3849
29291W        W45100   8.355  10.437   5.001  0.2053 -0.1475 -0.0452
29292W        W45101   9.655  15.320  14.330 -0.0293  0.0493 -0.1197
29293W        W45102  11.884   6.181  14.181  0.0019  0.0950  0.1835
29294W        W45103   7.974  12.629  15.404  0.0917 -0.0049  0.2448
29295W        W45104  10.593   4.378  12.440 -0.0298 -0.0751 -0.2702
29296W        W45105   8.917  14.668  16.884 -0.1380 -0.2952  0.1059
29297W        W45106  13.673  15.678  15.295 -0.1168 -0.2832 -0.1942
29298W        W45107  17.693  11.651  12.033 -0.1073  0.3786  0.0963
29299W        W45108   1.665   2.752   4.504 -0.1431 -0.1221  0.0862
29300W        W45109   8.283  13.903  12.163 -0.4219 -0.1036 -0.0228
29301W        W45110  14.480   4.498   0.965  0.2501 -0.0811 -0.1476
29302W        W45111  13.495   2.671  12.811 -0.0068 -0.2597 -0.0880
29303W        W45112  13.909  14.953   3.966  0.0585  0.0851 -0.2129
29304W        W45113   6.265  16.315  14.724  0.0359  0.0013  0.2373
29305W        W45114  16.283   9.253  16.456 -0.2361 -0.2080  0.0906
29306W        W45115   1.812   9.148   5.303  0.0549  0.3011 -0.1309
29307W        W45116   2.697   9.592   4.590 -0.2125  0.0094  0.1417
29308W        W45117   5.926  16.238  11.946 -0.2359 -0.1170 -0.1130
29309W        W45118  11.368   8.204  12.536  0.2246  0.1013  0.0538
29310W        W45119  13.530   6.534   1.518  0.0212  0.0037  0.0213
29311W        W45120   1.505  11.569  16.442 -0.3440  0.0725  0.1430
29312W        W45121   5.461   2.931  15.570 -0.3066 -0.0530  0.4751
29313W        W45122  13.612   4.484  15.469 -0.2694  0.1976  0.2441
29314W        W45123  12.994   8.697  12.771  0.0694 -0.0821  0.4024
29315W        W45124  13.182   9.136   0.272 -0.1218 -0.2284  0.0522
29316W        W45125   0.308   2.033  13.667 -0.0845  0.0862  0.2283
29317W        W45126   0.760   1.367   5.773 -0.0344  0.0211 -0.1766
29318W        W45127  17.044   9.932   1.666  0.2720  0.0706  0.0489
29319W        W45128   7.864   8.585   1.408 -0.0726 -0.1208 -0.0018
29320W        W45129  14.919   0.065  13.178  0.2392 -0.1480 -0.0076
29321W        W45130   6.080  12.086  13.930 -0.1983  0.4132 -0.0593
29322W        W45131   3.285  15.775  12.661 -0.0110  0.0027 -0.0038
29323W        W45132  15.803   3.919   0.020 -0.0088 -0.1358  0.0266
29324W        W45133  17.492   1.165   3.478 -0.1248 -0.0727  0.2972
29325W        W45134   2.235  12.808  13.780 -0.1667  0.0811  0.1554
29326W        W45135   6.293   3.562   2.143  0.1784 -0.0426 -0.2086
29327W        W45136  13.548   0.781  16.787 -0.0682 -0.0414 -0.5567
29328W        W45137   0.963  12.468   5.123  0.3224 -0.0569 -0.0503
29329W        W45138  16.692   9.892   5.366  0.0552 -0.1991 -0.3865
29330W        W45139  12.179  16.704   4.995 -0.2784 -0.2752 -0.1420
29331W        W45140  15.862   2.381  14.765 -0.0171  0.0480 -0.1129
29332W        W45141  13.115  15.840   5.369  0.4018  0.0535 -0.0723
29333W        W45142  13.049   1.654  12.530 -0.0626 -0.1264  0.0980
29334W        W45143   4.584   0.530  13.008  0.0267 -0.1592 -0.0840
29335W        W45144  12.275   6.755  16.518 -0.1019  0.3912 -0.0625
29336W        W45145  13.967   3.362   6.044  0.1162 -0.0351 -0.0504
29337W        W45146   9.115  11.656  16.747  0.0674 -0.1503 -0.0642
29338W        W45147  12.290   5.232  16.364  0.0782 -0.1092  0.0163
29339W        W45148  14.213   9.086   4.194  0.1263  0.1464 -0.1231
29340W        W45149   9.524   8.789  11.886  0.1261 -0.1807  0.0065
29341W        W45150   8.810   2.108   1.392  0.1167  0.1434 -0.0239
29342W        W45151   1.199   1.936   4.107  0.0047 -0.1831 -0.1110
29343W        W45152  10.087  13.205  12.651 -0.0955  0.1864 -0.0282
29344W        W45153  14.809   3.142   2.500  0.1059 -0.0237 -0.2517
29345W        W45154  10.027   7.127   1.834  0.0924  0.1741 -0.0312
29346W        W45155  12.676   0.661   1.902  0.0843 -0.0065  0.2367
29347W        W45156  16.301   1.624   0.170 -0.0131 -0.2463  0.1799
29348W        W45157  15.063   8.434   5.246  0.0590 -0.2030 -0.3415
29349W        W45158  15.682   4.711   5.620  0.0925 -0.1942  0.1427
29350W        W45159   6.968  17.613  12.430  0.1017 -0.0651  0.1858
29351W        W45160   0.771   9.810  15.119  0.0975 -0.2677  0.1066
29352W        W45161   8.922   4.734  12.096  0.0828  0.3551  0.0208
29353W        W45162  17.047  12.689  12.695  0.0652  0.0152 -0.2623
29354W        W45163   9.023   1.180   0.006  0.2245 -0.4083 -0.0120
29355W        W45164   4.174   0.551   3.339 -0.3181 -0.1233  0.1044
29356W        W45165   2.720  14.678   1.779  0.1798 -0.0295  0.2871
29357W        W45166  11.719   4.837  15.273 -0.1958  0.1562 -0.1926
29358W        W45167  17.143  12.776  16.426  0.0730 -0.0301  0.0037
29359W        W45168   0.797  13.228   5.761 -0.3638 -0.0246 -0.0421
29360W        W45169   3.931   0.651  14.507  0.0209  0.3322 -0.0494
29361W        W45170  10.556   2.264  13.740 -0.1237 -0.0265  0.2023
29362W        W45171   1.093   4.488  14.759  0.0550  0.0980  0.0720
29363W        W45172  14.315  15.385  16.846 -0.1975  0.1022  0.0618
29364W        W45173   3.680   0.057   4.743  0.0930  0.1431 -0.2868
29365W        W45174   3.040   7.608  15.922  0.1280 -0.0078 -0.0297
29366W        W45175   2.593  16.211  11.602 -0.1213 -0.0368  0.2959
29367W        W45176  11.371   4.865  13.240  0.0287 -0.2095  0.2135
29368W        W45177  15.718  14.437   4.227 -0.2888  0.4702  0.1358
29369W        W45178   5.723  12.153   5.068 -0.0842 -0.1551  0.2602
29370W        W45179   8.216   1.812  12.777 -0.1168 -0.2033 -0.2252
29371W        W45180  16.599  10.036   4.867 -0.1561 -0.1764  0.0733
29372W        W45181  12.546   3.373   1.345 -0.0372 -0.0845 -0.0239
29373W        W45182   0.248  10.039   0.951 -0.0343 -0.1796  0.0201
29374W        W45183   8.116   9.275   3.874 -0.4280 -0.1984 -0.1255
29375W        W45184   5.562  14.090   4.228 -0.1152 -0.3059 -0.1571
29376W        W45185   2.514  12.663  16.389 -0.1341 -0.1867  0.4361
29377W        W45186   5.594  10.975  12.589  0.0361 -0.2368  0.4747
29378W        W45187   0.289   5.629   0.846 -0.2301 -0.1250  0.2249
29379W        W45188   5.527  12.307  15.929  0.5752  0.0885 -0.2313
29380W        W45189   4.218  11.780  14.002 -0.1009  0.0159 -0.2454
29381W        W45190   5.813   3.183  13.979  0.1428  0.0998  0.1458
29382W        W45191   3.945   0.225   2.964  0.0905 -0.2187  0.1951
29383W        W45192  10.742  11.645   2.321 -0.0423  0.0170 -0.0736
29384W        W45193  11.616  17.541   4.868 -0.4165  0.2230  0.2956
29385W        W45194   3.290   0.877  12.051 -0.1816  0.2010  0.0371
29386W        W45195  16.373   7.173  15.226 -0.1388  0.1912 -0.3108
29387W        W45196  10.192   1.427   1.975 -0.0460 -0.1147 -0.2045
29388W        W45197   1.064   8.596   3.626  0.0056 -0.2558 -0.1261
29389W        W45198   0.635  15.090  15.168 -0.2631 -0.2849 -0.2312
29390W        W45199   9.357  11.778  12.931 -0.0153 -0.0425 -0.3108
29391W        W45200   6.075   8.717  16.457  0.1213  0.1044 -0.2582
29392W        W45201  12.822  14.738  13.006  0.1496 -0.0567  0.2334
29393W        W45202   8.156   8.085   5.200  0.1876 -0.1838  0.0138
29394W        W45203  15.564   7.220   4.394 -0.2431  0.0279 -0.3143
29395W        W45204  15.227   7.222  12.619 -0.4515  0.0410 -0.1653
29396W        W45205  11.437  16.421   3.334  0.3051  0.2315 -0.0017
29397W        W45206   1.305  14.816  13.638 -0.1617 -0.1664  0.0171
29398W        W45207  13.683  12.880   3.472 -0.0149 -0.0855 -0.0807
29399W        W45208  12.729   9.275  13.365  0.2065  0.3586 -0.0185
29400W        W45209  13.547   8.305  14.326  0.1169  0.3901 -0.1646
29401W        W45210   6.373  13.382  14.986 -0.0472  0.2803 -0.1204
29402W        W45211   6.716  10.465   1.085 -0.0591 -0.1479  0.2068
29403W        W45212   7.612   7.087  14.217  0.3315  0.1849 -0.0041
29404W        W45213   1.246   0.756   2.279 -0.2094 -0.1230 -0.0464
29405W        W45214   2.129   8.697  12.566  0.5507 -0.1400 -0.1356
29406W        W45215   3.100   7.085  14.891 -0.4855 -0.0764  0.2538
29407W        W45216   4.477   3.583  13.336  0.1713  0.0587  0.2079
29408W        W45217  10.166   2.740  16.714 -0.0502 -0.2420 -0.1938
29409W        W45218  11.998  17.218   2.243 -0.1243  0.2219  0.1098
29410W        W45219  14.526  14.065  16.113  0.2471  0.2393  0.0511
29411W        W45220   4.566   5.394  14.963 -0.0456 -0.1045 -0.1896
29412W        W45221   9.165  16.365  11.490  0.1662  0.2254 -0.0535
29413W        W45222   9.410   6.296  12.690  0.0153 -0.3315 -0.0758
29414W        W45223  17.444   6.727  14.866 -0.1427  0.0698 -0.1703
29415W        W45224   5.353  16.486  14.774  0.2653 -0.0233 -0.1373
29416W        W45225   6.520   2.398  15.584 -0.1076 -0.2774 -0.0365
29417W        W45226  16.963   6.473  13.358 -0.2293  0.3305 -0.3990
29418W        W45227  13.758   3.716   5.663 -0.0983  0.0100 -0.1458
29419W        W45228   3.659   5.425   0.836 -0.0216  0.0538 -0.2919
29420W        W45229  16.267   6.646   4.460  0.2321  0.2349  0.1763
29421W        W45230   2.086   2.623  16.571  0.3678 -0.1154 -0.1537
29422W        W45231  10.298   0.589   3.001 -0.1710  0.1609 -0.0426
29423W        W45232  17.182  11.626  14.877 -0.3565  0.4189 -0.2992
29424W        W45233  10.268   2.215  16.689 -0.0220  0.0026 -0.1433
29425W        W45234  12.482   5.908   3.468  0.2207 -0.1487  0.1282
29426W        W45235  10.623  15.463  11.501 -0.0699 -0.1586  0.2066
29427W        W45236   0.200   6.884   0.377  0.1183  0.0270 -0.0241
29428W        W45237  15.058  11.994   5.593 -0.0562 -0.0370 -0.0544
29429W        W45238   5.848   5.821  14.591  0.1366 -0.1472 -0.5509
29430W        W45239   1.976   6.203  14.149  0.2193  0.0749  0.1338
29431W        W45240  11.859  15.096   5.599  0.1220 -0.1812  0.0782
29432W        W45241   2.451   5.776   1.235  0.0883 -0.0441  0.0728
29433W        W45242  12.238   4.844   4.569  0.0763  0.2241  0.1391
29434W        W45243   2.420  15.644   1.107 -0.2709 -0.4353 -0.1879
29435W        W45244   2.727   2.049   5.667 -0.0530  0.2818 -0.0079
29436W        W45245   5.466  10.995  15.478 -0.0252  0.0796 -0.0320
29437W        W45246  15.016  13.504  11.530 -0.5174  0.2981  0.1762
29438W        W45247   8.766   3.629   0.019 -0.2936 -0.2926  0.3674
29439W        W45248  15.885  10.777  13.790 -0.0340  0.0236 -0.1169
29440W        W45249   2.520   9.349  14.379  0.1601  0.3138 -0.1506
29441W        W45250   2.393   1.220   4.642  0.0414  0.0868 -0.0307
29442W        W45251  11.523  12.843   0.992  0.2437  0.1516 -0.0948
29443W        W45252  10.215  16.561  16.995  0.1717 -0.1793  0.1288
29444W        W45253  10.995   1.194  12.057  0.1240  0.0272 -0.2596
29445W        W45254  16.357   5.795   1.697 -0.1198 -0.3446  0.0337
29446W        W45255   0.499  15.181   3.390  0.0146 -0.1044  0.0508
29447W        W45256  14.146   7.553   1.184  0.1318 -0.0143 -0.2751
29448W        W45257   0.784   3.272  12.090  0.0655 -0.0034  0.1174
29449W        W45258   9.660   4.174  14.890  0.1290  0.2042 -0.0802
29450W        W45259   5.826  14.575  11.419  0.1050  0.0328  0.1063
29451W        W45260   4.309   5.653  15.912 -0.4668  0.0524  0.0720
29452W        W45261  12.990   2.927  15.280 -0.0728 -0.0349 -0.2035
29453W        W45262  11.473  12.547   1.821 -0.1363 -0.0561  0.1779
29454W        W45263   9.527   1.317   2.997  0.0115  0.3010 -0.0700
29455W        W45264  12.271  11.025   1.788  0.4640  0.0756 -0.3645
29456W        W45265   0.786  17.295   5.544  0.0875 -0.1175 -0.0291
29457W        W45266  12.272   4.668  14.775 -0.3956  0.0494 -0.1834
29458W        W45267  16.028  15.593   1.825  0.1713  0.0515 -0.0124
29459W        W45268   4.192  11.963  13.551 -0.0174  0.1524 -0.0271
29460W        W45269  14.166  12.457  13.177 -0.0854  0.2899  0.3478
29461W        W45270   3.373   5.663   1.203  0.1758 -0.0657 -0.2534
29462W        W45271  16.077   1.278   5.281  0.2119  0.3758 -0.0870
29463W        W45272   2.646  16.259   0.047  0.0222  0.1097  0.0636
29464W        W45273   9.305   3.350   0.558 -0.0542 -0.1228  0.2619
29465W        W45274   8.076   4.244   1.797 -0.0076  0.3147  0.0298
29466W        W45275   8.764  16.863  13.844  0.0095 -0.0572 -0.2065
29467W        W45276   0.560   7.610   0.472  0.0436  0.1476  0.0590
29468W        W45277   7.691   8.757  15.099  0.0674 -0.4967  0.0482
29469W        W45278   2.932   3.184   2.697  0.0036 -0.1797 -0.0247
29470W        W45279   0.714   7.342   3.169 -0.3604  0.1323  0.2668
29471W        W45280   3.679   5.547  13.695 -0.0786 -0.2135  0.3582
29472W        W45281  12.241   2.046  13.509 -0.0255 -0.1192 -0.2366
29473W        W45282  14.122  12.019   0.610 -0.1457 -0.0370  0.1781
29474W        W45283  10.419   8.919   3.622 -0.1028 -0.3950  0.1231
29475W        W45284   1.456  11.225  12.376  0.1909  0.0489 -0.2194
29476W        W45285   4.278   5.243   3.712  0.1280 -0.0254 -0.0544
29477W        W45286  10.548  14.433  13.315 -0.2701 -0.0050 -0.3434
29478W        W45287  15.627   3.490   1.732 -0.1924 -0.3447  0.0658
29479W        W45288   4.280  10.605   2.729 -0.0121 -0.1159 -0.0873
29480W        W45289   4.430  16.097   3.588  0.0112  0.1038  0.2762
29481W        W45290   5.664  14.144  12.311 -0.0416 -0.0828  0.0714
29482W        W45291   5.646   4.132   5.640  0.1380 -0.2509 -0.0081
29483W        W45292   1.193  13.927  12.484 -0.0693  0.1160 -0.0347
29484W        W45293   7.565  11.538   1.299 -0.1867  0.0931  0.2348
29485W        W45294  13.287   8.364  11.878  0.0852 -0.0727 -0.2366
29486W        W45295   3.567   6.555  14.565 -0.1050 -0.4665 -0.1596
29487W        W45296   5.850  17.118   5.348 -0.2035 -0.2069  0.1937
29488W        W45297  15.963  15.004  13.276  0.0483  0.1699  0.2196
29489W        W45298   4.243  14.684  15.486  0.3744  0.2913 -0.2105
29490W        W45299   4.842   8.603   3.355  0.0692 -0.0622  0.2040
29491W        W45300   5.767   6.311  14.846  0.2648  0.1734  0.0124
29492W        W45301  13.431   1.734   4.895 -0.1090 -0.0620  0.1446
29493W        W45302   6.978   3.872   5.459  0.1856  0.1441 -0.1393
29494W        W45303  14.527   9.037  16.495 -0.0146  0.0033  0.1330
29495W        W45304   6.085  14.366  12.594  0.1352  0.0352 -0.0345
29496W        W45305   1.302   1.230  14.272 -0.0704  0.1263  0.0603
29497W        W45306  16.773   9.589  14.304 -0.1719 -0.3083  0.1943
29498W        W45307   0.698   8.734  13.758  0.1148  0.0767 -0.0553
29499W        W45308   3.633   7.279   2.525  0.1678 -0.3211  0.0133
29500W        W45309   4.994  10.592  16.643  0.0625 -0.2107  0.1544
29501W        W45310  16.996   6.820  12.404 -0.0844  0.0174 -0.0006
29502W        W45311  12.921   1.134   1.112 -0.1127  0.0381  0.1343
29503W        W45312   4.439  13.179   0.987  0.0845  0.2885  0.2812
29504W        W45313   9.597   4.649   0.981  0.2512  0.1806 -0.2260
29505W        W45314  11.743  17.289  16.007  0.2237 -0.1056  0.3773
29506W        W45315  17.729  16.210   0.270 -0.0896  0.0729  0.0220
29507W        W45316   4.263  10.313   3.674  0.2694 -0.0742  0.0471
29508W        W45317   9.741   4.701  15.684 -0.0278  0.0229  0.0708
29509W        W45318   6.007   3.815  11.913  0.0705  0.1810 -0.1121
29510W        W45319   9.235  15.349   4.046 -0.2881 -0.1094  0.0465
29511W        W45320  12.605   7.887   5.071  0.3050 -0.4098  0.0202
29512W        W45321   3.313   5.982   6.097 -0.0882  0.0578  0.3361
29513W        W45322  16.144  15.628   4.533 -0.0833 -0.3177  0.1406
29514W        W45323   9.159   8.158   3.078  0.0239 -0.1790 -0.0119
29515W        W45324   7.470  15.083   2.349 -0.2903  0.2538 -0.2409
29516W        W45325  17.477  10.094  11.648  0.1377 -0.0672  0.1412
29517W        W45326   5.304  16.048  12.920  0.2632  0.3437 -0.0134
29518W        W45327  14.692  10.273   3.833  0.1232 -0.3418 -0.2863
29519W        W45328  16.424  12.692  16.098 -0.1093  0.0509 -0.0255
29520W        W45329   0.739  11.573  14.985  0.2723  0.2287 -0.0307
29521W        W45330   5.700   2.917   3.088  0.0451  0.0904 -0.0122
29522W        W45331   7.263  11.219  13.489 -0.1841 -0.0304  0.1650
29523W        W45332  12.362  17.092  15.818 -0.2079 -0.1544 -0.0602
29524W        W45333   1.237   6.395   2.072 -0.2310 -0.2036  0.1952
29525W        W45334   5.813   9.546  11.944 -0.1522  0.1104  0.2457
29526W        W45335  17.699   7.122  12.274  0.0562 -0.0706  0.0686
29527W        W45336   9.068   7.001   1.501 -0.0397 -0.0323 -0.2407
29528W        W45337  13.901   7.119  14.223 -0.1527 -0.3077  0.0917
29529W        W45338  13.004   3.011  16.563 -0.1994 -0.3322 -0.1378
29530W        W45339  15.102   8.322   1.437 -0.0026  0.2689  0.0344
29531W        W45340  10.685  15.355   0.783 -0.1697 -0.2567  0.0492
29532W        W45341   1.144   6.132  14.021 -0.0993  0.1865  0.2137
29533W        W45342   2.598  11.902  14.150  0.0421  0.1646 -0.0959
29534W        W45343   1.076   5.073  15.975 -0.1028  0.2545  0.1153
29535W        W45344   8.076  14.323   3.769  0.1145  0.0897  0.2524
29536W        W45345  10.794   5.220  16.227  0.0127  0.1493 -0.1069
29537W        W45346  16.225   4.726  16.655  0.1235  0.1563  0.2977
29538W        W45347   8.345  10.728   2.397  0.1950 -0.0906  0.0783
29539W        W45348   8.997   8.198   4.496  0.1786  0.0220 -0.3031
29540W        W45349   0.487  15.525  15.237  0.0968 -0.0987  0.0588
29541W        W45350  15.793   6.823  13.106  0.0103  0.0554 -0.0134
29542W        W45351  16.543   6.226   0.798 -0.0188  0.0779  0.0037
29543W        W45352  17.243  15.595  11.785  0.2845  0.1943 -0.0396
29544W        W45353   1.176   0.755  16.624 -0.1852 -0.1957  0.0063
29545W        W45354   6.726   1.050  16.673 -0.1880  0.3089 -0.1577
29546W        W45355   9.017   6.559   6.031  0.2133  0.0021 -0.1906
29547W        W45356   6.263  12.731  16.655  0.1822 -0.2552 -0.0447
29548W        W45357  16.588  10.322   1.496  0.2450 -0.0219  0.0341
29549W        W45358   5.846  15.596  15.524 -0.0456  0.1160  0.0771
29550W        W45359  17.203  12.085   3.037  0.0287  0.2934  0.2261
29551W        W45360   6.037   7.303  16.976  0.0003 -0.1009  0.1147
29552W        W45361   2.842   0.701   0.164  0.1282  0.0992  0.2006
29553W        W45362   1.821  16.718  13.858 -0.0288  0.1185 -0.2624
29554W        W45363   9.603  14.874   5.202  0.0786  0.2775  0.2146
29555W        W45364  13.791   8.367   0.679  0.4291 -0.0312 -0.0836
29556W        W45365   5.033   2.974  15.444  0.2467 -0.1902  0.0273
29557W        W45366  10.147   8.425  13.865 -0.1721 -0.1205 -0.5141
29558W        W45367  13.599  16.479  16.226  0.0283 -0.2033  0.2108
29559W        W45368   5.230   6.594   5.320 -0.1581  0.0366 -0.0078
29560W        W45369   6.206  12.517  12.708 -0.1702  0.0643  0.2233
29561W        W45370   4.103   0.470   1.687  0.1452  0.3544 -0.0570
29562W        W45371   5.261  17.627   0.268  0.1110  0.2745 -0.0252
29563W        W45372   4.218   7.826   1.325  0.2909 -0.1023  0.0470
29564W        W45373  11.627   9.644  14.350 -0.3755  0.3305 -0.1629
29565W        W45374   3.341   4.423   1.386 -0.0691 -0.0858  0.0388
29566W        W45375   1.820  13.787   2.467 -0.3509 -0.2186 -0.1172
29567W        W45376   4.086  12.470  14.750 -0.1392  0.2564 -0.1019
29568W        W45377   5.985  14.125  14.427 -0.0425 -0.2217 -0.1576
29569W        W45378  16.578   8.641  12.894  0.1359  0.0867 -0.4203
29570W        W45379   9.477  17.085   1.561 -0.0644 -0.1011  0.0850
29571W        W45380   7.779   8.295  12.227 -0.0812  0.2879 -0.0278
29572W        W45381  15.373  11.024  14.522  0.0414 -0.2439  0.2471
29573W        W45382   9.009   1.214   4.991  0.1469  0.0496  0.0388
29574W        W45383   1.104   9.463  12.415  0.2332 -0.1740  0.1246
29575W        W45384   4.691  16.480   1.840 -0.2234  0.1674 -0.1284
29576W        W45385   3.529   9.010  12.775  0.1920  0.2657 -0.1360
29577W        W45386  11.545   9.979  12.286  0.1986  0.1287 -0.2323
29578W        W45387  13.708   5.194   1.412  0.0453  0.0008  0.0064
29579W        W45388  16.560   5.031  13.481  0.0786 -0.1053 -0.1059
29580W        W45389   0.763  15.884   4.076  0.0576 -0.2313  0.1213
29581W        W45390  13.825   5.597  16.504 -0.0754  0.0727  0.6120
29582W        W45391   1.305   7.156   3.780  0.1477 -0.0873 -0.0963
29583W        W45392   7.993   6.831  14.521 -0.0140  0.1667  0.2254
29584W        W45393  17.463   3.643   3.673  0.2765  0.0476 -0.3004
29585W        W45394   6.751   9.278   1.114  0.2499  0.0844 -0.1159
29586W        W45395   9.004  15.420  13.321  0.1072 -0.2062 -0.1097
29587W        W45396   0.346   1.161   2.790  0.0011 -0.1689 -0.4575
29588W        W45397   2.969  13.481  14.933 -0.0301 -0.3647  0.2813
29589W        W45398  10.787  17.371   2.124 -0.0046 -0.0599 -0.1057
29590W        W45399   2.908   2.275   1.926  0.3986 -0.1080 -0.1349
29591W        W45400  17.234   0.335   4.040 -0.2678  0.2296 -0.1417
29592W        W45401   7.347  11.764   4.859  0.1246 -0.2469 -0.1492
29593W        W45402   3.978  17.288  16.263  0.4561  0.2798  0.1142
29594W        W45403   4.191   8.766   1.653 -0.0615 -0.0037  0.1690
29595W        W45404   5.276  14.537   1.847 -0.1610  0.2164  0.1525
29596W        W45405   7.605   3.082   0.110  0.0787 -0.2522 -0.0364
29597W        W45406   0.546   7.943  12.648  0.2560  0.2040  0.1940
29598W        W45407   8.603   3.445   6.165  0.2176  0.0563  0.2216
29599W        W45408   7.618   7.152   0.563  0.0026 -0.1327  0.0377
29600W        W45409   4.443   5.781  14.637 -0.0107  0.0724 -0.1435
29601W        W45410  15.848   7.834  16.812 -0.1667 -0.0062 -0.0247
29602W        W45411   6.697   0.693   2.127 -0.1042 -0.0380 -0.0607
29603W        W45412   5.728   5.710  13.039  0.3005 -0.3044  0.0356
29604W        W45413   2.932  10.051   4.503 -0.2108 -0.0949  0.2761
29605W        W45414   3.317   2.401  16.393  0.0197 -0.0924  0.1998
29606W        W45415  10.431   5.744   5.925  0.0194  0.1096 -0.1310
29607W        W45416   1.274  10.916   5.818  0.1117 -0.0275  0.1556
29608W        W45417  17.313   8.476  14.725  0.4335 -0.0361 -0.0412
29609W        W45418  17.045   8.861   0.521  0.1707 -0.2371 -0.0774
29610W        W45419   1.239  13.174  16.049  0.1404  0.1261 -0.1095
29611W        W45420  11.752  15.562   2.794 -0.0797  0.2421 -0.2067
29612W        W45421   4.030   1.577   2.725  0.1311 -0.0163  0.1543
29613W        W45422   7.776   1.442  10.617 -0.1687  0.2299 -0.0676
29614W        W45423   5.935   9.985  13.489 -0.1207 -0.0134 -0.2518
29615W        W45424  14.800   6.714   2.738  0.0332 -0.1410 -0.0885
29616W        W45425   3.452  15.882  12.136  0.0238 -0.0353 -0.0241
29617W        W45426   9.862   4.173  13.710 -0.3061  0.3353  0.1953
29618W        W45427   9.001  15.012  11.971 -0.1670  0.0662 -0.0593
29619W        W45428   2.862   7.600  16.583 -0.2555  0.3138  0.0333
29620W        W45429   0.912   4.131   2.354 -0.2510 -0.0853 -0.1359
29621W        W45430  17.579   0.392   1.817 -0.2317  0.1939  0.1386
29622W        W45431  10.823  13.240  11.629 -0.0109  0.4801 -0.0008
29623W        W45432  17.210  14.552   1.299  0.0894 -0.1399 -0.1323
29624W        W45433  14.666  13.111  16.777  0.1121 -0.0218  0.0962
29625W        W45434   6.787  16.754   0.588 -0.3122  0.1772  0.0185
29626W        W45435  15.396  16.553   2.453  0.1096 -0.1971  0.1702
29627W        W45436  13.076   4.113   0.863 -0.1149 -0.0419 -0.0181
29628W        W45437   6.692  17.338  13.135  0.1502  0.0243  0.3731
29629W        W45438   2.678   7.834  14.778 -0.0039 -0.1410  0.0987
29630W        W45439   0.891  15.116  11.842 -0.0624  0.3238 -0.1138
29631W        W45440   2.839   1.055   3.118  0.1314 -0.0317 -0.1389
29632W        W45441  16.185  16.021  13.023  0.1479  0.0820 -0.0448
29633W        W45442  12.104  16.254  13.784 -0.1168 -0.0574 -0.1018
29634W        W45443   5.529   2.576  15.888 -0.1392  0.0760  0.0027
29635W        W45444   1.084   4.161   5.460 -0.0097  0.1053  0.0417
29636W        W45445   7.496   6.504  16.840 -0.1756 -0.0548  0.0233
29637W        W45446   7.774  10.323   2.920  0.1331  0.1888 -0.1957
29638W        W45447   5.876   0.247  11.949  0.0665  0.0225  0.0509
29639W        W45448  17.158  10.822   4.605 -0.0491 -0.0502  0.2964
29640W        W45449   8.910  16.920   0.824  0.2185 -0.4290 -0.1382
29641W        W45450   6.538   6.960  14.963 -0.1543  0.0486 -0.2303
29642W        W45451   0.029   5.624   4.551  0.0017  0.1295  0.1040
29643W        W45452  15.393   4.368  14.735 -0.0207  0.1530  0.2379
29644W        W45453   1.830   4.417   2.088 -0.4191  0.2519 -0.1702
29645W        W45454  11.798   9.218   4.688 -0.4875  0.1064  0.0043
29646W        W45455  11.648   4.137   2.778  0.0516 -0.0237  0.2239
29647W        W45456   3.620   2.754   0.888  0.2837 -0.0016 -0.0988
29648W        W45457  10.797   2.696   3.765  0.1332  0.2455 -0.0580
29649W        W45458   4.606   8.861   5.820 -0.0375  0.1963  0.1532
29650W        W45459  13.191   9.203  16.286  0.3025 -0.2836  0.0215
29651W        W45460   1.872   2.548  14.625 -0.1602 -0.2435 -0.1264
29652W        W45461  10.058  17.328  14.009 -0.1695  0.2517  0.1770
29653W        W45462  10.194   8.456  16.833  0.2356  0.0040  0.1244
29654W        W45463   4.916   2.790   3.821 -0.0317  0.0857  0.0482
29655W        W45464  10.421  15.657   2.207  0.0281  0.2314 -0.0400
29656W        W45465   5.322   1.139   2.663  0.0320  0.2056  0.2090
29657W        W45466  17.177  10.307  15.275 -0.1774 -0.0535  0.4683
29658W        W45467   6.191  16.443  15.227  0.0869 -0.1881  0.1292
29659W        W45468  11.109   4.748  14.026  0.2444 -0.0380  0.0632
29660W        W45469   0.176   4.197   1.124  0.0242 -0.0937 -0.0972
29661W        W45470  11.969   8.021   5.802 -0.2987 -0.1525 -0.0910
29662W        W45471   2.497   4.103  14.261  0.1248 -0.0766  0.0503
29663W        W45472  14.209  16.406   4.147 -0.0992  0.1337 -0.1963
29664W        W45473  13.154  14.381  14.546 -0.1389 -0.2003 -0.1533
29665W        W45474  16.603   8.106   5.564 -0.0186 -0.1527 -0.0385
29666W        W45475  10.758   5.914  15.490 -0.1026 -0.0186 -0.0363
29667W        W45476   9.260  16.104  14.357 -0.2209 -0.0506 -0.0804
29668W        W45477   5.777   6.751  14.536  0.0254  0.2293 -0.2441
29669W        W45478   7.294   9.069  10.853  0.0431 -0.1921 -0.1150
29670W        W45479  14.354   3.849   6.822 -0.0391  0.0617  0.0762
29671W        W45480   3.052  13.963   4.330 -0.0100  0.3719 -0.0538
29672W        W45481   4.978  10.847   4.226  0.0160 -0.2476  0.1485
29673W        W45482   1.007   4.076   4.728  0.2145  0.1202 -0.1797
29674W        W45483   6.044   4.062  14.968  0.0588 -0.3695  0.0480
29675W        W45484   0.819   3.504   4.753 -0.0544  0.1127 -0.0850
29676W        W45485  17.116  15.421  13.429 -0.1195 -0.0332 -0.0848
29677W        W45486   7.859   2.630   0.284 -0.0913  0.0986  0.1892
29678W        W45487   5.818   5.937  16.498 -0.2401  0.2779  0.1874
29679W        W45488  13.689  16.379   3.012 -0.0748  0.3516 -0.0454
29680W        W45489  17.429  13.120   3.872 -0.0408 -0.1509  0.0681
29681W        W45490  13.920   2.925   5.200 -0.0903  0.0756 -0.2989
29682W        W45491   0.901  16.343   3.946 -0.2506  0.0516  0.0659
29683W        W45492   3.363  13.367   4.588 -0.1295  0.0499 -0.1015
29684W        W45493  11.200  13.392  15.731  0.1177 -0.0116  0.0596
29685W        W45494   5.440  11.277  13.008  0.0133 -0.0811 -0.0301
29686W        W45495  10.311   0.463   3.460  0.0277  0.1507  0.0992
29687W        W45496   2.546   1.310  15.405  0.0138 -0.2518  0.1845
29688W        W45497  14.386  11.845  16.793  0.0100 -0.0641 -0.0462
29689W        W45498  12.736   6.793  13.749 -0.0821  0.0915  0.0182
29690W        W45499  14.460   4.518  14.414 -0.1153 -0.0316  0.0730
29691W        W45500   9.853  15.657   2.750 -0.0472  0.0543 -0.0421
29692W        W45501  11.316   9.620   1.124  0.2853 -0.2371 -0.0148
29693W        W45502  15.975  12.998   5.484  0.0539  0.2333  0.0457
29694W        W45503   3.458  16.877   4.412  0.1046  0.2688 -0.0516
29695W        W45504   1.134   7.846   2.546  0.0709 -0.1354  0.1344
29696W        W45505   7.556   8.365  14.260 -0.0608 -0.3239 -0.1860
29697W        W45506   2.449   7.015   4.654 -0.0553  0.0880  0.1130
29698W        W45507  14.589  12.791   6.028 -0.1732  0.1370  0.1565
29699W        W45508   5.528   0.872  14.420 -0.3385  0.0888  0.0391
29700W        W45509   1.696   8.067  16.171 -0.1520  0.2330  0.2500
29701W        W45510   8.331   3.971  14.545 -0.1193 -0.2314 -0.1648
29702W        W45511   3.919  15.684  13.861  0.1483 -0.0097 -0.0086
29703W        W45512  17.240  15.603   3.539 -0.5178 -0.1407  0.0851
29704W        W45513   5.665   2.498  15.404  0.0362  0.0438 -0.3234
29705W        W45514  17.728  14.453   0.662 -0.1474  0.2672 -0.0084
29706W        W45515  15.838   1.039   4.335  0.0659 -0.0960 -0.0008
29707W        W45516   2.616   4.405  15.706  0.1920 -0.0356  0.0278
29708W        W45517  13.749   8.306   2.943  0.0009  0.1278 -0.1220
29709W        W45518  11.160  11.818   5.642 -0.1586  0.1650  0.1656
29710W        W45519  15.931   7.477  12.182 -0.1497  0.1665  0.0250
29711W        W45520   9.096  16.921  11.408 -0.0149 -0.2980  0.1667
29712W        W45521   2.251   7.283  12.036  0.2906 -0.1958  0.1081
29713W        W45522   4.277   0.700   1.074 -0.1873  0.3027 -0.3201
29714W        W45523  13.137  10.640  14.455 -0.1622  0.3224 -0.0664
29715W        W45524   9.170  14.010  12.934 -0.0545 -0.0890 -0.1716
29716W        W45525   2.995   5.019   3.388 -0.0973 -0.1532 -0.0638
29717W        W45526  11.900  16.146  11.036 -0.0477 -0.1391 -0.2275
29718W        W45527   7.799  11.847   5.512 -0.2598  0.1334 -0.1665
29719W        W45528   7.289  13.509  11.226 -0.3734 -0.0537 -0.2465
29720W        W45529  16.471  17.428   2.352  0.1780  0.0650 -0.1313
29721W        W45530  10.042   6.017  10.889 -0.0556  0.0167 -0.2075
29722W        W45531   2.058   9.278  13.219  0.1128  0.0280 -0.2232
29723W        W45532   5.196   4.618  13.626 -0.1325 -0.4117  0.0054
29724W        W45533  12.942   1.506   0.652 -0.0683 -0.0587 -0.1665
29725W        W45534   4.148   6.335   2.676  0.0595  0.1889  0.0201
29726W        W45535  15.919   8.965   4.709 -0.5170  0.1865  0.1512
29727W        W45536   8.060   9.198   1.434 -0.3759  0.0042  0.0778
29728W        W45537   7.524  14.978   1.745  0.0801  0.1739 -0.1778
29729W        W45538   9.242   9.894   1.512  0.0923 -0.2276  0.2406
29730W        W45539  13.362   1.582   0.365 -0.1638  0.1161  0.0720
29731W        W45540   5.372   9.146  15.383  0.0305 -0.1619  0.3763
29732W        W45541   3.482   8.620   6.491 -0.3008  0.1875  0.0741
29733W        W45542   6.584  17.501   3.429 -0.1504 -0.0200 -0.0775
29734W        W45543   5.153   6.637   0.900 -0.1582 -0.0093 -0.2255
29735W        W45544   2.553  10.946   0.824 -0.0437 -0.0996  0.0029
29736W        W45545  16.510  14.606   0.228  0.0626 -0.0661  0.1637
29737W        W45546   9.379  15.852   5.190  0.0712  0.1417  0.1605
29738W        W45547  13.116  14.839  10.626  0.0016  0.0476 -0.1336
29739W        W45548   8.187   5.335   2.678  0.2123 -0.1600  0.1797
29740W        W45549  17.224  16.736   5.097 -0.1105  0.0860  0.2973
29741W        W45550  15.686   5.857  15.406 -0.0381 -0.0286  0.1157
29742W        W45551  16.191   0.702  11.798 -0.2264 -0.2633 -0.0323
29743W        W45552   4.698  17.533  15.595 -0.2871 -0.3302 -0.1527
29744W        W45553   0.521  15.992   5.777 -0.0425  0.1775  0.0635
29745W        W45554   9.866   0.558   1.650  0.1017 -0.0725 -0.1448
29746W        W45555   8.832  16.574  16.208  0.0385 -0.1026  0.1241
29747W        W45556  17.420   8.189   4.311  0.1205 -0.1852 -0.0393
29748W        W45557   3.300  13.730  13.935 -0.0620  0.2447 -0.0303
29749W        W45558   5.076   2.394  14.056 -0.0362 -0.1283  0.1916
29750W        W45559   3.347   5.205  13.979 -0.0777 -0.1079  0.1125
29751W        W45560   4.225  13.468   3.210 -0.0291 -0.0662  0.0282
29752W        W45561   5.386  16.871   4.434  0.0146 -0.0997 -0.1222
29753W        W45562  11.109  12.992   4.188 -0.1805 -0.0816 -0.1662
29754W        W45563  14.878   5.803  15.624 -0.0106  0.3306 -0.1870
29755W        W45564   6.819  11.153  13.745 -0.0244  0.0570  0.1728
29756W        W45565  11.650   4.281  13.181 -0.0135 -0.1944 -0.0103
29757W        W45566   0.934   9.193   0.787 -0.3586  0.2165 -0.0646
29758W        W45567   8.391  10.508  12.138  0.1087 -0.1709  0.2137
29759W        W45568   1.167   2.511   1.548  0.0572 -0.0632 -0.1107
29760W        W45569   1.379  16.630  13.508 -0.0481 -0.0558  0.1766
29761W        W45570  12.592  11.477  13.615 -0.2832  0.0087 -0.3466
29762W        W45571  10.585  17.157   3.442  0.3917  0.1868 -0.3288
29763W        W45572   0.427   5.133   2.800  0.2388  0.1791  0.1395
29764W        W45573   6.058   2.652   0.943  0.2173  0.1786 -0.2672
29765W        W45574   8.425  11.302   2.447 -0.1950 -0.1663 -0.0201
29766W        W45575  17.737   3.202  13.494 -0.0312  0.0674 -0.2362
29767W        W45576  17.213   4.059  16.765 -0.3138  0.2598  0.0587
29768W        W45577  14.042   3.029   0.709  0.0390 -0.1162 -0.1194
29769W        W45578  10.934  10.662  12.309 -0.0126 -0.1003  0.4774
29770W        W45579   7.589   6.680   4.084  0.3018  0.0030 -0.5615
29771W        W45580  11.544  13.246  13.013  0.2068 -0.1791 -0.3632
29772W        W45581   9.164   6.345  15.841  0.3242  0.1249  0.0779
29773W        W45582   3.049  16.457  12.928 -0.0174  0.1193  0.0074
29774W        W45583   7.314  12.379   4.143  0.0423  0.0537 -0.3610
29775W        W45584  17.113  14.510   5.664  0.0214 -0.0162  0.1282
29776W        W45585  10.372   3.367   0.261  0.3066  0.2426 -0.0528
29777W        W45586   4.477   3.021   3.733 -0.1750 -0.1027 -0.0404
29778W        W45587  14.636   8.424   3.363  0.0261  0.0390 -0.0633
29779W        W45588  13.209   5.196  16.203 -0.0383  0.1297  0.1879
29780W        W45589   5.113   8.260  14.870 -0.0462  0.0958  0.2521
29781W        W45590   8.408  13.220   1.017  0.0704  0.0799  0.0061
29782W        W45591   4.326   9.421  12.593  0.0266 -0.1950  0.0880
29783W        W45592   4.286   6.666  13.317 -0.0653 -0.0520  0.4823
29784W        W45593   1.593  12.779   5.648  0.0213 -0.1032  0.0602
29785W        W45594   3.429  14.228   0.018 -0.1867 -0.4449  0.0015
29786W        W45595  13.082   2.522  12.460  0.3958  0.3650 -0.4127
29787W        W45596  10.681  15.979   0.954  0.1925 -0.0141 -0.1031
29788W        W45597   3.952   7.889   1.779 -0.1436 -0.2710 -0.1335
29789W        W45598  14.941   7.110  16.524  0.0254  0.0148  0.2681
29790W        W45599   6.727   9.257  15.478  0.0218 -0.2090 -0.2243
29791W        W45600   1.274   7.058   0.149  0.0435  0.0910 -0.0807
29792W        W45601   0.801   7.303  14.645 -0.1999  0.1091 -0.1114
29793W        W45602   5.888   4.777   4.213 -0.0339  0.1000 -0.2164
29794W        W45603  11.062  10.683   4.734 -0.1506  0.2769 -0.0006
29795W        W45604   4.400   6.438  15.422  0.0581 -0.2327 -0.1719
29796W        W45605  15.359  14.089   4.609 -0.2278 -0.0861 -0.0240
29797W        W45606   8.776  11.069   1.601 -0.0429  0.2169  0.1166
29798W        W45607   7.806  10.685  14.670  0.2255  0.0513  0.0810
29799W        W45608   4.763  11.165  14.929 -0.0823  0.2859 -0.1789
29800W        W45609   7.365  10.213  13.934  0.3068 -0.3287 -0.0009
29801W        W45610  16.091  15.046   0.033  0.2811 -0.0321 -0.2831
29802W        W45611  14.759  13.893  12.297  0.2987 -0.4165  0.0649
29803W        W45612   0.627  13.120   3.531 -0.1704 -0.0131  0.1449
29804W        W45613  12.208  10.093   2.200  0.1721  0.0718  0.2068
29805W        W45614  10.340  14.031  12.185  0.1315  0.1353 -0.2108
29806W        W45615  12.423  13.031   4.305  0.0938  0.1551  0.0098
29807W        W45616   0.983  17.188   4.321 -0.1313 -0.0070  0.0817
29808W        W45617   3.390   0.152  16.534  0.0609  0.0148 -0.1462
29809W        W45618   1.145   4.142  12.089  0.3334  0.0431  0.2132
29810W        W45619   3.533   8.846  11.722 -0.2380 -0.0176  0.4170
29811W        W45620  13.575   7.947   2.640 -0.1330  0.2652  0.0449
29812W        W45621   1.147  11.219  14.322  0.2447 -0.4065 -0.1268
29813W        W45622   3.827   9.260  13.850 -0.2254  0.3763 -0.1940
29814W        W45623   1.377  11.657  11.429  0.0628 -0.1967 -0.1412
29815W        W45624   4.117   0.693  14.059  0.1070  0.0439 -0.1360
29816W        W45625   0.358   0.787   3.179  0.1324  0.1649 -0.1047
29817W        W45626   7.139  16.468   4.434  0.3604  0.0302 -0.2263
29818W        W45627   2.716   1.660   4.727 -0.2415 -0.1138 -0.0900
29819W        W45628  14.595  14.576   1.996  0.0817  0.0419  0.1193
29820W        W45629  10.466  12.765   4.461 -0.0247 -0.0399 -0.2489
29821W        W45630   7.348   9.989  16.904 -0.0987  0.1737  0.1709
29822W        W45631   9.570   0.015  13.215  0.1008 -0.1495 -0.1627
29823W        W45632  15.344  17.368   3.342 -0.1483  0.0183  0.1194
29824W        W45633  16.066  12.567   3.744 -0.0049 -0.2503  0.1177
29825W        W45634   8.647  16.782  11.445  0.0674 -0.1968 -0.2532
29826W        W45635   9.775   2.411  12.723  0.0167  0.2435  0.2777
29827W        W45636   9.003   3.778  14.078 -0.0387 -0.2112 -0.1673
29828W        W45637   6.277  11.083  16.503  0.0947 -0.3039 -0.0050
29829W        W45638   5.793   4.797  14.822 -0.1638 -0.0916 -0.0642
29830W        W45639  12.436  16.870   3.092 -0.1820  0.0476 -0.0162
29831W        W45640  13.559   4.423   5.558  0.0553  0.0926 -0.0532
29832W        W45641   0.520  10.337   4.714 -0.2457  0.2092  0.1911
29833W        W45642  12.171  14.425   1.860 -0.0066 -0.0450  0.0350
29834W        W45643  10.255  11.465   3.797 -0.2942  0.0652 -0.2579
29835W        W45644  11.513  15.230  15.419 -0.2951  0.1046 -0.0814
29836W        W45645   1.171   0.029  11.871 -0.2063  0.3172 -0.0146
29837W        W45646   4.168   2.507   4.325 -0.0037 -0.2784 -0.2572
29838W        W45647  10.684   5.069  16.702  0.0475  0.0601 -0.2235
29839W        W45648  15.989   7.513   4.610  0.2263 -0.0253  0.0240
29840W        W45649   5.734   6.614  15.262  0.2716 -0.0078 -0.0505
29841W        W45650  12.324  16.595  15.813  0.0876  0.3377 -0.0664
29842W        W45651   6.251   0.508  13.939 -0.0345  0.0137 -0.1080
29843W        W45652   5.065   0.692  11.608 -0.0263 -0.1403 -0.1110
29844W        W45653   4.670  16.033   1.519 -0.3253 -0.1204 -0.0738
29845W        W45654  10.309  12.870  15.735 -0.0600 -0.4007 -0.1766
29846W        W45655   8.653   2.036  13.367  0.0306 -0.0406 -0.0857
29847W        W45656   3.659   1.137   6.063  0.1017  0.0389  0.2306
29848W        W45657  17.038   8.307  15.727  0.0607 -0.0570  0.2456
29849W        W45658   2.281  16.261   5.099 -0.0903 -0.0643 -0.2048
29850W        W45659   9.739   5.915   1.839  0.2140  0.1517 -0.0168
29851W        W45660  16.536   1.303   6.415  0.2216 -0.0065  0.2217
29852W        W45661   8.457  16.130   0.552  0.1099  0.0150 -0.0264
29853W        W45662   8.268  10.857  14.466  0.0650  0.0697 -0.3373
29854W        W45663  10.971   0.873  12.485 -0.1497  0.0181 -0.0736
29855W        W45664  14.178   6.503  12.222 -0.2728 -0.1870  0.2125
29856W        W45665   8.710   1.801  15.451 -0.1356 -0.2000  0.1132
29857W        W45666   6.832  12.172  16.732  0.0264 -0.1240 -0.1103
29858W        W45667  12.952   1.141  12.555 -0.1618 -0.0125  0.2989
29859W        W45668   8.110  15.576   2.317  0.1273  0.0057 -0.2373
29860W        W45669  13.873  12.218  13.809  0.0445 -0.2025  0.2079
29861W        W45670   4.114  15.203  13.968  0.1864  0.1676  0.0259
29862W        W45671  14.473  11.446   3.796 -0.1671  0.1307  0.0175
29863W        W45672   9.523   9.540   0.353  0.3468  0.1310 -0.0868
29864W        W45673  13.770   8.520  15.840 -0.0368  0.0317  0.1343
29865W        W45674  14.138  17.046  11.373 -0.0910  0.1706 -0.1615
29866W        W45675  14.197   6.405  12.919  0.1212  0.2454  0.1964
29867W        W45676  12.584  13.639  12.915  0.1262 -0.1952 -0.1039
29868W        W45677   8.896  13.869  13.910 -0.1418  0.0536 -0.1750
29869W        W45678   3.497   8.167   2.363  0.3448  0.0556 -0.0012
29870W        W45679   0.544   1.649  14.544 -0.2561  0.0475 -0.3384
29871W        W45680   8.148   6.816   0.899 -0.0027 -0.0607 -0.0860
29872W        W45681   2.876  12.110  14.552  0.0049  0.0858  0.2314
29873W        W45682   5.320  13.767   3.462  0.1118 -0.0443 -0.0572
29874W        W45683  14.635  14.317  12.041  0.0670  0.1392  0.1577
29875W        W45684  17.340  14.889   0.980 -0.1291  0.5448  0.0108
29876W        W45685   7.212  15.140  15.673  0.0704 -0.1645 -0.0853
29877W        W45686  14.220   4.565   3.167  0.2836  0.0317  0.1981
29878W        W45687   6.782  17.112   4.004 -0.2006 -0.0316  0.0243
29879W        W45688   5.299  16.542   1.039 -0.2663 -0.1567  0.1837
29880W        W45689   5.881  13.301  12.622 -0.1255 -0.2907 -0.0375
29881W        W45690  16.927  10.857   5.084  0.0462  0.2817  0.1037
29882W        W45691   4.276   1.087  13.119  0.1944 -0.0163 -0.2772
29883W        W45692  13.402  11.590  16.962 -0.1685 -0.1783  0.3546
29884W        W45693   0.097   8.176  16.403 -0.3170  0.2418 -0.2226
29885W        W45694  15.379   5.140   2.452  0.0129  0.0936  0.1266
29886W        W45695   5.308  14.734   5.644 -0.1246 -0.0281 -0.0560
29887W        W45696   2.379   2.209   6.205 -0.0837 -0.0618  0.1666
29888W        W45697   1.296   1.429   2.170  0.2265 -0.5060  0.0867
29889W        W45698   9.123   9.635  14.807  0.0230 -0.2089 -0.3081
29890W        W45699   7.342   4.805   1.709  0.1686  0.3678 -0.1632
29891W        W45700  13.497   7.862   4.773  0.1022 -0.1775  0.0672
29892W        W45701  12.738   6.902  16.382 -0.0048 -0.0630 -0.0304
29893W        W45702   3.317  16.209  14.775 -0.0411  0.0615 -0.2764
29894W        W45703  11.083   0.107   2.840  0.1066 -0.1345  0.1802
29895W        W45704   3.596   6.998   3.885  0.2095  0.1844  0.0621
29896W        W45705  12.598   0.114  14.871 -0.2825  0.1259 -0.1492
29897W        W45706   7.560   7.875   3.612 -0.0736 -0.3548 -0.5195
29898W        W45707  17.074   4.393  13.353 -0.1314  0.3091  0.0581
29899W        W45708  12.147   1.938   5.022  0.2140  0.1894  0.1697
29900W        W45709  13.586   8.339   0.005  0.1207  0.0875 -0.0327
29901W        W45710   9.242   7.053   3.740 -0.0321  0.3117  0.0885
29902W        W45711   2.321  16.607   5.987 -0.0675  0.1908  0.0318
29903W        W45712  15.496   6.757   4.730  0.1150  0.6516  0.1061
29904W        W45713  13.498   7.346   4.039  0.1741 -0.0485 -0.1436
29905W        W45714  17.426  17.196   5.009 -0.0934 -0.1365 -0.0770
29906W        W45715  17.733   5.768   0.456  0.3999 -0.0415  0.2697
29907W        W45716   9.611   8.298   4.448  0.1971 -0.1797  0.2317
29908W        W45717   9.796  15.553  16.001 -0.1357 -0.4249 -0.0088
29909W        W45718   3.265   9.887   5.561 -0.0644  0.0506 -0.0479
29910W        W45719   7.602  10.217  14.359 -0.2188  0.0900 -0.1294
29911W        W45720   5.359   4.354   2.923 -0.0629  0.1531  0.2584
29912W        W45721  17.158  13.062   2.374 -0.2126 -0.1301  0.0066
29913W        W45722  14.524  17.348   1.820  0.0103 -0.1576  0.2803
29914W        W45723   4.206  15.123   5.082 -0.1288 -0.3949 -0.0920
29915W        W45724   3.528   2.997  15.610 -0.0665 -0.0232  0.0808
29916W        W45725  10.483  14.171  15.035 -0.0760 -0.2882  0.2570
29917W        W45726  16.214  16.248  15.150  0.0553 -0.0211  0.1122
29918W        W45727  16.645  17.618  11.470  0.0827 -0.1915  0.0030
29919W        W45728  11.564  14.236   3.274 -0.0905 -0.0218 -0.0934
29920W        W45729   0.021   5.427  15.447  0.1478 -0.1979 -0.0799
29921W        W45730   5.247   7.150  13.864  0.0105  0.0346  0.1301
29922W        W45731   9.665   1.677   3.267 -0.4556 -0.0597  0.1066
29923W        W45732   5.032  17.174   1.886 -0.1805 -0.2306 -0.0407
29924W        W45733   3.752   6.704   6.091 -0.0285  0.0702 -0.0959
29925W        W45734   7.932  10.364   2.441 -0.0267  0.2019 -0.2002
29926W        W45735  17.034   1.104   1.379  0.2988 -0.3321  0.1414
29927W        W45736   2.225   2.439   2.256 -0.0756 -0.1467 -0.1051
29928W        W45737   7.895  13.225  16.157 -0.0523  0.0479  0.3033
29929W        W45738   3.717   8.655   2.393 -0.1399  0.0028 -0.0017
29930W        W45739   6.019   0.528  12.332 -0.0054  0.0034 -0.0584
29931W        W45740  17.564  17.630  16.616  0.2007  0.1215  0.0985
29932W        W45741   3.955   2.206  11.580 -0.0215 -0.1446  0.2656
29933W        W45742  10.331  10.437   1.354  0.0912  0.0186  0.2344
29934W        W45743   8.138  10.455  16.996  0.1592  0.0343  0.0776
29935W        W45744   4.010   9.840  14.931  0.3966  0.0033 -0.0337
29936W        W45745   5.414  13.469  16.750  0.0945  0.1181  0.1902
29937W        W45746   8.159   3.320   2.118 -0.1133  0.1001  0.4561
29938W        W45747   4.583   9.226   6.158  0.0227 -0.2142 -0.3907
29939W        W45748   6.083   8.326   3.414 -0.0148  0.2809  0.1463
29940W        W45749  11.360   1.366   3.923  0.1140  0.1641  0.1447
29941W        W45750  11.898  15.020   1.378  0.1191 -0.2732 -0.0242
29942W        W45751   4.286   5.031  14.138 -0.0949  0.3169  0.4694
29943W        W45752  15.254  11.433   4.992 -0.2232 -0.1266  0.1417
29944W        W45753  13.581   7.256  16.824  0.0945 -0.2438  0.1641
29945W        W45754   5.611  14.627  16.720 -0.2990 -0.0486 -0.1513
29946W        W45755   2.288  10.532   1.981  0.0219  0.4197  0.1194
29947W        W45756  12.421   2.709   1.754  0.0532  0.0814 -0.0006
29948W        W45757  16.366   6.597   5.450  0.0817 -0.0184 -0.0960
29949W        W45758   0.197   5.974  16.627 -0.1615  0.1386  0.0825
29950W        W45759   1.532  11.982   5.413  0.2764  0.2316 -0.0261
29951W        W45760   4.915  13.354  14.786 -0.3886 -0.1447 -0.0296
29952W        W45761  10.388  17.403  12.986  0.1713 -0.1038  0.0531
29953W        W45762   6.928  17.510  16.798 -0.0033  0.2195  0.0353
29954W        W45763   0.056  17.015   1.303  0.0685 -0.0062 -0.0665
29955W        W45764   7.273   2.804  14.601  0.1252 -0.0020  0.2708
29956W        W45765  11.718  15.459   1.557  0.1046 -0.2592 -0.0457
29957W        W45766   1.108   6.976   1.765 -0.1814  0.0647 -0.0660
29958W        W45767   9.161   5.888  15.601 -0.3529  0.0287 -0.0589
29959W        W45768  15.816   8.690   0.926  0.0834 -0.5782  0.3704
29960W        W45769   5.729   1.431   3.196  0.1206 -0.0833 -0.0448
29961W        W45770   5.645  13.615  15.215 -0.2110  0.2955  0.1403
29962W        W45771  12.486   3.861  13.533  0.0666 -0.0959 -0.2408
29963W        W45772  10.911   8.771   2.759  0.1042  0.1456  0.2914
29964W        W45773   8.434   4.853   5.419 -0.0889 -0.0790  0.0802
29965W        W45774   3.140  13.217   4.081  0.0810 -0.0882  0.1076
29966W        W45775   0.965  14.883   1.185 -0.0744  0.0971  0.1878
29967W        W45776   1.333   0.776  12.444 -0.3221 -0.0156 -0.0798
29968W        W45777   0.898   3.244   2.584  0.0100 -0.3027 -0.0714
29969W        W45778   1.544   3.662  14.065  0.1020  0.2760 -0.4330
29970W        W45779  14.690   9.083  13.713  0.0711  0.3022  0.0982
29971W        W45780  12.721   7.440  16.538 -0.0626 -0.1799  0.1491
29972W        W45781  17.701  16.676  13.893 -0.3653 -0.2642  0.0146
29973W        W45782   0.302  15.558   4.095 -0.2484  0.1496  0.2031
29974W        W45783  17.291  12.653   5.268  0.0807  0.1118 -0.2929
29975W        W45784   5.472  11.275  14.443 -0.2101 -0.2823 -0.0943
29976W        W45785   4.770  14.583  15.053 -0.0550 -0.1569 -0.0182
29977W        W45786  17.541   1.541   2.890 -0.0076  0.0209 -0.0251
29978W        W45787  17.489   7.841  16.291 -0.2683 -0.0701 -0.0621
29979W        W45788   8.523   2.432   5.092 -0.0952 -0.0254  0.2782
29980W        W45789   3.253  16.690  14.861 -0.0825 -0.0350  0.0706
29981W        W45790   1.179  16.230   2.613 -0.1108  0.0976  0.1625
29982W        W45791   8.196   9.698   1.404  0.1114  0.1187 -0.0710
29983W        W45792  11.860   9.638  12.519  0.0858 -0.0612  0.0417
29984W        W45793  17.084   6.502  12.821  0.0248 -0.0557  0.3201
29985W        W45794  13.755  16.282  14.368  0.0444 -0.1640  0.1963
29986W        W45795  13.010  13.797   0.606 -0.1715 -0.3639 -0.0777
29987W        W45796   9.030   0.604  14.139 -0.1321 -0.0334 -0.2906
29988W        W45797  17.554   1.029  12.109  0.3684  0.2617 -0.2030
29989W        W45798  11.638  13.274   1.271 -0.0584  0.3051 -0.0815
29990W        W45799  10.591   6.778   4.830  0.0697 -0.1482 -0.0840
29991W        W45800  14.921  11.951   1.381  0.3641 -0.2331  0.0808
29992W        W45801  15.609  13.178  14.929 -0.0512  0.3227  0.1474
29993W        W45802   7.922   7.778   3.327  0.0845 -0.1866  0.1708
29994W        W45803   4.815   4.066   4.484  0.1861  0.0885 -0.0586
29995W        W45804   7.732   8.199  13.342  0.1420 -0.1837  0.1023
29996W        W45805   0.204  10.461  17.005  0.0574  0.0861 -0.1504
29997W        W45806   9.694  15.978   1.125 -0.2670 -0.0955 -0.3269
29998W        W45807  11.792   2.516   4.239  0.1602 -0.1856 -0.1324
29999W        W45808   7.944  17.335   0.706 -0.1598 -0.0368 -0.1816
30000W        W45809   3.475   4.395  11.748 -0.4020 -0.0116 -0.0288
30001W        W45810   7.094  17.038  14.424  0.2731 -0.2497  0.4587
30002W        W45811   7.686   9.819   1.608  0.0869 -0.0967 -0.0722
30003W        W45812  11.031  13.771   0.166  0.2501 -0.1569  0.0263
30004W        W45813  12.978   9.050   2.106 -0.1531  0.1264 -0.1423
30005W        W45814   9.265  15.730   4.682  0.0457  0.0415 -0.1662
30006W        W45815  16.923   5.036   2.125  0.1704  0.1286 -0.0852
30007W        W45816  12.460  14.562  13.441 -0.0440  0.3038 -0.2574
30008W        W45817  16.300   7.738  13.277  0.1032  0.0008 -0.0777
30009W        W45818  15.932   4.652  15.811 -0.1051 -0.0912  0.0685
30010W        W45819   9.392   4.475  14.543  0.2670 -0.0847 -0.2199
30011W        W45820   6.905   6.332  15.889 -0.1272 -0.0179  0.1117
30012W        W45821   8.346  11.974  11.524 -0.1388  0.2149 -0.5537
30013W        W45822  15.262  12.118  13.779  0.1280  0.1647 -0.0291
30014W        W45823   1.502  10.128  16.985 -0.2423 -0.0270 -0.0288
30015W        W45824   3.873  14.590   1.430  0.4228 -0.0150 -0.0824
30016W        W45825   7.758   7.228  15.264  0.0266  0.0593 -0.0104
30017W        W45826  12.249   6.018  14.541  0.2616 -0.2322  0.2669
30018W        W45827   7.253   9.492  16.828  0.2607 -0.1409  0.1612
30019W        W45828   8.774   1.687   3.605  0.2431 -0.0498 -0.1109
30020W        W45829   3.645  16.499  15.549 -0.3684  0.0446  0.1467
30021W        W45830  12.035  14.138   5.200 -0.5138 -0.0458 -0.1592
30022W        W45831  15.850  13.192  10.783 -0.1101 -0.1344  0.0376
30023W        W45832   3.411   5.655   5.051 -0.2406 -0.2070 -0.1949
30024W        W45833   1.019   7.897   0.006 -0.2634  0.0475 -0.1314
30025W        W45834   8.639   7.860   5.356  0.4008 -0.0870  0.0901
30026W        W45835  17.243   9.142  13.500  0.1726  0.0960 -0.0260
30027W        W45836   7.802  13.552   2.532  0.1390 -0.0874  0.2110
30028W        W45837   3.623   4.679   0.065 -0.3618  0.4483 -0.3805
30029W        W45838  14.919   4.426   5.009 -0.1488 -0.2268  0.2282
30030W        W45839   2.918   2.802  12.625 -0.0427 -0.0508 -0.1654
30031W        W45840  12.931   4.790   3.198  0.0704 -0.1422  0.0138
30032W        W45841  15.126   9.394  14.284  0.1955  0.2831  0.4862
30033W        W45842   0.762   4.348   4.206 -0.1270 -0.1668 -0.1661
30034W        W45843  15.307  11.720   1.046  0.3142 -0.0536  0.0872
30035W        W45844   6.275  16.616   4.713  0.2249  0.2861  0.2367
30036W        W45845   2.866  17.526   6.737 -0.0866 -0.1132 -0.0693
30037W        W45846  15.468   3.972   3.674  0.3944  0.3988  0.1501
30038W        W45847  15.254   8.822  16.286 -0.2648 -0.0386  0.0680
30039W        W45848  15.680  14.829   2.732 -0.2467  0.0430 -0.3244
30040W        W45849  12.556  10.067   3.269  0.2078  0.0570  0.0111
30041W        W45850  16.354   2.233  12.979 -0.0256  0.2448  0.1087
30042W        W45851  12.515   6.366  13.661  0.1947 -0.2613 -0.2317
30043W        W45852   5.409   7.736   5.822 -0.0031  0.1946  0.0697
30044W        W45853   2.855   4.762   2.061 -0.3779  0.0593 -0.2664
30045W        W45854  16.005   2.548  16.199 -0.3029  0.0173  0.1981
30046W        W45855   1.337  15.475  14.670  0.1701 -0.0176 -0.4132
30047W        W45856   5.778   3.689  13.769  0.2289 -0.1669  0.0349
30048W        W45857   5.794   0.890   2.362 -0.2297 -0.0938 -0.0388
30049W        W45858   5.177  16.884   0.087  0.0059 -0.1492  0.2048
30050W        W45859   5.116  13.187  11.654 -0.0435 -0.2376  0.1347
30051W        W45860   5.904  16.288  14.297 -0.2352 -0.2714 -0.0126
30052W        W45861  17.210  17.660   0.056 -0.1223  0.1884 -0.0531
30053W        W45862  16.270   2.239   1.743 -0.0256 -0.0572  0.1064
30054W        W45863   0.595   2.151  14.097 -0.0382 -0.4351 -0.0414
30055W        W45864  11.394   5.008   3.911  0.1218 -0.0643 -0.0600
30056W        W45865   4.499  15.423  14.952  0.1304 -0.0188 -0.1771
30057W        W45866  11.623   7.057  11.884  0.3233 -0.2896  0.1749
30058W        W45867  10.320  10.200  14.088 -0.1283 -0.2636  0.1829
30059W        W45868  14.544   2.669   0.653  0.0913  0.2526 -0.1322
30060W        W45869  11.857  17.336   3.127  0.0502  0.0218  0.0449
30061W        W45870  13.019  17.125  15.665  0.1922 -0.2954 -0.1987
30062W        W45871   2.418  17.201  15.507 -0.2931 -0.2017  0.2893
30063W        W45872   7.828  15.894  16.842 -0.0310  0.1880  0.1114
30064W        W45873   3.290  12.701  12.773 -0.2953  0.0564  0.2884
30065W        W45874  11.571   2.354   0.373 -0.1276  0.1235 -0.1049
30066W        W45875  11.574  13.392   3.018  0.2594  0.2794 -0.2588
30067W        W45876   3.523  11.210  16.526  0.0531 -0.0795 -0.0146
30068W        W45877   8.248  15.359  12.053  0.2196 -0.0304  0.1656
30069W        W45878  15.458   3.371   2.211 -0.3550  0.3059  0.0350
30070W        W45879   2.798   1.887   1.609 -0.0910  0.0371 -0.5219
30071W        W45880   6.130   6.347   3.354  0.0154 -0.1672  0.0429
30072W        W45881  15.024  13.098  13.848  0.1922  0.0710 -0.0832
30073W        W45882   1.299  15.497   3.748  0.2179  0.0949  0.0877
30074W        W45883  15.632  14.685  14.795 -0.1170  0.1484  0.1559
30075W        W45884   5.500   4.783   2.614  0.1872  0.2027 -0.0152
30076W        W45885  13.172   2.574   2.851 -0.1120 -0.0730 -0.1349
30077W        W45886  17.390   3.459   3.151 -0.3192 -0.1994 -0.1600
30078W        W45887   8.710   1.991  14.119  0.2546 -0.0579  0.2138
30079W        W45888  14.481   7.020  14.383  0.1642 -0.0880 -0.0009
30080W        W45889  14.229   1.690   4.523 -0.1987 -0.0240  0.0511
30081W        W45890   2.135  14.772   4.840 -0.0750  0.0773 -0.1964
30082W        W45891   9.818   7.478   3.216 -0.2221 -0.1519  0.1481
30083W        W45892   1.974  15.585   2.677 -0.1681 -0.0742 -0.1536
30084W        W45893   0.049   9.122  15.180 -0.1755  0.2003 -0.2935
30085W        W45894   9.785   4.697  13.739  0.1899 -0.1996 -0.0177
30086W        W45895  12.007   1.089   0.001 -0.0461 -0.0240  0.1489
30087W        W45896   4.787   9.987   1.628  0.0495 -0.2100 -0.2672
30088W        W45897   5.019   1.536   2.653 -0.3226  0.1525 -0.0115
30089W        W45898   3.819   8.033   1.059  0.1617  0.0657 -0.2131
30090W        W45899   4.589   1.119   0.418  0.0674  0.1037  0.1087
30091W        W45900  14.780   1.749   1.386  0.1143 -0.2044 -0.1587
30092W        W45901  15.817  15.062  11.928 -0.2044 -0.0247 -0.0477
30093W        W45902   2.544  12.466  16.812 -0.2928  0.2287 -0.0639
30094W        W45903  15.433   3.848   2.125  0.1384  0.0221  0.0208
30095W        W45904   0.662   5.915   5.911  0.1418  0.1726 -0.0241
30096W        W45905   7.625  14.664  12.277 -0.0491  0.1222  0.1274
30097W        W45906   4.749   6.281  13.918 -0.1009 -0.1720 -0.1745
30098W        W45907   7.476   7.809  12.400 -0.1004 -0.2015  0.3961
30099W        W45908  10.076   7.732  16.207 -0.0351  0.0405 -0.2745
30100W        W45909  10.111   3.434   1.636  0.0679  0.0264 -0.2529
30101W        W45910   3.983   0.645   3.883 -0.3003  0.1935 -0.0260
30102W        W45911   8.582  10.277  13.210 -0.0332 -0.0215  0.0182
30103W        W45912   2.003  10.907  12.805  0.1598  0.4712 -0.0008
30104W        W45913  10.321   0.227  12.335  0.0309 -0.2616  0.1778
30105W        W45914  11.730   4.399  12.299 -0.0770  0.0175 -0.2351
30106W        W45915   7.254   0.363  12.553  0.2868 -0.0363  0.2670
30107W        W45916  12.327   8.622  12.094  0.2262 -0.0179 -0.2073
30108W        W45917   1.550  11.701   4.897 -0.4397 -0.1265  0.1799
30109W        W45918  12.479  17.418  13.194 -0.0291 -0.3100 -0.2705
30110W        W45919  10.805  16.811   5.949  0.2942 -0.0399  0.1962
30111W        W45920  11.070  15.403   0.388 -0.1500 -0.2172 -0.1398
30112W        W45921   3.164  14.375   3.488 -0.3434  0.1369  0.0483
30113W        W45922  13.271   8.351  16.059 -0.2612 -0.0561  0.1213
30114W        W45923  10.943   0.928   4.902  0.1506 -0.2785  0.1870
30115W        W45924  13.035   7.662   5.944  0.4774  0.0377  0.0421
30116W        W45925  16.026  17.312   1.358 -0.1060  0.3017 -0.0898
30117W        W45926  10.644   2.940  11.814 -0.0477 -0.1704 -0.0224
30118W        W45927   6.971   0.474   3.789 -0.0363  0.2720  0.0097
30119W        W45928  10.012  16.289  14.359  0.1072  0.2474  0.1530
30120W        W45929  11.905   2.892   5.059 -0.1148 -0.0271  0.3086
30121W        W45930   9.182  14.217  15.117 -0.0795 -0.1022  0.1148
30122W        W45931  10.596   2.062  12.915 -0.4419  0.2161  0.0221
30123W        W45932   6.402   4.372   1.713  0.2136  0.0992 -0.2325
30124W        W45933   2.665   4.953   1.004 -0.0407 -0.2456 -0.2308
30125W        W45934  12.530   2.293   0.056 -0.1096 -0.1335 -0.0317
30126W        W45935  15.127   6.129   4.863 -0.0575  0.0025 -0.3141
30127W        W45936  11.231   5.782  16.980 -0.0036  0.0238  0.0647
30128W        W45937  15.563  14.624   0.256 -0.0100 -0.0547 -0.3195
30129W        W45938   2.680   5.319  14.069 -0.0695  0.0626  0.0526
30130W        W45939  11.858  17.160   0.068  0.1425 -0.0713 -0.1618
30131W        W45940   9.793   5.681   2.734 -0.0767 -0.0300  0.0211
30132W        W45941  11.219   8.050  15.562 -0.1849  0.2131  0.1786
30133W        W45942  17.641  12.323   2.780 -0.1723  0.0656 -0.0868
30134W        W45943   3.770  10.967  16.956 -0.2319 -0.1077  0.2512
30135W        W45944  16.368   4.751   0.916 -0.1554 -0.0972  0.1522
30136W        W45945  11.147  11.260  11.326  0.2072  0.0292 -0.1983
30137W        W45946  17.306   4.484  14.385  0.0193  0.1773  0.0433
30138W        W45947   8.073  15.515  16.600  0.0050 -0.2108  0.1375
30139W        W45948  10.382   1.678  14.433  0.0686 -0.2420  0.0910
30140W        W45949  15.985  13.395  16.825 -0.2472  0.0856 -0.0250
30141W        W45950   5.230  17.460  14.773 -0.1347  0.0888  0.0682
30142W        W45951   9.127  16.610  15.201  0.1189 -0.0894 -0.2376
30143W        W45952   5.581  16.275  12.572 -0.1365  0.2865 -0.0033
30144W        W45953   2.083  14.011  12.430  0.2062 -0.1862 -0.2795
30145W        W45954   5.600  14.319   0.097 -0.1366 -0.4416  0.0961
30146W        W45955   1.027  13.969  13.842 -0.2148  0.1373 -0.2865
30147W        W45956   6.642   1.545   3.031 -0.1973  0.1306  0.0820
30148W        W45957   9.416  11.436  16.430  0.3507  0.0003 -0.1959
30149W        W45958  14.446  11.100  16.163 -0.1884 -0.1774 -0.0085
30150W        W45959   2.907  14.187   3.892  0.1690  0.1235 -0.0049
30151W        W45960   9.077   0.498   3.273 -0.1201  0.0522  0.1182
30152W        W45961   5.393  16.571   0.467 -0.1849 -0.1028 -0.0628
30153W        W45962   0.170  13.514  15.234  0.0608  0.2507  0.0271
30154W        W45963   7.597   5.781  13.559 -0.0310 -0.0615  0.0515
30155W        W45964   8.455  16.650   5.474  0.1041 -0.0658 -0.4318
30156W        W45965  17.624   2.472  12.873 -0.2654  0.0459 -0.2296
30157W        W45966   6.098   5.150   4.524 -0.2184  0.0660  0.0635
30158W        W45967  17.460  13.307  10.614 -0.0303 -0.0527  0.2310
30159W        W45968   8.516   2.493   4.573 -0.0606  0.0670 -0.0258
30160W        W45969   2.964   8.703   4.298 -0.0627 -0.4493  0.0415
30161W        W45970  15.438  12.850  13.077 -0.0423 -0.1868  0.2175
30162W        W45971  16.895   7.097  16.455 -0.2919 -0.1308  0.1963
30163W        W45972   0.034   0.533  16.884  0.0830  0.0519 -0.2265
30164W        W45973   1.999   7.980   5.590 -0.2116 -0.1057  0.0366
30165W        W45974   7.518  10.642  12.153 -0.0662 -0.2128  0.0770
30166W        W45975   4.805  10.693  13.363  0.4086  0.1313 -0.1949
30167W        W45976   3.346  10.677   5.025 -0.1903 -0.1532  0.1808
30168W        W45977  10.821   6.979   2.526  0.0759  0.0576  0.1322
30169W        W45978  14.941   0.152   4.103 -0.1296 -0.2616 -0.0559
30170W        W45979   3.792   9.408  13.370  0.1081  0.0023  0.2632
30171W        W45980  13.673   2.129  13.173 -0.2697  0.1581  0.2102
30172W        W45981  12.314  13.905  11.846 -0.0722 -0.1333 -0.0353
30173W        W45982   0.160   5.086   3.432  0.0661  0.2972 -0.3311
30174W        W45983  12.304   1.919  14.787  0.1854  0.4722  0.3014
30175W        W45984   7.559  15.653  14.690 -0.2522 -0.3129 -0.1087
30176W        W45985   6.633  15.021  14.489 -0.1930  0.0183  0.0893
30177W        W45986  14.413  15.718  13.138 -0.0406 -0.2968  0.1789
30178W        W45987  12.895   2.511   1.538 -0.0398  0.0694 -0.5159
30179W        W45988   8.055   2.495  13.863  0.2606  0.1930 -0.1258
30180W        W45989  15.369  14.449  12.650  0.2009  0.0862  0.1343
30181W        W45990   5.576   8.872  16.217  0.3651  0.1437 -0.0917
30182W        W45991   1.951  10.184   1.818  0.2947  0.4448 -0.1491
30183W        W45992  14.734  10.130  12.484 -0.0745 -0.2875 -0.1640
30184W        W45993  11.257   0.464   5.622  0.1424 -0.0741 -0.0151
30185W        W45994  16.792   8.056   5.121 -0.0828 -0.1465 -0.0196
30186W        W45995  16.129   9.770  12.878 -0.1198  0.3634  0.0926
30187W        W45996  10.122   7.426   2.834  0.1473  0.0061  0.3603
30188W        W45997  17.368   5.569   4.842  0.1795  0.0365  0.4573
30189W        W45998  14.167   1.553   0.751  0.2992  0.2202  0.0111
30190W        W45999   5.703  13.522   0.454  0.5170 -0.3060  0.2460
30191W        W46000   5.638  13.484   2.026 -0.0198  0.4023  0.3536
30192W        W46001   9.595   9.561  16.816  0.0975  0.1450 -0.1557
30193W        W46002   2.166   3.339   0.635 -0.0324  0.0983  0.2236
30194W        W46003  15.401   0.412   1.353  0.3096  0.3440 -0.1207
30195W        W46004  13.606   7.927   0.386 -0.1400  0.0365 -0.1283
30196W        W46005  10.108   4.233  13.294  0.2583 -0.0863  0.0281
30197W        W46006  16.499   8.795  15.123 -0.1189  0.1652  0.0884
30198W        W46007   3.362  15.684   3.794  0.2228  0.3457  0.1323
30199W        W46008   7.907   3.139  11.459 -0.1368  0.0699  0.0685
30200W        W46009  11.193   6.198   3.628 -0.0033 -0.0984 -0.1698
30201W        W46010  16.764  12.517   2.351  0.0895  0.1065 -0.0311
30202W        W46011  13.479  13.329  15.442 -0.0995 -0.0605 -0.0355
30203W        W46012  16.833   5.736  12.795 -0.1929 -0.2311 -0.0695
30204W        W46013   9.317  12.141  10.928  0.0620 -0.0163  0.1860
30205W        W46014   7.292   1.533   0.086  0.0094 -0.0713 -0.0635
30206W        W46015   4.014  16.416   4.514  0.1981 -0.3765 -0.1078
30207W        W46016  16.016   3.877  15.175  0.0938 -0.1168  0.1792
30208W        W46017  13.879   3.816  16.184  0.1373  0.1635  0.0965
30209W        W46018   3.256  14.370  16.541 -0.4005  0.1460 -0.1871
30210W        W46019  11.787   5.682  13.043 -0.1099 -0.0005 -0.1226
30211W        W46020  13.858   9.787  16.030 -0.3516  0.3073 -0.0434
30212W        W46021   4.579   0.648  11.793 -0.0521 -0.3644  0.1643
30213W        W46022  12.375   6.686   1.924  0.0079  0.2035 -0.1827
30214W        W46023   5.017   3.127   2.005 -0.1457  0.0396 -0.0366
30215W        W46024  14.877  14.217  14.938  0.1167 -0.2249  0.0239
30216W        W46025  12.614  11.739  14.079 -0.0666  0.2101 -0.0704
30217W        W46026  15.336   3.792   4.120  0.1217 -0.3510  0.1241
30218W        W46027  11.904  13.714  16.794 -0.0997 -0.0445  0.2352
30219W        W46028  10.867  11.314   1.835 -0.0160 -0.0581 -0.1212
30220W        W46029  12.391  10.085   2.725  0.1307 -0.1645 -0.0499
30221W        W46030  10.064   5.589   0.303  0.3942 -0.2371 -0.3206
30222W        W46031  11.458   0.098   5.220  0.2250 -0.0483 -0.4080
30223W        W46032   1.110  10.789  11.657  0.3922 -0.0439  0.0907
30224W        W46033  13.449  14.351   3.363  0.3335  0.2130  0.0671
30225W        W46034   3.648  15.479   6.071 -0.3405 -0.2643  0.4420
30226W        W46035  13.218   3.853  13.906 -0.0635 -0.0148  0.1803
30227W        W46036   0.993  12.706   2.104  0.2425 -0.3005  0.0969
30228W        W46037  17.361   9.339   2.333 -0.2375  0.1444 -0.2112
30229W        W46038  11.550   1.653   6.331  0.0102  0.1859  0.0235
30230W        W46039  12.317  10.125   3.762 -0.0251  0.0093 -0.0439
30231W        W46040  12.488   5.579   2.525 -0.0968  0.0181 -0.0977
30232W        W46041   7.803  15.658  10.859  0.2341 -0.1261 -0.1600
30233W        W46042   8.346   8.280  13.553 -0.2955 -0.3431  0.0371
30234W        W46043  12.516   7.052   4.699  0.1631  0.0173 -0.4391
30235W        W46044  11.559   3.368   6.160 -0.3317 -0.0840  0.0277
30236W        W46045   8.120   2.894   3.892  0.3618 -0.2253  0.0390
30237W        W46046   0.328   9.513   0.067  0.0314  0.2138 -0.1888
30238W        W46047   5.475   4.528   3.993  0.1665  0.0849  0.0979
30239W        W46048  11.331  14.096   2.287  0.2365 -0.1416  0.0136
30240W        W46049   6.954  17.699  13.474 -0.1718  0.1826  0.0058
30241W        W46050  16.044  14.442  14.642 -0.0525 -0.1522 -0.1182
30242W        W46051   4.809   9.317   2.133 -0.1833 -0.1953  0.0613
30243W        W46052   1.489  12.713  14.657  0.1003  0.0180 -0.0948
30244W        W46053  16.665   1.330  14.489 -0.0043  0.3216  0.0405
30245W        W46054   5.014  12.576  12.336 -0.1351 -0.0861 -0.3785
30246W        W46055   7.546  17.472   2.609 -0.1069  0.1514 -0.2511
30247W        W46056  12.405   6.682  12.301  0.0342 -0.2007  0.1454
30248W        W46057  15.189  11.594   2.466  0.0032 -0.1536  0.0688
30249W        W46058  12.356  14.848  15.042 -0.4011 -0.2828 -0.0966
30250W        W46059  17.084   5.471   1.906  0.0716  0.3418  0.2839
30251W        W46060   6.517   8.336  12.614  0.2254  0.0378 -0.1812
30252W        W46061   5.963  10.288  12.197  0.1163  0.2065  0.0017
30253W        W46062  12.558   7.822   3.690 -0.0356 -0.1882  0.3529
30254W        W46063   4.418   2.149  16.619 -0.1280  0.1017 -0.3788
30255W        W46064   8.040   3.702   4.094 -0.1989  0.2154 -0.0740
30256W        W46065   6.911   4.867   6.350 -0.1074  0.0380 -0.0912
30257W        W46066   5.399  12.857   2.977  0.0634 -0.0742  0.1772
30258W        W46067  14.611   5.540  16.659  0.0202  0.0893 -0.1123
30259W        W46068  10.887  10.513  16.009 -0.1951  0.0932 -0.0410
30260W        W46069   7.299   2.874  16.722  0.2771 -0.0264 -0.1501
30261W        W46070   2.276  10.559  16.967 -0.1764 -0.0883  0.0706
30262W        W46071   3.892   2.333  14.323 -0.0425  0.2951 -0.2645
30263W        W46072   9.034  16.946   3.896  0.1524 -0.0106  0.1301
30264W        W46073  17.119   4.604  15.206  0.1252 -0.1215  0.3033
30265W        W46074  14.461   5.214  15.889 -0.1639  0.1050  0.0198
30266W        W46075   9.893  14.739   0.724  0.3644  0.0164  0.0188
30267W        W46076  15.843  15.367  15.527  0.2030  0.2937  0.2101
30268W        W46077  10.940   2.350   3.047  0.2548 -0.0811  0.0302
30269W        W46078   1.878  13.044  15.742  0.0647 -0.4162 -0.0768
30270W        W46079  12.070   0.686  15.423  0.0831 -0.3334 -0.1257
30271W        W46080   2.941   1.225  11.963 -0.2833  0.0470  0.0792
30272W        W46081   8.105   5.831   5.643 -0.1105 -0.2447 -0.4706
30273W        W46082  15.106  15.768   0.296  0.0748 -0.0454  0.0278
30274W        W46083  10.517   5.131   0.165  0.5381 -0.3454 -0.0923
30275W        W46084   2.526  14.683  14.740 -0.2042 -0.1297  0.4425
30276W        W46085  10.490   1.154  12.837 -0.0453 -0.1868  0.1098
30277W        W46086  16.621  12.340  15.827 -0.3360 -0.1790 -0.1712
30278W        W46087   7.151   1.257   0.937  0.0461 -0.0541  0.1553
30279W        W46088  13.570   5.254   4.797 -0.3789  0.0104 -0.0971
30280W        W46089  15.894   9.571  16.104  0.1130  0.2791  0.0419
30281W        W46090  10.426  16.384  12.359  0.1179  0.1221  0.0448
30282W        W46091   3.936  10.300  13.235 -0.2872 -0.0790  0.4672
30283W        W46092   9.943  12.604  12.378  0.0565 -0.0786  0.0936
30284W        W46093   2.806   6.934  15.371  0.1189  0.2978 -0.2776
30285W        W46094  11.499   5.700  16.515  0.3063 -0.3321  0.0323
30286W        W46095   2.215   7.202   1.880 -0.0505  0.2241  0.0328
30287W        W46096  16.278   8.387  16.495  0.0470 -0.4541 -0.0587
30288W        W46097  12.004   7.984  15.203 -0.2095 -0.1857  0.0527
30289W        W46098   5.025   0.149   2.564  0.5170 -0.2005 -0.0635
30290W        W46099  14.794   7.007   0.017 -0.2267 -0.0443  0.1050
30291W        W46100   6.483   5.533  16.631  0.0319 -0.1081  0.1352
30292W        W46101   8.824   4.897   4.049  0.0201 -0.0482  0.1489
30293W        W46102   9.051   7.767   2.143 -0.1037  0.1011 -0.0394
30294W        W46103   2.170  11.529  15.125 -0.2723 -0.0542 -0.3061
30295W        W46104   0.288  15.590  13.538 -0.0283 -0.1154 -0.0550
30296W        W46105   0.634   3.628   3.044 -0.0742 -0.0656  0.2468
30297W        W46106   7.701   1.238  16.950  0.2200  0.0519  0.2448
30298W        W46107   7.827   2.073   1.805 -0.2310 -0.0890 -0.0790
30299W        W46108  11.325   0.549  12.511 -0.0291 -0.0630  0.0643
30300W        W46109  15.490  16.393   4.279 -0.0181 -0.1105  0.0763
30301W        W46110  10.527  13.268   4.782  0.1944 -0.0022  0.0624
30302W        W46111  12.524  12.174   4.490 -0.0468 -0.0619 -0.0287
30303W        W46112   9.186   5.448  16.959 -0.0663  0.1419 -0.0050
30304W        W46113  10.097   4.781   4.651  0.0031  0.2991  0.2503
30305W        W46114   5.158   7.876  13.411 -0.0037  0.1134 -0.2098
30306W        W46115   1.388   4.329  15.677  0.0548  0.3162 -0.1149
30307W        W46116  17.148  13.444   4.239 -0.0571  0.2162 -0.0550
30308W        W46117  17.601  14.134   4.786  0.2963  0.2361 -0.1384
30309W        W46118   8.444   1.716   2.310  0.0493  0.0578 -0.0146
30310W        W46119  10.868   1.842   0.473 -0.0365 -0.0052 -0.0297
30311W        W46120  15.264   6.957  13.314  0.0241 -0.3339  0.2186
30312W        W46121  13.910   9.255  15.157 -0.0609 -0.1472  0.0490
30313W        W46122   5.910   1.423   4.182 -0.1672 -0.0600 -0.2246
30314W        W46123   7.651   4.503  13.866  0.0919  0.0380 -0.0909
30315W        W46124   6.031   5.399  16.814 -0.3100  0.0537 -0.0374
30316W        W46125   4.971   5.983  13.581 -0.1676  0.0295  0.0515
30317W        W46126  12.653  10.290   2.054  0.1306  0.0312 -0.1890
30318W        W46127   1.330   2.249  15.989  0.0482 -0.1479  0.0713
30319W        W46128   4.238  13.287  13.108  0.0615 -0.1309 -0.0482
30320W        W46129   8.450   6.987  16.502  0.1338  0.1478 -0.2743
30321W        W46130   3.917   5.338   5.822 -0.0114  0.3972 -0.1273
30322W        W46131  14.053  13.089   1.398 -0.0564 -0.1357  0.3064
30323W        W46132   6.251   3.341   1.699  0.1087 -0.3203 -0.2178
30324W        W46133  12.140  10.316  16.707 -0.0794 -0.3923 -0.1524
30325W        W46134  10.144   2.977  15.052 -0.1297  0.1067  0.1899
30326W        W46135   3.579   3.798  16.463  0.3513 -0.1731  0.3123
30327W        W46136   9.520   0.638  14.096 -0.0659 -0.0180 -0.1074
30328W        W46137  15.977   0.163  16.646  0.0412 -0.1991  0.0399
30329W        W46138  15.365   0.211   2.150 -0.1371  0.0275  0.0538
30330W        W46139  10.742   9.303  16.110 -0.0333 -0.0635  0.3861
30331W        W46140   3.107  12.630   3.295  0.0957  0.4538  0.1138
30332W        W46141   7.345   2.460  15.474  0.1914  0.0922  0.0973
30333W        W46142   0.878   6.310  12.656 -0.0451 -0.0288  0.0900
30334W        W46143   2.564   0.769   1.190 -0.0278  0.0665  0.1256
30335W        W46144   3.710   3.326  16.717 -0.3085  0.1488 -0.3131
30336W        W46145   1.118  15.594  10.982  0.1546 -0.0628  0.1019
30337W        W46146  12.585  16.500   4.053 -0.1276  0.1050 -0.2369
30338W        W46147  16.209  14.288   5.547 -0.0197 -0.3806  0.2926
30339W        W46148  12.442  16.013  14.162  0.0272  0.0761 -0.0166
30340W        W46149   1.959   9.779   2.811 -0.1480  0.2706 -0.1030
30341W        W46150  17.251  12.428   3.447 -0.2500 -0.2285 -0.1104
30342W        W46151  11.085   3.463  15.636  0.2433  0.0765  0.1034
30343W        W46152   4.000   9.588  16.962  0.0067 -0.0739  0.2782
30344W        W46153   5.465   4.164  13.445  0.1319 -0.0342  0.0727
30345W        W46154   1.304   3.880   6.118  0.2792  0.4569  0.2832
30346W        W46155   9.978   5.722   1.397 -0.1814 -0.2219  0.2572
30347W        W46156   5.725  13.616  14.379  0.1168  0.0324  0.0033
30348W        W46157   3.588   8.931   3.136 -0.0893  0.2537 -0.1387
30349W        W46158  11.057   2.153  16.219 -0.1455 -0.1674  0.0203
30350W        W46159   0.229  14.849   0.354  0.0349 -0.1516 -0.0777
30351W        W46160  13.450  13.025  14.014 -0.1034 -0.1177  0.1520
30352W        W46161   8.238   8.117  12.467  0.0664 -0.0171 -0.3935
30353W        W46162  14.684  16.992   4.529  0.1633  0.1759  0.1107
30354W        W46163   8.006  16.333   4.759 -0.1291  0.2216  0.2394
30355W        W46164  10.683  10.416   3.329  0.1430 -0.1924  0.0255
30356W        W46165   8.598   3.423  11.959 -0.0617 -0.3931  0.0879
30357W        W46166  13.309   9.590   3.913 -0.0267 -0.0862 -0.1906
30358W        W46167   9.621   5.416   3.089  0.0384 -0.1345 -0.1453
30359W        W46168  14.747   8.097   4.238 -0.3120 -0.0103 -0.2302
30360W        W46169  17.176  13.452   3.159 -0.0031  0.1476 -0.2017
30361W        W46170   7.625   8.557   5.485  0.2640  0.0828  0.0052
30362W        W46171   7.639   9.059   5.852 -0.1108  0.0860 -0.1582
30363W        W46172  11.533  16.857  14.730 -0.1731 -0.1023 -0.1995
30364W        W46173   5.346  11.241  14.910 -0.3624  0.1955  0.0067
30365W        W46174   9.604  17.720  15.824  0.1861  0.0743  0.0685
30366W        W46175  17.069   5.290   0.785 -0.0157  0.2335 -0.1950
30367W        W46176   6.963  10.925   5.285 -0.2168  0.1218 -0.0595
30368W        W46177   8.576  16.032   1.987 -0.0431 -0.2218 -0.0512
30369W        W46178   6.298   9.040  16.821  0.1002  0.2906  0.1952
30370W        W46179  11.626  14.202  15.810  0.2067 -0.3435 -0.0214
30371W        W46180   8.959  11.577  15.557  0.2702 -0.2647 -0.0794
30372W        W46181   1.826   3.123  15.517  0.2593  0.3036  0.2742
30373W        W46182  11.958  13.086   3.033 -0.0203  0.0112 -0.0526
30374W        W46183  10.793   5.103   2.990  0.1254  0.2634  0.3117
30375W        W46184  15.097   2.513   4.932  0.0886 -0.1680 -0.1891
30376W        W46185   1.462  13.719  16.924 -0.0167  0.0762  0.0351
30377W        W46186  10.203  11.632  12.190  0.2330 -0.0987 -0.0531
30378W        W46187   0.662  11.893   1.214 -0.0650 -0.0457 -0.1719
30379W        W46188   3.501   8.717   5.912  0.1054  0.4981 -0.0166
30380W        W46189  16.768   2.504   0.158  0.1401  0.0207 -0.2422
30381W        W46190  15.933   8.813  12.205  0.1155  0.2444  0.2032
30382W        W46191   0.076   5.245   2.402  0.0584  0.0342 -0.2727
30383W        W46192   8.888   5.387  12.037 -0.2165  0.0521 -0.0931
30384W        W46193  10.423   3.857   0.274  0.0088  0.0138  0.1010
30385W        W46194  13.740  11.893   4.992  0.2368  0.1832 -0.1676
30386W        W46195  14.531  15.007  15.281  0.0789  0.0373 -0.0716
30387W        W46196   6.725  16.268   3.261  0.0726 -0.0404 -0.0053
30388W        W46197   2.631  11.280   5.071  0.1259  0.2754 -0.1273
30389W        W46198   9.355   2.112  16.057  0.0572 -0.0744  0.0578
30390W        W46199   4.055  16.534   1.837 -0.1159  0.1109 -0.0974
30391W        W46200   7.016   9.173   0.167  0.0188  0.1165 -0.0122
30392W        W46201  12.993   4.286  12.741  0.2510 -0.0741 -0.0354
30393W        W46202  16.444  11.938  15.062  0.3439 -0.0775  0.0387
30394W        W46203   1.953  15.166   4.570  0.0839 -0.1554  0.0652
30395W        W46204   0.344   3.372  13.907 -0.0908 -0.2626  0.0499
30396W        W46205   7.623  10.448  16.784  0.1270 -0.2694  0.0998
30397W        W46206  17.541  15.394   5.555 -0.0023 -0.4804  0.0209
30398W        W46207   9.875  12.578  15.590  0.0331  0.1507  0.2434
30399W        W46208   5.743  16.416   0.790 -0.1162 -0.2110  0.0500
30400W        W46209  17.337  13.467   5.274  0.1634  0.1874 -0.1145
30401W        W46210  13.962  17.678   1.951 -0.2440  0.1358 -0.2656
30402W        W46211   3.504   0.218   5.235  0.1438  0.1014  0.2871
30403W        W46212   8.547   7.489   0.307  0.1759  0.2615  0.0410
30404W        W46213   1.455   6.428  15.701  0.2876 -0.0260 -0.3676
30405W        W46214   7.788   7.386   3.620  0.0324  0.0446  0.1316
30406W        W46215   0.438   3.936  15.842 -0.0221 -0.0748 -0.1029
30407W        W46216   5.620   7.878   2.857  0.0286 -0.1272  0.2772
30408W        W46217  16.067  15.958   5.414 -0.0608 -0.0695 -0.1318
30409W        W46218  12.552   2.792  15.449 -0.1412 -0.0902  0.0518
30410W        W46219  17.555   0.110  15.873 -0.2491 -0.1205  0.0815
30411W        W46220  15.087   7.438  16.013  0.0994 -0.2045  0.2825
30412W        W46221   0.646  13.033  13.530  0.1236 -0.0294 -0.2456
30413W        W46222  17.394   9.931  12.396 -0.0728 -0.3391  0.0257
30414W        W46223  13.176  16.654   1.623 -0.0518 -0.1745  0.0387
30415W        W46224  14.203  16.211  13.953 -0.0902 -0.0555  0.1319
30416W        W46225   9.941  13.009   0.998 -0.1139 -0.1187 -0.0700
30417W        W46226  12.567  11.927  12.568 -0.1991 -0.0304  0.0031
30418W        W46227  11.891  17.122   4.978 -0.1732  0.2684  0.0173
30419W        W46228   4.207   2.527   1.091  0.0811  0.0954  0.1363
30420W        W46229   1.923   0.978   0.144 -0.2928 -0.0611 -0.0108
30421W        W46230   8.542   2.370   5.597 -0.2734 -0.1900  0.0227
30422W        W46231  14.976   5.820  16.913 -0.0958  0.0136 -0.2214
30423W        W46232   7.323   3.863   5.862 -0.1134 -0.0001  0.0446
30424W        W46233   0.862   7.550  12.701  0.0703  0.1672  0.0098
30425W        W46234   0.587  13.203  16.976 -0.0384  0.0387  0.0578
30426W        W46235   1.484   9.918  15.857 -0.0853  0.1961  0.1423
30427W        W46236  13.027   4.484   0.448 -0.0354  0.0712 -0.2373
30428W        W46237   7.329   5.155  15.437  0.0932  0.1054 -0.0752
30429W        W46238   8.213   2.976   1.703  0.2948  0.0263  0.1375
30430W        W46239   3.577  11.532  15.314 -0.2275  0.3309 -0.4108
30431W        W46240   6.870  16.573   5.275 -0.1453  0.1058  0.0356
30432W        W46241   3.940   7.940   0.515  0.0458  0.1226  0.0544
30433W        W46242   2.239   4.112  16.942 -0.1362 -0.0502  0.0115
30434W        W46243  12.327  12.898  13.437  0.0229  0.0383 -0.1186
30435W        W46244   5.626  11.098   5.202 -0.0102 -0.1733 -0.0205
30436W        W46245  15.047   1.688   3.921  0.1007 -0.2073  0.0799
30437W        W46246  14.603   1.782  15.886 -0.1479 -0.0034 -0.0644
30438W        W46247   2.037   2.071   1.763  0.1863  0.1400 -0.0575
30439W        W46248  11.392  17.531   4.350 -0.3105 -0.1870  0.0481
30440W        W46249   0.166  14.917  14.257 -0.4324 -0.0555  0.0296
30441W        W46250  14.682   3.868   1.762 -0.1527 -0.2356 -0.0899
30442W        W46251   7.176  16.254  13.725  0.1563 -0.0530  0.0851
30443W        W46252   7.774  14.696   3.092 -0.2176 -0.0406  0.1131
30444W        W46253   1.521  15.268  16.137  0.1641 -0.0591  0.0475
30445W        W46254  12.828   6.006  15.239  0.1257 -0.0231 -0.0293
30446W        W46255  14.205   5.436  14.678 -0.0637  0.1710 -0.2115
30447W        W46256  14.876  12.260   4.565 -0.3137  0.0576  0.0059
30448W        W46257   1.282  13.692  14.186 -0.2408  0.0744  0.1889
30449W        W46258  16.655   9.887   1.079 -0.3910 -0.1242 -0.1554
30450W        W46259   9.997   2.157   3.778 -0.1144  0.3316 -0.0645
30451W        W46260  16.718   8.352   3.932  0.0226 -0.0773  0.0476
30452W        W46261   4.508   7.682   6.071 -0.1130  0.0649  0.3916
30453W        W46262   8.235   2.035   2.754 -0.1312  0.2099 -0.3285
30454W        W46263   0.177  10.296   3.321 -0.0341  0.1041 -0.2157
30455W        W46264   2.381  15.883   1.579 -0.1402 -0.1345  0.0046
30456W        W46265   9.927  13.413  10.897  0.0436  0.2407 -0.0286
30457W        W46266   9.779  10.435  16.747 -0.0985 -0.1086  0.1348
30458W        W46267  17.079   4.247   2.769  0.0312 -0.0334 -0.2120
30459W        W46268   6.359   8.354   4.432 -0.0048  0.2392 -0.0093
30460W        W46269   3.005  12.551   1.101 -0.1004 -0.0030  0.2328
30461W        W46270  16.673   2.658  13.726  0.0777 -0.0108  0.0441
30462W        W46271   1.878  17.307   5.039 -0.1335 -0.2195  0.2090
30463W        W46272   5.646  13.184   3.802  0.3855 -0.2017  0.1936
30464W        W46273  16.547  16.152  13.412 -0.2513  0.2719  0.1563
30465W        W46274   8.697  15.130  12.731 -0.2172  0.1271  0.1294
30466W        W46275   4.495  11.354   3.520 -0.0026 -0.2513  0.1148
30467W        W46276   3.209  14.968  13.447 -0.1462 -0.0713 -0.1213
30468W        W46277  14.544   0.608   0.777  0.0717 -0.3421 -0.0861
30469W        W46278   8.944  14.182  15.589  0.0362 -0.3122 -0.0343
30470W        W46279  10.665   2.216   6.150 -0.0787 -0.0318 -0.0241
30471W        W46280   6.675   6.639   0.340 -0.2421 -0.1020  0.0921
30472W        W46281  11.356   9.622  16.779 -0.2243  0.2246 -0.1149
30473W        W46282  15.384   1.318  16.705 -0.2842  0.1023  0.0621
30474W        W46283   9.815   2.798   2.481 -0.2856 -0.3818  0.2464
30475W        W46284   1.104  17.044   0.619 -0.3652  0.0210 -0.0541
30476W        W46285   0.771  14.072   1.040  0.1929  0.0284 -0.2883
30477W        W46286  15.129  15.510   1.406  0.1330  0.3782  0.0945
30478W        W46287   6.452  17.005   3.310  0.1225 -0.0660  0.1989
30479W        W46288   4.278   5.253   5.475 -0.1007 -0.1777  0.1801
30480W        W46289   6.406   8.373  15.066 -0.2042 -0.3198 -0.2771
30481W        W46290   6.680   1.155  12.791  0.0474  0.2156 -0.0477
30482W        W46291   6.922   1.418  16.375  0.0288 -0.2451  0.1288
30483W        W46292   2.257  17.582   4.202  0.0014 -0.1157  0.2928
30484W        W46293  12.987   5.568   2.524  0.0519 -0.0171  0.3183
30485W        W46294  12.176   1.336   2.966  0.1501 -0.0832  0.0571
30486W        W46295  14.089  13.276   4.346 -0.1093 -0.0030  0.1297
30487W        W46296   1.093   7.061   3.303  0.0048  0.2525 -0.1142
30488W        W46297   5.644   3.340   4.425 -0.1178  0.2084  0.1546
30489W        W46298   1.543  10.164   0.522 -0.0814 -0.1876 -0.2553
30490W        W46299  14.131  11.002  15.115 -0.0126 -0.1104  0.1938
30491W        W46300  11.512  10.742   3.453  0.1590 -0.0745  0.0452
30492W        W46301  10.886  12.202  15.726  0.1065 -0.1464  0.2425
30493W        W46302   5.097   6.229  12.719 -0.2308 -0.2227 -0.1528
30494W        W46303  14.396  16.686   3.672  0.0906 -0.2502  0.1599
30495W        W46304  10.299   7.105  11.154  0.0375 -0.0716 -0.1428
30496W        W46305   5.546   6.173  15.333  0.0096 -0.1326 -0.2516
30497W        W46306  13.674   5.384  13.017 -0.2406 -0.2078 -0.2836
30498W        W46307  12.929   5.329  16.949  0.0336 -0.2002 -0.0817
30499W        W46308  10.149   7.213  15.637  0.2498  0.3170  0.0061
30500W        W46309  13.284   9.944  15.180  0.2374 -0.1175  0.1515
30501W        W46310   8.858  17.074   4.833  0.3123 -0.1824 -0.1266
30502W        W46311   6.863  10.187   2.447  0.2193  0.1432  0.1546
30503W        W46312   6.830  13.189   5.045 -0.2894  0.1150 -0.1081
30504W        W46313  16.781   1.950   5.587  0.2186 -0.0231  0.0868
30505W        W46314  16.771  14.148   0.134  0.2243 -0.1044 -0.0117
30506W        W46315   5.510   7.707   0.005  0.0015 -0.4718  0.2460
30507W        W46316   8.397  16.417   2.367 -0.2238 -0.2724 -0.0173
30508W        W46317  13.886   0.401   2.756  0.0240 -0.0598 -0.1953
30509W        W46318  17.406   8.731   2.313 -0.2310 -0.1129  0.1326
30510W        W46319   3.353   3.197   0.820  0.2898 -0.2586  0.0823
30511W        W46320  10.149   2.054  12.558  0.1725 -0.1650 -0.0983
30512W        W46321   6.140  15.846   1.445 -0.0042 -0.0024 -0.0332
30513W        W46322  11.773   8.977  15.491  0.1105 -0.1053  0.0867
30514W        W46323  14.589   9.572  13.728 -0.1426 -0.0088 -0.3000
30515W        W46324   0.550   4.421   4.620  0.3028  0.1938 -0.2740
30516W        W46325   9.379  13.264  12.169 -0.0412 -0.1356 -0.1194
30517W        W46326  12.323   8.702   0.613 -0.0628 -0.0086 -0.2725
30518W        W46327   3.396  17.384  14.606  0.0110  0.2465 -0.0409
30519W        W46328   0.691  12.211  13.418  0.2096  0.2138 -0.3603
30520W        W46329  10.011   0.169   3.149  0.1859  0.1355 -0.1052
30521W        W46330   4.797   4.057  15.142  0.3493  0.0062 -0.0548
30522W        W46331  13.094   0.025  16.405 -0.0164 -0.0645 -0.1858
30523W        W46332  10.598  13.521  13.245 -0.0506  0.0981  0.2128
30524W        W46333   2.269   3.629  16.787 -0.2955  0.2445  0.1157
30525W        W46334   4.311   6.644   3.595  0.0198 -0.0941  0.1028
30526W        W46335   6.786  10.606   3.772  0.0399  0.0587  0.1489
30527W        W46336   6.641   7.083   2.996 -0.2118 -0.2327 -0.1013
30528W        W46337   6.343  11.696  14.279 -0.1893 -0.1508 -0.1379
30529W        W46338   3.226  16.253  13.349 -0.1165  0.0549 -0.2216
30530W        W46339   2.783  12.194  13.775  0.0629 -0.0112  0.0819
30531W        W46340   5.319   8.456  16.149 -0.1152  0.1479 -0.0765
30532W        W46341  15.094   8.364  15.000 -0.1360  0.2130 -0.2696
30533W        W46342   0.057   6.661   5.875 -0.0494 -0.3596 -0.0674
30534W        W46343   5.129  12.320   0.307 -0.0673  0.0746  0.3103
30535W        W46344   4.241  11.452  13.545 -0.1327  0.0953  0.3419
30536W        W46345   9.334  10.991   3.941 -0.1997  0.2346  0.0845
30537W        W46346  10.536  10.250   2.729 -0.0442 -0.1284  0.1474
30538W        W46347  16.711   3.346   4.116  0.4008  0.1732  0.3361
30539W        W46348  17.149  11.868   3.531 -0.1836  0.0706 -0.1353
30540W        W46349   3.396  13.222  12.180 -0.0480  0.0232  0.0994
30541W        W46350   3.113  11.933  14.116 -0.1480 -0.1911  0.1317
30542W        W46351   5.080  12.523  16.034 -0.1899 -0.1841  0.3340
30543W        W46352  15.557   9.593  12.666 -0.1160  0.0829 -0.2413
30544W        W46353   0.263   8.076   2.201  0.0485  0.2997 -0.0442
30545W        W46354   0.002  11.472   4.244  0.1245  0.3455 -0.2012
30546W        W46355   5.257  12.188  11.883  0.2385  0.1743  0.0593
30547W        W46356  12.400  16.883  13.161 -0.1929  0.1674  0.0408
30548W        W46357   1.782   4.717  15.433 -0.1677 -0.0812  0.2299
30549W        W46358  17.530  11.367   2.498 -0.0214 -0.3255  0.0911
30550W        W46359  14.025   3.869  16.999  0.1827 -0.0697  0.0063
30551W        W46360  17.319  16.929  11.137 -0.0564  0.0046  0.0975
30552W        W46361  15.293   2.989   0.168  0.2944  0.2050  0.1389
30553W        W46362  11.714   9.268   2.360  0.2826  0.2165 -0.0224
30554W        W46363   3.043  13.018   4.532 -0.1274 -0.0939 -0.0999
30555W        W46364   6.891   7.414   5.101  0.0534 -0.0804 -0.1630
30556W        W46365  16.622  16.793   3.464  0.0765 -0.1557 -0.1471
30557W        W46366  15.890  10.790  16.559  0.1242 -0.0589 -0.3552
30558W        W46367   7.361  17.413   3.537 -0.0974  0.0178 -0.0649
30559W        W46368   8.602  12.374  11.060 -0.0243 -0.2017 -0.0452
30560W        W46369   2.563   8.612   4.607  0.0970 -0.0093  0.1236
30561W        W46370   6.265  14.701  16.480 -0.4186  0.3138  0.0118
30562W        W46371  13.911  14.937  14.089  0.0221 -0.0142  0.0855
30563W        W46372   6.992   1.774  16.744  0.3548  0.1737  0.1717
30564W        W46373  17.312   6.743  13.597  0.0940 -0.0226 -0.2314
30565W        W46374  14.478  10.239   5.311 -0.1212 -0.0675  0.0205
30566W        W46375  12.807  15.626   1.374  0.1038 -0.2862 -0.1309
30567W        W46376   3.213   1.507   1.393 -0.1031  0.1782 -0.0632
30568W        W46377   6.435   1.656  15.944 -0.0399  0.2060 -0.4013
30569W        W46378  12.690  13.670  15.675 -0.0525 -0.1078 -0.0556
30570W        W46379   9.333  14.510  12.742  0.0847 -0.1167  0.1266
30571W        W46380   8.218   0.501   3.019  0.4140  0.4073 -0.0873
30572W        W46381  12.364   6.264  15.002  0.1794  0.0857  0.0621
30573W        W46382  10.680   6.768  11.066  0.0328 -0.1691  0.0123
30574W        W46383  10.360   8.914  15.912  0.0858 -0.1414  0.1694
30575W        W46384   9.143   2.274   4.442  0.0666  0.0168 -0.1383
30576W        W46385   1.050   7.975   3.674  0.3688  0.0445  0.0243
30577W        W46386   5.789   4.694   5.116 -0.1462  0.0344  0.1545
30578W        W46387  10.899   6.777  16.604 -0.1525 -0.2020 -0.1844
30579W        W46388   0.013   5.935   5.060  0.0691  0.2330 -0.0783
30580W        W46389   0.989   9.801   1.512 -0.1048  0.1571 -0.2203
30581W        W46390   7.019   3.920  12.012 -0.2622  0.2773  0.0269
30582W        W46391  14.002  11.118   0.685 -0.1450 -0.3246  0.1210
30583W        W46392   6.168  10.102  13.012 -0.1331  0.0374 -0.0205
30584W        W46393   2.973   5.984  14.632  0.0485 -0.1042  0.1894
30585W        W46394   8.237  13.237   1.548  0.3444 -0.1469 -0.2337
30586W        W46395  10.379   4.981  13.168 -0.1709 -0.4057 -0.1720
30587W        W46396   7.824   2.585  16.801  0.0074 -0.0502  0.0220
30588W        W46397  15.023   2.188   4.049  0.0963  0.0143 -0.2070
30589W        W46398  17.427   6.806   4.602 -0.2426  0.1918 -0.3606
30590W        W46399  14.534   8.280  12.518  0.0479  0.2342 -0.0935
30591W        W46400   3.886  15.715   3.780  0.2715  0.0405 -0.0022
30592W        W46401  17.130  13.728   1.662 -0.1975  0.0313 -0.0202
30593W        W46402   7.109  11.556  13.882  0.0767 -0.3583 -0.1929
30594W        W46403   2.377  12.893   3.677  0.2488  0.1670 -0.1520
30595W        W46404   4.140  12.842  13.341 -0.0831 -0.0798 -0.0854
30596W        W46405   6.039  10.265   3.462 -0.0068 -0.3294  0.0877
30597W        W46406   0.825   4.161  15.583  0.0968 -0.0542 -0.3774
30598W        W46407   8.043   9.434  13.356  0.2942 -0.1132 -0.0078
30599W        W46408   8.460   0.029  14.303 -0.0558  0.1943 -0.1582
30600W        W46409  16.884  16.058   5.548  0.1146  0.1667 -0.0220
30601W        W46410   5.928   9.783  14.904  0.1331 -0.1232 -0.0038
30602W        W46411   6.750   9.113  13.095  0.0903 -0.0056 -0.0074
30603W        W46412   7.383  16.831  12.013 -0.0088  0.1019 -0.2160
30604W        W46413  13.965  15.329  15.560 -0.2509  0.0238 -0.2395
30605W        W46414  15.043   3.877  13.369 -0.0443  0.3297  0.1110
30606W        W46415  10.510   2.615  15.127 -0.2003 -0.0597  0.0919
30607W        W46416   2.410   9.724  14.699  0.1373  0.2624 -0.1513
30608W        W46417   0.853   5.747   3.675  0.0122 -0.1138  0.1353
30609W        W46418   1.725  13.664  16.507 -0.0775 -0.0500 -0.0716
30610W        W46419   3.246  11.430   1.969 -0.2997  0.0780  0.2646
30611W        W46420   4.975  10.887   1.374 -0.4099  0.0678  0.4267
30612W        W46421  16.084  16.412   2.830  0.1700  0.0636  0.4550
30613W        W46422   5.273   7.765  14.635  0.1713  0.0800  0.0329
30614W        W46423  11.565   9.995  14.654 -0.1936 -0.2642 -0.0094
30615W        W46424   0.694   3.687  14.250  0.2194 -0.1246 -0.0589
30616W        W46425   8.664   9.603  16.706  0.1720 -0.0746  0.3072
30617W        W46426  10.649  15.801  12.516 -0.1774  0.0966  0.2255
30618W        W46427   3.553   7.619   2.901  0.1419 -0.1362 -0.1379
30619W        W46428  16.103   9.752   5.887  0.2063 -0.0236 -0.2303
30620W        W46429   9.308   8.627  16.889  0.0997  0.2299 -0.0321
30621W        W46430  17.281  16.796  16.626 -0.1413  0.3341  0.1157
30622W        W46431  15.149   4.516  12.210 -0.0229 -0.2344 -0.0416
30623W        W46432   4.359   1.272  13.982 -0.0695  0.2322 -0.0891
30624W        W46433  15.765   3.290  15.545  0.0602 -0.1718  0.1174
30625W        W46434   0.478  16.440  13.505  0.1327 -0.1125  0.2713
30626W        W46435  12.420   9.157   5.514 -0.1772  0.0700 -0.2923
30627W        W46436  10.671   6.169  13.150  0.0078  0.1569 -0.2866
30628W        W46437   4.035   2.480   5.687  0.0389 -0.0156 -0.0771
30629W        W46438  10.296   2.257   2.087  0.0948  0.0758  0.3066
30630W        W46439  16.640   7.295  14.043 -0.1438 -0.2299 -0.0623
30631W        W46440   1.940  13.951  11.954 -0.1575 -0.1062  0.1449
30632W        W46441   1.886  17.675   4.688  0.2381  0.2934  0.0125
30633W        W46442   8.186   6.015   0.216 -0.1115  0.2410  0.0558
30634W        W46443   3.736   6.759  13.276 -0.0302  0.0715  0.0279
30635W        W46444   7.169  15.353  12.769  0.0070 -0.0867  0.0223
30636W        W46445   2.394   9.016  12.329  0.0766 -0.1139 -0.1136
30637W        W46446  17.399   6.165   2.264  0.0330 -0.0259  0.0254
30638W        W46447   9.854  13.282   3.954  0.1728  0.0942  0.0026
30639W        W46448   4.508   2.730   5.609  0.0135  0.0605 -0.2375
30640W        W46449   6.936   9.258   3.009 -0.2881  0.0990 -0.0057
30641W        W46450  17.524   2.948   3.996 -0.0612  0.0103 -0.0125
30642W        W46451  15.869  16.829   2.652 -0.2238  0.2820 -0.0671
30643W        W46452  10.360   7.634   5.366 -0.2321  0.0764  0.0029
30644W        W46453  13.674  15.926  16.301  0.2928 -0.1326 -0.0353
30645W        W46454   9.511   9.198   1.760  0.0507  0.0501  0.1448
30646W        W46455  12.999   1.282   4.154 -0.0447 -0.2355  0.3572
30647W        W46456  16.237   3.886   5.907  0.1546  0.1051  0.0048
30648W        W46457  10.553   9.053  12.769  0.1310 -0.1081 -0.2712
30649W        W46458   6.879   4.587   0.909  0.0695  0.1279 -0.1992
30650W        W46459   5.963   1.658  13.299  0.0740  0.0162 -0.0434
30651W        W46460   6.200  14.773  14.948  0.0530 -0.0352 -0.0599
30652W        W46461  12.051  17.720  13.193 -0.2526  0.0057 -0.0264
30653W        W46462   6.804  14.560  14.707 -0.2339 -0.0270 -0.0999
30654W        W46463   2.608   0.895  15.742  0.0679  0.2771  0.0052
30655W        W46464  17.238   4.868  12.627 -0.0078 -0.2049 -0.1039
30656W        W46465   1.599   1.922   4.681  0.1837  0.1264 -0.1703
30657W        W46466   7.333   6.696   1.539  0.1609 -0.1839 -0.0517
30658W        W46467   5.464   9.543   0.946  0.1054  0.2773  0.0865
30659W        W46468  13.520  10.983  12.495 -0.0260 -0.0514  0.0890
30660W        W46469   0.727  11.469   3.333 -0.0507 -0.0523  0.0397
30661W        W46470  11.601   3.214  15.284  0.2362  0.0203  0.1728
30662W        W46471  14.184  15.291  13.411  0.0784 -0.0554 -0.0464
30663W        W46472  16.591   8.187   1.771 -0.1030 -0.0146  0.3163
30664W        W46473   4.222   7.775   2.205 -0.0712  0.0680 -0.0248
30665W        W46474  16.743  11.859  15.681  0.1162 -0.0283 -0.0494
30666W        W46475  14.284   0.066  13.332  0.1854 -0.1699 -0.0779
30667W        W46476   3.788  17.679   0.465  0.2624  0.2152  0.0291
30668W        W46477   5.790   3.045   2.592 -0.1260 -0.0910 -0.0388
30669W        W46478   5.922  13.982  13.868  0.3651 -0.2112  0.3059
30670W        W46479  10.040   7.026   3.184 -0.0299 -0.1455 -0.1502
30671W        W46480   6.848  11.806   4.954 -0.0095 -0.1728  0.1355
30672W        W46481  12.572  13.259   1.679  0.1586 -0.1298 -0.0694
30673W        W46482   8.486  15.894  11.118 -0.0609 -0.0904 -0.0834
30674W        W46483  10.915  10.376   2.184  0.0967 -0.1101 -0.0401
30675W        W46484  11.153   6.931  13.810  0.1414 -0.1546 -0.2140
30676W        W46485   4.127   2.006   1.811  0.2255  0.2213 -0.1220
30677W        W46486   9.051  16.956  16.467  0.1267  0.2625  0.1010
30678W        W46487   6.047  17.641   3.457 -0.1775 -0.0611 -0.0494
30679W        W46488   0.562   7.669  13.108 -0.0218  0.2642 -0.2309
30680W        W46489   3.329  17.484   4.450  0.0652 -0.1581  0.1454
30681W        W46490  11.606   7.113   0.464 -0.0870  0.0857  0.1324
30682W        W46491   4.752  10.900  14.188  0.0710  0.0378 -0.0395
30683W        W46492   4.364   3.876   2.354 -0.1679 -0.4423 -0.1312
30684W        W46493   0.515  11.187   1.894 -0.1464 -0.0310 -0.2987
30685W        W46494   4.575  14.152  13.672 -0.1543 -0.2279  0.2313
30686W        W46495  12.895   8.804  12.150  0.1225  0.0035  0.0330
30687W        W46496  17.502  11.895   2.609  0.0445 -0.3337 -0.1608
30688W        W46497   0.921   0.565  13.900  0.1107 -0.0118 -0.2265
30689W        W46498  17.578   8.773  16.533 -0.1750  0.0289 -0.0230
30690W        W46499   4.361  16.354  13.262 -0.3317  0.0235  0.2790
30691W        W46500  15.416  13.696  16.303 -0.1887  0.0895 -0.2449
30692W        W46501   2.792   5.318   4.293  0.1374 -0.3095  0.1677
30693W        W46502   2.104  13.901  12.960  0.2489  0.2237 -0.0709
30694W        W46503   7.099  15.417   0.402 -0.3733  0.0415 -0.1345
30695W        W46504  11.092   9.711   3.843 -0.3386  0.0369  0.1119
30696W        W46505   8.961   5.045   6.748 -0.1811 -0.1371  0.0950
30697W        W46506   3.963   2.254  15.803 -0.0775  0.0453  0.0038
30698W        W46507  15.206   6.182  12.140  0.1427 -0.2044 -0.1382
30699W        W46508  17.026  10.217  14.813  0.1640 -0.0632  0.1676
30700W        W46509   1.467  15.368   4.662  0.1107  0.2842 -0.1744
30701W        W46510   5.229  10.929  13.290  0.1837 -0.1203  0.2265
30702W        W46511   6.746   4.957  14.855 -0.1528 -0.2556 -0.1412
30703W        W46512   8.152  15.651   4.025  0.0952 -0.2233 -0.1928
30704W        W46513   2.322   8.196  14.381  0.2704  0.1505  0.1492
30705W        W46514   3.886  16.927   0.526  0.1471 -0.0612 -0.3346
30706W        W46515   1.417  14.526   0.870 -0.0873  0.0044  0.0792
30707W        W46516   1.533   2.739  12.788  0.0520 -0.0444  0.1222
30708W        W46517   9.892   8.597   0.223 -0.1904  0.0044 -0.2558
30709W        W46518  17.380  11.391   0.786 -0.0342 -0.0800  0.0303
30710W        W46519  14.195   6.895   0.935 -0.0157 -0.0064  0.1607
30711W        W46520   3.117  14.714  15.900 -0.0772  0.0529  0.0285
30712W        W46521  15.656   2.704   4.521  0.1135 -0.0825  0.2720
30713W        W46522   4.101   4.388   4.974  0.1048 -0.0350  0.2356
30714W        W46523  11.849   7.262  15.972  0.1366  0.1272  0.0235
30715W        W46524   3.708   5.582   2.105 -0.0408  0.0532 -0.4110
30716W        W46525  13.505   9.259  13.367  0.0936 -0.0400 -0.2081
30717W        W46526  13.615   2.002   0.253  0.0886 -0.0071 -0.0992
30718W        W46527   6.859  12.747   1.699  0.0359  0.3290 -0.1471
30719W        W46528   1.211   8.805   0.276 -0.1585  0.0834  0.0817
30720W        W46529   6.048   0.418   3.678  0.0464  0.0574  0.4152
30721W        W46530  11.514  10.336   0.888 -0.1383 -0.0632 -0.3910
30722W        W46531   2.362  17.172   2.874  0.0448 -0.0238  0.2449
30723W        W46532   0.794  15.551  13.854  0.1213 -0.1958  0.0174
30724W        W46533  12.380  13.987   2.170  0.1014 -0.0262 -0.0292
30725W        W46534  15.323   5.068   5.445  0.2418  0.1173 -0.2317
30726W        W46535  13.898  11.342   5.480  0.1687  0.1330  0.1552
30727W        W46536  10.750   3.752  15.897  0.3456 -0.2457  0.1436
30728W        W46537   8.900  17.548   2.592  0.0018 -0.2040 -0.4039
30729W        W46538   1.073  17.310  13.628 -0.0364 -0.1524 -0.4436
30730W        W46539   2.675  10.456   0.836 -0.1472  0.0871 -0.2787
30731W        W46540  11.551   0.428   0.583 -0.1520  0.1457 -0.3844
30732W        W46541  10.858   6.349   5.758  0.0571  0.1060  0.3542
30733W        W46542  17.066   0.963  15.218  0.1559  0.0067  0.2127
30734W        W46543  11.740   7.289   4.123 -0.1120  0.0598  0.0117
30735W        W46544   8.040   2.418   2.567  0.0255  0.0066 -0.0594
30736W        W46545  10.604  12.179  11.079 -0.1707 -0.2146  0.2235
30737W        W46546   5.625  11.817  13.907  0.0725 -0.0701 -0.1153
30738W        W46547  14.865   9.772  14.125 -0.3986  0.0593 -0.4710
30739W        W46548  11.848   4.109  12.738  0.0059  0.0142 -0.1877
30740W        W46549  10.176   0.989  13.498  0.2218  0.1947  0.1461
30741W        W46550   4.317  11.148   5.921  0.0901 -0.0687  0.0269
30742W        W46551  15.495   6.476  14.573  0.2574 -0.0114  0.3499
30743W        W46552  14.192  10.993  14.602  0.0297 -0.2468  0.0170
30744W        W46553  14.423   4.730   6.221  0.1270  0.0917  0.1100
30745W        W46554   8.899  11.877   1.098 -0.1077 -0.2740 -0.0655
30746W        W46555  17.170   0.604  11.882 -0.0084  0.1208 -0.0553
30747W        W46556   1.052   3.325   1.613 -0.1669  0.1150  0.0873
30748W        W46557  13.001   5.080   5.615  0.2321  0.0674  0.1275
30749W        W46558  15.104  15.063  13.177 -0.0838 -0.0653  0.4671
30750W        W46559   6.298  17.679  11.712 -0.1379 -0.1413 -0.0125
30751W        W46560  14.602   2.015   3.821  0.2658 -0.0527 -0.1551
30752W        W46561   8.610   0.189  12.831  0.1357 -0.0675 -0.1100
30753W        W46562  12.295  13.022   2.087  0.2067 -0.1056  0.4181
30754W        W46563  11.748  17.490   3.964  0.0048 -0.0175 -0.2498
30755W        W46564   2.327  12.630   4.917 -0.0857 -0.1136 -0.0249
30756W        W46565  10.648  15.111   4.910  0.0216 -0.0932 -0.0792
30757W        W46566   1.885  15.536  16.229  0.0019 -0.0346  0.2259
30758W        W46567  13.006   0.175  16.880  0.1356 -0.4098  0.0459
30759W        W46568   3.165   3.853   1.391 -0.1696 -0.2669  0.1132
30760W        W46569  11.185  12.469  16.529  0.0973 -0.1602 -0.2811
30761W        W46570  16.300   4.563  14.623  0.2072 -0.3797  0.0512
30762W        W46571   4.267   1.427  12.615  0.0615 -0.2020 -0.1923
30763W        W46572  12.769  17.496   0.144 -0.4769 -0.1653 -0.2282
30764W        W46573  10.220  14.944   2.327  0.1682  0.2668 -0.1689
30765W        W46574   4.157   2.004   2.998 -0.0088  0.1391 -0.1785
30766W        W46575  10.345   0.461   2.051  0.3168 -0.0107 -0.0794
30767W        W46576   2.593  11.312   4.082 -0.0869  0.0687 -0.1132
30768W        W46577  16.807   6.353  13.830 -0.1900  0.1730  0.1108
30769W        W46578   9.412   6.471   5.598 -0.0956  0.1020  0.0349
30770W        W46579   1.539  16.307   3.048  0.1558 -0.0080  0.0272
30771W        W46580  16.206   6.893   2.354 -0.0332 -0.3208  0.2270
30772W        W46581   5.054  16.630   3.334  0.0342  0.0418  0.0602
30773W        W46582   1.849   9.065   6.165 -0.0480  0.0126  0.1250
30774W        W46583  11.070   2.718   0.441  0.0076  0.2147 -0.3184
30775W        W46584   4.129   4.850  12.061 -0.0649  0.1377  0.1572
30776W        W46585  17.548   7.426   6.379  0.0376 -0.2254  0.0877
30777W        W46586   4.309   2.071  14.471  0.3344 -0.1612 -0.2941
30778W        W46587   5.629   3.153   1.112 -0.1092 -0.0226 -0.2663
30779W        W46588   4.464  16.555  12.306  0.0872  0.0770 -0.0245
30780W        W46589  17.038   9.602  13.862 -0.2046  0.2300 -0.2894
30781W        W46590  17.486   8.051  14.562 -0.1686 -0.3122  0.2835
30782W        W46591   2.656   7.087   4.215  0.0189  0.0241 -0.1302
30783W        W46592  14.940   9.739   3.292 -0.0012  0.1855  0.1149
30784W        W46593  15.217  14.978   2.726  0.1245  0.1242 -0.1486
30785W        W46594  10.473  10.205  15.826  0.1126  0.0588  0.0042
30786W        W46595   9.373  10.788  13.065 -0.1261 -0.0767  0.0055
30787W        W46596  11.214   2.035   1.128  0.1315 -0.0512  0.0423
30788W        W46597  10.952   3.573   4.088 -0.1174 -0.0284 -0.1246
30789W        W46598  14.572   1.039  16.944 -0.0398 -0.0983  0.2624
30790W        W46599  12.100  10.400  15.333  0.0104 -0.2625 -0.2997
30791W        W46600   9.231  11.577   3.105  0.1267 -0.0321  0.2018
30792W        W46601   8.894   3.137   4.948  0.2395 -0.1328  0.2819
30793W        W46602  10.649   2.662   0.148  0.2127 -0.0502 -0.0721
30794W        W46603   5.376   3.473   1.416 -0.0012 -0.1046 -0.1292
30795W        W46604   1.476  17.631   3.680 -0.0944 -0.2646 -0.0427
30796W        W46605  11.654   7.661  16.203  0.2439  0.0327 -0.0174
30797W        W46606   3.993   8.316  14.968 -0.1313 -0.1086  0.0791
30798W        W46607   7.025   1.331   3.302  0.1179  0.2772  0.1163
30799W        W46608   6.316  10.213  14.692  0.1572 -0.0412 -0.0857
30800W        W46609  16.185   7.170   2.766  0.1322 -0.0489  0.3996
30801W        W46610   2.528  13.286   1.243  0.3611  0.1358 -0.0144
30802W        W46611   4.778  12.095  16.429  0.3730  0.0145  0.0727
30803W        W46612   6.662   7.777   1.081 -0.1281 -0.2082 -0.5215
30804W        W46613   3.968   5.922   2.464  0.2181 -0.0686  0.1022
30805W        W46614  10.891   6.196   3.227 -0.0677 -0.1824 -0.2959
30806W        W46615   5.088   5.070  13.268 -0.1718  0.2381  0.1853
30807W        W46616  17.422   8.204  13.727 -0.0976 -0.1311  0.1321
30808W        W46617   3.022   7.787   4.702  0.0425 -0.1737  0.1087
30809W        W46618  13.272  13.726   4.146 -0.0711 -0.0197  0.1357
30810W        W46619  17.495   7.949   0.640  0.0461 -0.3581 -0.0009
30811W        W46620   8.329  10.902   0.845  0.0920  0.0196  0.1508
30812W        W46621  17.037  10.099  16.472 -0.1971 -0.2273 -0.0688
30813W        W46622   4.098   6.218  15.996  0.1851  0.2570  0.2437
30814W        W46623  13.123  16.609  12.067  0.0113  0.0425 -0.0625
30815W        W46624  11.481  11.161   0.590  0.0764  0.0247 -0.1769
30816W        W46625  13.053  11.240   3.443 -0.0525 -0.0472 -0.1197
30817W        W46626   8.186   9.935   2.766  0.0860  0.2727 -0.0627
30818W        W46627   9.565   6.798   4.671  0.1361  0.0071 -0.1406
30819W        W46628   3.085  17.383  12.010  0.0628 -0.1532 -0.0327
30820W        W46629   6.761  14.902   3.689 -0.3159 -0.2999  0.2833
30821W        W46630   6.677   1.047   0.986  0.0863 -0.0511 -0.1312
30822W        W46631  10.936   4.248   0.175  0.1704  0.3536  0.1283
30823W        W46632   1.434  17.703  16.004  0.3910  0.0620  0.3615
30824W        W46633   3.999   2.016   4.549  0.1529 -0.3514  0.2412
30825W        W46634  10.498  14.774   4.335 -0.1666 -0.0598  0.0553
30826W        W46635  16.882  16.688  11.081  0.0485 -0.1775  0.0275
30827W        W46636  12.335   8.961  16.773 -0.0852 -0.1175  0.2718
30828W        W46637  17.154   0.253  14.761  0.0299  0.0638  0.2196
30829W        W46638   2.135  12.162  17.003 -0.0693 -0.0990 -0.1668
30830W        W46639   1.340  11.024   3.388  0.3016 -0.1131  0.0468
30831W        W46640   7.451  12.309  11.667 -0.0074 -0.0619  0.1445
30832W        W46641  15.341   7.805   1.224  0.1962 -0.0126 -0.0256
30833W        W46642   7.465   9.690  11.949  0.3916  0.0043 -0.2254
30834W        W46643  17.440  12.040  14.751 -0.1588  0.0631  0.2330
30835W        W46644   3.353  17.527   2.332  0.1359 -0.1493  0.1661
30836W        W46645  14.358   5.907   1.942  0.1700 -0.2078  0.0876
30837W        W46646  13.002  16.190   1.598 -0.1196  0.2649  0.1696
30838W        W46647   5.130  10.538  12.389 -0.1453  0.1627  0.1740
30839W        W46648   7.753  17.124  15.324 -0.0315 -0.3628  0.0317
30840W        W46649   8.791  14.788   1.494 -0.0362 -0.0315  0.2433
30841W        W46650  11.664   5.463   3.142  0.0817  0.1820 -0.0025
30842W        W46651   9.022   4.096  16.435  0.2247  0.1159  0.1765
30843W        W46652   3.671   4.431   0.970 -0.2429  0.1493 -0.1175
30844W        W46653   7.853   9.446  16.061  0.1098  0.1199 -0.1837
30845W        W46654  10.207   9.955  12.191  0.0113  0.0934  0.0632
30846W        W46655  11.531   9.279   0.298  0.4307  0.1607  0.0086
30847W        W46656   1.074   7.320   2.385  0.1908  0.0831 -0.0458
30848W        W46657   8.285   5.639   5.194  0.0209  0.0241  0.0810
30849W        W46658   8.419   8.482  14.959 -0.3184  0.0135  0.1771
30850W        W46659  17.280   8.752  12.467  0.4881  0.1594 -0.1053
30851W        W46660   0.377   2.937   1.231 -0.1271  0.0522 -0.2734
30852W        W46661   7.736  13.060   3.131 -0.0968 -0.1736 -0.0185
30853W        W46662   8.904  15.678   4.223  0.2135  0.1334 -0.2283
30854W        W46663   6.698  15.142   0.959  0.0909 -0.0249  0.2167
30855W        W46664   3.812   5.897   4.492  0.2014 -0.2226 -0.0131
30856W        W46665   3.780   1.056   5.555 -0.2442 -0.0124 -0.1223
30857W        W46666   0.681  14.733   5.443 -0.1447  0.2329  0.0852
30858W        W46667   6.518  10.872  12.564 -0.0563  0.2418  0.1555
30859W        W46668   9.755   1.008  16.819 -0.1510 -0.1762  0.1297
30860W        W46669   6.891   4.183  16.340  0.2873  0.1379  0.1536
30861W        W46670   6.985  12.076   0.809 -0.1596 -0.1220 -0.0956
30862W        W46671  12.708   3.965   4.847 -0.1968  0.3544  0.1241
30863W        W46672   1.492  16.807   2.968  0.3478 -0.2027 -0.0919
30864W        W46673  17.669  16.362  13.516 -0.1597 -0.0885 -0.2467
30865W        W46674   9.166  11.544  14.395 -0.0764 -0.0383  0.1109
30866W        W46675   8.746  13.268  16.562  0.0821  0.1520  0.2108
30867W        W46676  14.454  15.042  11.350 -0.2893  0.3003  0.2389
30868W        W46677  12.026   4.451  16.021 -0.1907 -0.1220 -0.1248
30869W        W46678  13.579  13.431  13.644 -0.0199 -0.2055 -0.1230
30870W        W46679  11.811  13.515  13.644  0.0159 -0.0375  0.1695
30871W        W46680   2.228  10.471   2.742  0.0830  0.0921 -0.0006
30872W        W46681   4.010  10.816  13.250 -0.1934 -0.3193  0.0455
30873W        W46682   9.764   9.199  14.689 -0.0858 -0.1300 -0.2225
30874W        W46683  15.213   4.187  15.456 -0.2538  0.1690  0.2298
30875W        W46684   0.543  16.168  16.257  0.2395 -0.2244 -0.2495
30876W        W46685   0.780   2.264  13.006 -0.1383  0.0027 -0.0034
30877W        W46686   7.784  11.747   2.792  0.0745  0.0707 -0.2691
30878W        W46687  16.401  10.364   3.334  0.1833  0.0149  0.3234
30879W        W46688   9.215  11.091  13.446  0.0981 -0.0500  0.1945
30880W        W46689   0.540  11.723   4.248  0.1025  0.1807  0.2400
30881W        W46690   8.539   6.430  16.721  0.1563  0.0026  0.2072
30882W        W46691  10.069   2.092  14.477  0.2190 -0.2522  0.1289
30883W        W46692   8.116   2.345  14.699 -0.0861 -0.3639 -0.3093
30884W        W46693   5.666   0.330   1.131 -0.2408  0.0090  0.2167
30885W        W46694   3.708   4.647   1.909  0.1474  0.1987 -0.0681
30886W        W46695   0.660   9.263  16.003  0.1826 -0.2635 -0.1672
30887W        W46696   7.269   4.415  16.117 -0.2485  0.4016 -0.0796
30888W        W46697  13.815   1.220  14.233 -0.2674  0.1661 -0.0859
30889W        W46698   4.927  14.968  12.939  0.0955 -0.1500  0.2084
30890W        W46699   9.207   0.081   3.511 -0.2733 -0.1671  0.4309
30891W        W46700   7.097   9.340   2.350  0.3195 -0.1533  0.2406
30892W        W46701   3.203   7.115   1.646 -0.0575 -0.1970 -0.2010
30893W        W46702  16.863   4.531  15.978 -0.1507 -0.0906  0.0748
30894W        W46703  14.036   9.909  14.774 -0.0302  0.0370  0.2504
30895W        W46704  10.503   5.704   1.390 -0.2722  0.1709  0.0525
30896W        W46705  16.233   2.108  16.391  0.2191 -0.3372  0.1447
30897W        W46706   9.522   0.124  16.295 -0.1818  0.2064 -0.0727
30898W        W46707   3.523   1.365   2.579 -0.0600 -0.1405  0.1689
30899W        W46708  17.490   9.231  12.221 -0.0413 -0.0021  0.1553
30900W        W46709   3.202   5.696  15.182 -0.0622  0.1156 -0.0433
30901W        W46710   6.483  15.787  10.851  0.0154  0.1263 -0.1894
30902W        W46711   6.002   6.196   2.851  0.0018  0.0716 -0.2714
30903W        W46712   1.089   6.172   0.625  0.2495  0.0809 -0.1360
30904W        W46713  15.821  14.323  13.751  0.0056  0.0839 -0.2491
30905W        W46714  17.574  13.217   3.101 -0.1701  0.0733 -0.3982
30906W        W46715   0.075   0.290  15.453  0.1041 -0.2053  0.1169
30907W        W46716  14.396   9.086   0.635  0.1283 -0.1356  0.0286
30908W        W46717   4.206   6.677  12.273 -0.4444  0.0268  0.0916
30909W        W46718  12.044  17.667  16.534  0.1977  0.0629 -0.0240
30910W        W46719   8.671   3.932  15.050  0.1746  0.0180  0.1570
30911W        W46720   8.328   0.003  11.247  0.1825  0.0177 -0.1574
30912W        W46721   2.367   8.730  14.356  0.3940  0.2983 -0.0251
30913W        W46722  13.096   5.316   5.150 -0.0933  0.1084 -0.1874
30914W        W46723   6.559  13.255  13.941  0.0551  0.0940  0.0651
30915W        W46724   5.416   3.901  15.699  0.0289  0.1337 -0.1068
30916W        W46725   5.193   4.648  14.641 -0.0369 -0.1560 -0.1720
30917W        W46726   8.939   5.403   1.699 -0.0250 -0.0100  0.1142
30918W        W46727  16.777   8.608   4.386 -0.1524  0.1664 -0.2264
30919W        W46728   5.941  15.958   4.178 -0.0300 -0.2204 -0.2186
30920W        W46729  15.059   1.135   0.016  0.0055  0.2093 -0.1259
30921W        W46730   4.311  11.267  14.005 -0.0353  0.1532 -0.0763
30922W        W46731   7.713  16.882  16.833 -0.2388  0.0487 -0.0536
30923W        W46732   4.732   3.173   0.603 -0.3046  0.0246  0.1175
30924W        W46733  14.033  17.507  12.495  0.0483 -0.3511  0.3469
30925W        W46734   9.841   7.578  15.750 -0.2947 -0.3443 -0.1344
30926W        W46735   9.180   5.752  14.691 -0.0889 -0.0053 -0.1934
30927W        W46736   1.188  15.280  14.203 -0.1146  0.0967 -0.0629
30928W        W46737   7.815   3.580   4.481  0.1156  0.1250 -0.0194
30929W        W46738  12.809   9.512   2.901  0.1101  0.1106  0.0448
30930W        W46739  13.657   6.474  13.670 -0.2302 -0.2508 -0.2143
30931W        W46740   0.588   2.523   2.474  0.1248  0.0852  0.3486
30932W        W46741  15.499  11.329  13.646  0.1503  0.0092 -0.0125
30933W        W46742   2.018  12.068   2.919 -0.3710 -0.0804  0.2883
30934W        W46743  14.624   3.398  12.085 -0.0758  0.2100 -0.1418
30935W        W46744   0.063   9.559   4.121 -0.1998 -0.3520 -0.2281
30936W        W46745   2.682   3.199   4.916 -0.2610 -0.1548  0.2762
30937W        W46746  15.667  12.228   4.408 -0.0524 -0.1574 -0.2332
30938W        W46747   9.153   7.708  16.277 -0.0952  0.2276 -0.3266
30939W        W46748   6.422  12.613  15.969  0.2031 -0.1458  0.2882
30940W        W46749  10.912  12.559  11.430  0.0670  0.3434  0.0261
30941W        W46750   2.327   0.848  15.315  0.0805 -0.0896 -0.3004
30942W        W46751  13.985  11.163   4.484  0.0310  0.0334  0.0837
30943W        W46752   9.063  12.325   2.518  0.2616 -0.3234  0.0558
30944W        W46753   4.722   5.093   0.649  0.0663 -0.0455 -0.1332
30945W        W46754  14.102  16.285  15.299  0.0012 -0.1026  0.1399
30946W        W46755  12.324   8.106   1.493  0.0853  0.1556 -0.2109
30947W        W46756  17.239   2.981  13.509  0.1490  0.3489  0.1059
30948W        W46757  10.777   6.482  14.482 -0.1190  0.1375 -0.2201
30949W        W46758   0.489   0.718   0.756  0.1511  0.1707 -0.3879
30950W        W46759   6.384   9.146  13.983 -0.0655  0.0058 -0.1981
30951W        W46760   8.012   5.993  13.535  0.0757  0.0175 -0.2628
30952W        W46761   3.918  14.995   5.546  0.1828  0.2588  0.2683
30953W        W46762   8.624   5.636   5.600 -0.1318  0.1979  0.1624
30954W        W46763  14.426  11.450   4.301 -0.1513 -0.0351  0.0693
30955W        W46764   2.394   0.286   1.342  0.0022  0.1073  0.0826
30956W        W46765   1.771   5.625   2.623 -0.0562  0.1689 -0.1287
30957W        W46766   2.195   2.953   0.968  0.0056  0.0233 -0.2379
30958W        W46767  12.845   2.272   4.660 -0.1964  0.2507  0.1352
30959W        W46768   0.413   5.072  15.777  0.3552 -0.1902 -0.2859
30960W        W46769  12.220  14.296   3.956 -0.2539 -0.1141 -0.0612
30961W        W46770  11.835  14.770   3.214 -0.1350 -0.0728  0.1512
30962W        W46771  11.211   8.367   0.140 -0.2088  0.2049 -0.0900
30963W        W46772   6.436   6.913   3.450 -0.1078 -0.2174  0.2145
30964W        W46773   4.893   0.315  11.916 -0.0435 -0.2377 -0.2764
30965W        W46774   9.475   2.844  13.843  0.1613  0.1524  0.2366
30966W        W46775  14.235   8.810  14.839  0.0387 -0.0349  0.1538
30967W        W46776   2.496   1.880   5.186  0.2852  0.1488  0.0043
30968W        W46777   8.385  16.518  14.128 -0.2588  0.2384  0.1994
30969W        W46778   8.148  16.995   1.609 -0.1471 -0.0272  0.1343
30970W        W46779  10.954  10.404  13.313 -0.0434 -0.0187 -0.1152
30971W        W46780   7.942   2.592   0.860  0.2519 -0.2758  0.1640
30972W        W46781  16.362   3.364  14.159 -0.0598 -0.0196 -0.1021
30973W        W46782   7.065  15.247  11.450  0.0583  0.1401  0.1675
30974W        W46783   0.927  14.471  13.935  0.0968 -0.1382  0.0960
30975W        W46784  12.423   9.790  16.272  0.1220  0.0213  0.1618
30976W        W46785   5.474  17.355  11.433  0.1987  0.1185  0.0192
30977W        W46786   2.224  13.007   0.960  0.3434  0.1433 -0.0671
30978W        W46787   9.383  11.637   1.877  0.1824 -0.3129 -0.1877
30979W        W46788  16.095  14.271  12.939 -0.0668  0.1775  0.0277
30980W        W46789  15.065  16.057  11.882  0.1179  0.1168  0.5473
30981W        W46790   9.267   5.848   1.588  0.4607  0.2266  0.0804
30982W        W46791   0.720   4.237  12.334 -0.3350 -0.1653 -0.1669
30983W        W46792   1.641   9.540  14.064  0.1298 -0.0062  0.0260
30984W        W46793  13.222   2.263  15.027 -0.0285  0.0151 -0.0452
30985W        W46794  12.595   6.481   6.488  0.0535 -0.0453 -0.3854
30986W        W46795   5.825   8.007  15.987 -0.0888 -0.2861  0.0110
30987W        W46796  11.328   7.959   3.445  0.2757  0.2545  0.2452
30988W        W46797  15.614   7.808   0.801 -0.2526  0.1128 -0.0381
30989W        W46798   6.605   0.108  13.839  0.0241  0.2874  0.1670
30990W        W46799   9.239   4.833   5.224 -0.1063 -0.0699  0.0783
30991W        W46800  15.072  12.986   0.587 -0.0379 -0.3334  0.2111
30992W        W46801   5.961   8.229   2.725  0.2318 -0.0106 -0.0851
30993W        W46802   1.259  10.451  12.564 -0.2798  0.3016 -0.1543
30994W        W46803   4.149   5.309   2.014 -0.1047  0.1746 -0.0274
30995W        W46804   3.423  13.199  14.674  0.1466 -0.0165  0.0471
30996W        W46805  13.742   2.279  14.278  0.1071  0.0594 -0.0989
30997W        W46806  11.992  15.893   0.253  0.0139  0.2501  0.0097
30998W        W46807  14.904  13.714  15.155  0.0912 -0.2062 -0.0268
30999W        W46808   8.070  15.163   3.035  0.0232 -0.3026 -0.1069
31000W        W46809  10.820   2.541  14.120 -0.1833  0.0007 -0.3320
31001W        W46810   6.020   6.848  15.543 -0.3547 -0.2385 -0.1449
31002W        W46811  10.426   8.147  14.416  0.2380 -0.1523 -0.0812
31003W        W46812  16.876  10.081  12.274 -0.1120  0.0988 -0.1545
31004W        W46813   6.883   0.450  12.152 -0.1493 -0.0960  0.0053
31005W        W46814   9.867   9.022  15.700 -0.1848 -0.2402  0.0226
31006W        W46815   3.435   3.011   4.463  0.2501 -0.0739  0.0188
31007W        W46816  13.730   5.351  16.931  0.1894 -0.2087 -0.1262
31008W        W46817   4.282   7.905   4.381 -0.1596  0.0363 -0.3124
31009W        W46818   7.005   9.859   6.014  0.2416 -0.0406 -0.3592
31010W        W46819  16.070   4.820  15.333 -0.0257 -0.2258  0.1124
31011W        W46820  16.145   8.224  13.105 -0.0129 -0.1816  0.1043
31012W        W46821  14.268  10.495  13.819 -0.0760  0.0672  0.3326
31013W        W46822  13.576   3.678  13.071  0.0807 -0.3662  0.0212
31014W        W46823  17.649   4.545  14.060 -0.1895 -0.2814 -0.0355
31015W        W46824   2.101  12.464  15.125 -0.1935 -0.1203 -0.2843
31016W        W46825   9.864  15.707  12.818  0.0101 -0.1125  0.0292
31017W        W46826   7.453   5.217  12.198  0.2702  0.0335 -0.2666
31018W        W46827   4.076   0.174   0.015 -0.0106  0.2590  0.0586
31019W        W46828   2.968   9.446  15.964  0.0873 -0.0503 -0.0068
31020W        W46829  16.284   3.825  16.929  0.1580 -0.1189 -0.1485
31021W        W46830  12.135   5.968  16.825  0.1207 -0.3131 -0.3129
31022W        W46831  16.657   5.881   3.407  0.0368  0.1118  0.2159
31023W        W46832  11.440   8.010   2.963  0.0719 -0.1154  0.0070
31024W        W46833   8.368  17.615  12.466  0.2498 -0.0931 -0.1097
31025W        W46834  14.593   8.450  16.551 -0.3562  0.2408  0.0558
31026W        W46835   1.417   9.791   2.841  0.0454  0.2284  0.0671
31027W        W46836   7.179   1.277  12.681  0.3902 -0.1558 -0.0500
31028W        W46837   3.138  10.697   1.020 -0.2578 -0.2412  0.0573
31029W        W46838   4.220  13.711  13.401  0.0514 -0.1073  0.1935
31030W        W46839   1.924   7.547  14.122 -0.1292  0.1562 -0.0437
31031W        W46840   4.955   2.366  11.653 -0.0280  0.0722 -0.2230
31032W        W46841  14.261   2.715  12.327  0.1015 -0.2333 -0.0955
31033W        W46842   1.307   9.906  12.458  0.1643  0.1551  0.0240
31034W        W46843   7.929   7.371  15.776 -0.1793  0.0810  0.0831
31035W        W46844  16.639   7.428   5.717  0.0020 -0.1390 -0.2860
31036W        W46845  17.313   6.968  15.870 -0.0742 -0.1740 -0.0363
31037W        W46846   6.452  14.631   5.672  0.1218  0.0198  0.1386
31038W        W46847   9.104   2.100   2.568  0.2152 -0.1463 -0.1598
31039W        W46848  14.770  14.451   0.603  0.2132 -0.2107 -0.4624
31040W        W46849   6.964   8.418   1.487  0.0510 -0.1489  0.0149
31041W        W46850   6.005  15.304  15.165  0.2177  0.0277  0.0636
31042W        W46851  17.637   0.697  12.545  0.3256 -0.1882  0.2507
31043W        W46852   0.795   5.598  14.196  0.3510  0.3299  0.0654
31044W        W46853  14.933   2.698  13.815  0.0245  0.0267  0.1681
31045W        W46854   6.510   7.871  14.876  0.1229  0.2850  0.1873
31046W        W46855   8.071  16.092   3.144 -0.1999  0.0095 -0.1795
31047W        W46856   0.680   0.939  16.606  0.0005  0.2567 -0.1832
31048W        W46857  13.447   4.078  16.303 -0.0395  0.0194 -0.2929
31049W        W46858   5.094   9.342  16.866 -0.0444 -0.0432 -0.1291
31050W        W46859  12.474  10.951   4.526  0.0234 -0.3435 -0.1415
31051W        W46860   5.327   3.363   3.306 -0.2231 -0.2637  0.2852
31052W        W46861   5.018   5.747   1.388  0.0162  0.1788 -0.0458
31053W        W46862   9.971  13.800   2.260  0.0157  0.1378 -0.0721
31054W        W46863   5.989   2.953  13.526 -0.0534 -0.0507 -0.0802
31055W        W46864  15.138  16.728   4.347  0.2089 -0.1686 -0.1024
31056W        W46865  13.015  13.534  14.857  0.0031 -0.1012 -0.0498
31057W        W46866   2.864  10.598  11.979  0.0591 -0.5125  0.0115
31058W        W46867   8.752   9.455   4.125  0.1031 -0.0761  0.3104
31059W        W46868  14.210   1.848   1.131 -0.2099 -0.0360  0.4512
31060W        W46869  14.107  14.113   2.605 -0.0238  0.1034  0.1395
31061W        W46870  17.560   3.616   0.714  0.2863  0.0555  0.0960
31062W        W46871   3.515   9.489   2.409  0.0207  0.0854 -0.2268
31063W        W46872  14.131  15.783  12.012 -0.0706 -0.2525  0.2084
31064W        W46873   4.604  10.151   0.713 -0.3701 -0.3964 -0.1041
31065W        W46874   8.523   9.718   1.020 -0.0230  0.3059 -0.1075
31066W        W46875   8.707  11.194   0.732 -0.1140 -0.0810 -0.1211
31067W        W46876  13.559   3.948  15.280  0.0268 -0.3560  0.2181
31068W        W46877   8.555   8.012   5.949 -0.2794 -0.2695 -0.1477
31069W        W46878  11.626   1.431   2.949 -0.2761 -0.2423  0.2379
31070W        W46879  10.100  16.172  10.266  0.4099  0.2433  0.1860
31071W        W46880  14.366  12.704  16.674  0.0095 -0.2588 -0.0476
31072W        W46881  15.731  13.072  15.407  0.0447 -0.0287 -0.0146
31073W        W46882  10.459  16.783  12.031 -0.1013 -0.2135  0.0730
31074W        W46883  11.864   2.106   6.348  0.0073 -0.0420 -0.0189
31075W        W46884  10.804   2.258   2.575  0.0067 -0.1707  0.2965
31076W        W46885  11.064  12.441   3.411 -0.0706 -0.1441  0.1769
31077W        W46886   6.664  15.786   3.518  0.1507 -0.1301 -0.3882
31078W        W46887   9.795  10.237   2.995 -0.0946  0.1899 -0.1751
31079W        W46888  15.307  13.528  11.941 -0.0823  0.1089  0.3045
31080W        W46889  13.559   7.902  12.973  0.2028 -0.0000  0.0415
31081W        W46890  16.346   1.448   4.622 -0.2415  0.1121 -0.0756
31082W        W46891   5.585   4.337   0.523 -0.1526 -0.2050 -0.0234
31083W        W46892   4.902  14.620  14.334  0.3277 -0.2636  0.1736
31084W        W46893   9.894  14.430   3.226 -0.1083 -0.0176  0.1325
31085W        W46894  15.608  17.001  15.756  0.1037 -0.2970  0.2454
31086W        W46895   3.017   4.065   0.477 -0.1613  0.2102 -0.0020
31087W        W46896  11.849  10.065   3.045  0.2594  0.0803 -0.0043
31088W        W46897   2.462  11.396  13.854  0.0208  0.1927 -0.1776
31089W        W46898   2.808   9.397   3.084  0.0935  0.0525  0.2163
31090W        W46899   2.091  17.447  11.479  0.0038  0.0627  0.0193
31091W        W46900   9.210   2.740  15.116 -0.0775  0.0752  0.2342
31092W        W46901  16.794   5.824   0.455  0.1068  0.1361  0.5109
31093W        W46902  14.175   5.754   6.017  0.1222 -0.0718  0.1657
31094W        W46903  14.322  12.373   4.087 -0.0487  0.0159  0.0618
31095W        W46904   6.948   8.277   2.182 -0.0245 -0.0513 -0.0922
31096W        W46905   2.976   6.525   6.382 -0.0039  0.0167  0.0340
31097W        W46906  17.432  10.645   4.969 -0.2051 -0.0473 -0.0930
31098W        W46907   8.408  15.885  12.022 -0.1267  0.2957  0.0242
31099W        W46908  10.870   5.599   5.307  0.3002 -0.1351 -0.0528
31100W        W46909   1.073   0.968  13.259  0.2656  0.0508  0.4431
31101W        W46910   2.445   6.887   1.521 -0.2376 -0.1743  0.1992
31102W        W46911   9.485   3.314   3.808 -0.1038  0.2242 -0.1298
31103W        W46912  12.796  13.199   2.129 -0.1889  0.0463 -0.2227
31104W        W46913   0.118   7.615   4.333 -0.1562 -0.1705 -0.0982
31105W        W46914   3.717   7.689  14.608  0.0160 -0.1505 -0.0265
31106W        W46915  15.214   0.878   4.575 -0.0070 -0.0476 -0.0725
31107W        W46916   6.271   8.160   5.635  0.3618 -0.1575 -0.3013
31108W        W46917  14.541  13.108   5.529  0.0607  0.1372 -0.1839
31109W        W46918  16.221   0.424   5.270 -0.1007 -0.3812  0.1701
31110W        W46919  10.786  14.879  15.882 -0.1477  0.2122 -0.0495
31111W        W46920  14.975   7.423  13.298 -0.2562 -0.0579 -0.0226
31112W        W46921   2.344   0.408  11.764  0.5842 -0.1660  0.0955
31113W        W46922  17.171  12.246   1.193  0.2093  0.0156 -0.2656
31114W        W46923  10.708  16.204   5.224 -0.1287  0.1883 -0.0319
31115W        W46924   1.176  11.180  16.676  0.0327  0.0149  0.0827
31116W        W46925   5.795   0.467  15.075 -0.0288  0.0382  0.0775
31117W        W46926  10.976   0.244   2.332  0.1313  0.3536 -0.1549
31118W        W46927   1.915  16.255   3.480  0.0181 -0.0580 -0.3750
31119W        W46928  12.959   2.442  16.847  0.0308  0.2503 -0.1450
31120W        W46929   9.097  12.572   1.980  0.0164  0.3351  0.0601
31121W        W46930   1.672   5.171   0.748 -0.0196  0.1206 -0.0248
31122W        W46931  14.229   9.169  13.505  0.0180  0.1559  0.0543
31123W        W46932   3.931   2.259  12.190 -0.2349  0.3474  0.1031
31124W        W46933   4.108   5.764   5.572 -0.1802 -0.1771 -0.0108
31125W        W46934  11.779   8.438  13.335  0.2165 -0.2506  0.2395
31126W        W46935  11.909   0.929   2.850 -0.1489 -0.0421  0.0515
31127W        W46936   9.988  13.814  14.327 -0.3327  0.1650 -0.1953
31128W        W46937  16.071   7.673   4.127 -0.1403  0.1326 -0.3109
31129W        W46938  10.561  11.964   2.659 -0.0411 -0.1852 -0.3565
31130W        W46939   7.195   7.891   4.920  0.1336 -0.4403  0.0112
31131W        W46940  17.545  12.940   2.619 -0.1674 -0.0229 -0.1106
31132W        W46941  15.349   6.745  12.865  0.0889  0.2538  0.2180
31133W        W46942   4.872  11.026  16.934  0.1764 -0.0198 -0.2264
31134W        W46943   9.712   2.663   3.761  0.2423  0.3575 -0.1128
31135W        W46944   8.126  12.359  11.224  0.2180 -0.1048 -0.0932
31136W        W46945  13.526  15.548   3.193 -0.2122  0.2271 -0.1257
31137W        W46946  14.849   5.199   3.273  0.0249  0.1738  0.0094
31138W        W46947  10.914   9.005  13.134 -0.2919  0.4078  0.1662
31139W        W46948   2.711   3.938  16.581 -0.0676  0.1191 -0.0206
31140W        W46949  15.293  14.576   3.135  0.0814 -0.1341  0.0856
31141W        W46950  14.567  13.867  12.807  0.1297 -0.1574 -0.0249
31142W        W46951   8.647   4.989  13.973  0.1054 -0.1215 -0.1062
31143W        W46952   3.478  12.802   3.836 -0.1640 -0.0864  0.0182
31144W        W46953   8.373   7.439  13.944 -0.1443  0.1913 -0.0281
31145W        W46954  16.975   0.402  15.303 -0.0587  0.0973  0.1533
31146W        W46955   6.716  16.896  11.205  0.1332  0.1813 -0.1893
31147W        W46956  13.118  10.986  16.508 -0.4785 -0.0885  0.3506
31148W        W46957  12.982   3.788  14.342 -0.0351  0.2117  0.0832
31149W        W46958   9.414  12.404  16.208  0.1349  0.3538  0.1198
31150W        W46959   4.589   6.744   2.895 -0.2345  0.0602 -0.0645
31151W        W46960   5.509   0.709   2.947  0.0625 -0.5319  0.3781
31152W        W46961   6.193   5.348   3.523 -0.4219  0.0867 -0.4453
31153W        W46962   1.759   2.978   3.928  0.0002  0.2195  0.0505
31154W        W46963  16.250  16.490  11.795 -0.0439 -0.1326 -0.0172
31155W        W46964  11.210  12.081   3.664 -0.0023 -0.1199 -0.2860
31156W        W46965   2.565   9.743   3.608  0.0175  0.0398  0.1492
31157W        W46966   7.418   9.901   5.783  0.0050 -0.2167 -0.0084
31158W        W46967   4.779   3.399  15.651 -0.0323  0.0730  0.1401
31159W        W46968  15.210  10.980   2.195 -0.0597  0.1528 -0.0548
31160W        W46969  10.858   3.802  13.706 -0.1636 -0.1742  0.0104
31161W        W46970   0.010  12.387   5.111 -0.0287  0.2617 -0.1076
31162W        W46971  13.050   0.876   1.646 -0.1402  0.2209  0.1016
31163W        W46972   3.791   8.175   5.523  0.0078 -0.5405  0.0331
31164W        W46973   0.685  13.216  14.375 -0.3612 -0.0713 -0.0845
31165W        W46974  12.607   3.755  14.000 -0.3588  0.1117 -0.2324
31166W        W46975  17.639  11.249   0.383  0.1277  0.2152  0.0181
31167W        W46976   6.589  10.679  16.379 -0.0139  0.2250 -0.0761
31168W        W46977   4.345   5.463   5.946 -0.0618 -0.1262  0.1343
31169W        W46978   9.826   9.030   4.344 -0.0230 -0.2855  0.1224
31170W        W46979   6.162  13.583  14.064 -0.1429  0.1284  0.1149
31171W        W46980   3.203  15.904  14.350  0.2026 -0.1504  0.2816
31172W        W46981   5.236   7.899   0.461 -0.0376 -0.0812  0.3667
31173W        W46982   5.625  11.795  13.029 -0.1402  0.3704  0.1850
31174W        W46983  10.778   8.260   0.929 -0.0361  0.2851 -0.3087
31175W        W46984  10.639  16.093   2.441  0.1296  0.2010  0.0638
31176W        W46985  17.609  17.300  11.402 -0.0394 -0.2900  0.1451
31177W        W46986  13.066   4.869  14.218 -0.0048 -0.3051 -0.0066
31178W        W46987  15.538   5.561   2.765 -0.0593 -0.0458  0.2778
31179W        W46988   2.137  11.301   3.703  0.0579 -0.0134 -0.1628
31180W        W46989  17.548  10.816  12.280 -0.1885  0.2155 -0.3285
31181W        W46990  14.199   6.239   6.238 -0.1027  0.1214  0.1746
31182W        W46991   1.183   0.748   4.532  0.0547  0.1832  0.1363
31183W        W46992   1.931  14.137  13.624 -0.0287 -0.2409  0.1203
31184W        W46993   1.146   7.456  13.889  0.0247  0.3247  0.1197
31185W        W46994  14.942  14.158  13.359  0.3968 -0.1643  0.1109
31186W        W46995  11.400   0.710   2.227 -0.0357 -0.0402  0.1039
31187W        W46996   2.224   2.267  16.936  0.0369 -0.0872 -0.0114
31188W        W46997   4.512   9.711   4.647 -0.1460  0.4142  0.0882
31189W        W46998   0.912  14.271   4.466 -0.1774 -0.4542 -0.1540
31190W        W46999  10.051   3.383  14.277  0.1921 -0.1648 -0.2096
31191W        W47000   8.583  12.650  14.650 -0.4262 -0.1484  0.0055
31192W        W47001   4.163  14.216   2.221 -0.2361  0.0203 -0.2158
31193W        W47002  10.222   5.963  12.013 -0.2015  0.2374 -0.0488
31194W        W47003   6.933   3.192  15.317 -0.0654  0.1067 -0.0261
31195W        W47004  13.826   7.696  13.384 -0.1284  0.2552 -0.0162
31196W        W47005   3.736   6.306  13.507  0.0282  0.0301  0.0153
31197W        W47006  10.218   6.328  13.655  0.3760 -0.0075 -0.2675
31198W        W47007  15.428   0.808   1.965  0.0704 -0.0203 -0.1974
31199W        W47008   0.821  15.920  12.739  0.1342  0.1506 -0.1646
31200W        W47009   9.393   1.297   5.251  0.1274 -0.0882 -0.0130
31201W        W47010   7.925  10.228  15.381  0.0589  0.1642 -0.1743
31202W        W47011  12.198   9.076  15.746 -0.1415 -0.2685 -0.0826
31203W        W47012   6.798  10.088   3.904  0.1930 -0.0690 -0.0143
31204W        W47013  11.355   7.453   5.872  0.3079  0.2347  0.0376
31205W        W47014   6.208   2.155  16.032  0.2655 -0.1288  0.0757
31206W        W47015  10.101   1.620   2.598 -0.1950 -0.1520 -0.1920
31207W        W47016   7.716   0.335  15.915 -0.1271  0.4183  0.0965
31208W        W47017  16.452  15.040   4.450 -0.0763 -0.3503  0.2624
31209W        W47018   9.991   4.106  16.623 -0.0950  0.0618  0.2514
31210W        W47019   6.634   6.574  14.044 -0.1945  0.0442 -0.0609
31211W        W47020  14.903  17.370   1.009  0.0620  0.2979  0.1577
31212W        W47021  14.416   7.507  12.018 -0.0403  0.0513  0.1604
31213W        W47022  14.993   7.658  12.858 -0.3220  0.1961  0.0662
31214W        W47023  12.004   6.122   3.418  0.0714  0.1491  0.1635
31215W        W47024  12.527   8.988  12.943 -0.0040  0.0238 -0.1201
31216W        W47025   1.217   4.566   3.934  0.1501  0.0365 -0.0712
31217W        W47026  12.730   8.315   5.352 -0.1241 -0.0092 -0.0084
31218W        W47027  13.816  14.854   0.022 -0.0440  0.0582 -0.2094
31219W        W47028   2.384  17.113  12.633  0.1081  0.0251  0.1661
31220W        W47029   2.728  16.195   4.102 -0.0367 -0.1285  0.0902
31221W        W47030   0.835   1.600   4.119 -0.0220 -0.0353  0.1241
31222W        W47031  11.530   3.400   0.465 -0.0537  0.0370 -0.0185
31223W        W47032   9.243   6.188   2.514 -0.0176  0.1161  0.1877
31224W        W47033   5.243   8.347   3.673 -0.0318  0.1519  0.1837
31225W        W47034  14.768  12.561  15.311 -0.3439 -0.0338  0.0274
31226W        W47035   1.603  13.310   5.855  0.1102  0.0018  0.0076
31227W        W47036   6.932   6.065  14.668  0.4009 -0.0346  0.0853
31228W        W47037   3.061  12.632  15.917  0.0699 -0.1060  0.0706
31229W        W47038   1.377  13.171  11.785  0.1747 -0.1316 -0.0907
31230W        W47039   0.147   1.840   5.541 -0.1515 -0.2598 -0.1120
31231W        W47040  14.422   6.865  13.113 -0.2190  0.0645  0.0342
31232W        W47041   2.776  11.228   2.781 -0.1835 -0.1094  0.1991
31233W        W47042   3.954  14.967  12.696  0.0374 -0.1076  0.3070
31234W        W47043   7.722  12.044   4.061  0.0301  0.2676  0.0842
31235W        W47044  16.125  13.427  15.628  0.2781  0.2299  0.0464
31236W        W47045   2.008   1.186  11.542 -0.1654  0.1013  0.3762
31237W        W47046  15.288   4.515  13.279 -0.0965 -0.1557 -0.0273
31238W        W47047  11.554   6.308   5.076  0.0711 -0.0926  0.0889
31239W        W47048   2.155   0.516  12.233 -0.0492 -0.2130 -0.0440
31240W        W47049  15.071   0.447   1.769 -0.1518 -0.1641  0.0586
31241W        W47050  10.003   0.524  12.698  0.1921  0.1183  0.1564
31242W        W47051  10.597  10.358  12.568 -0.1050 -0.1276 -0.0096
31243W        W47052  15.172  13.837  16.707 -0.0743 -0.2007  0.0259
31244W        W47053   1.294   4.834  15.570  0.2881 -0.1293 -0.2457
31245W        W47054   8.755  15.255   5.780 -0.2764 -0.1178 -0.0074
31246W        W47055   9.305  14.648  10.821 -0.0141  0.0094  0.3694
31247W        W47056  12.610   3.969   1.633 -0.2414 -0.1138  0.1391
31248W        W47057   4.201  10.562   0.973 -0.1202 -0.0064 -0.0637
31249W        W47058   3.347   6.798  16.325  0.2855 -0.0351 -0.0163
31250W        W47059   8.441   2.501   3.709  0.0150 -0.2958  0.0357
31251W        W47060  12.071  11.218   6.495 -0.1758  0.0019 -0.0142
31252W        W47061  17.661   4.940  14.505  0.0316  0.1175  0.1426
31253W        W47062   5.945  12.732   0.022  0.1338 -0.0390 -0.1419
31254W        W47063   1.178   4.003  14.154  0.1086 -0.2074  0.0655
31255W        W47064   5.546   5.911  13.737 -0.1195 -0.2089  0.0161
31256W        W47065  14.682   0.775  11.643  0.3236 -0.0668  0.3194
31257W        W47066   6.367  13.841  15.204 -0.3334 -0.2562  0.1059
31258W        W47067   6.252   4.402  11.173 -0.0628 -0.1533 -0.0107
31259W        W47068  14.327   0.833  14.962  0.0867 -0.2281  0.0198
31260W        W47069   1.294   9.413   3.060  0.2678 -0.0440 -0.1387
31261W        W47070  17.140   7.372   3.023  0.0391 -0.1203  0.3398
31262W        W47071  14.607   5.385  15.421  0.3324 -0.1804 -0.0026
31263W        W47072  16.449  10.895   5.263 -0.0160 -0.0862 -0.0229
31264W        W47073   5.104  14.648   3.048  0.2094  0.1868  0.3550
31265W        W47074  15.213   8.175  12.260  0.2848  0.0590 -0.0997
31266W        W47075  14.842   0.339   0.255  0.0184 -0.1949  0.2523
31267W        W47076   7.891   7.753  13.325  0.1327 -0.0666 -0.1299
31268W        W47077   5.093  15.085   3.644  0.0265  0.1615  0.4991
31269W        W47078   8.693  16.188  16.398  0.0156 -0.1763  0.0178
31270W        W47079   9.289   1.144  15.845  0.0096  0.2225 -0.0542
31271W        W47080  12.671   2.243  13.814 -0.0257 -0.2184 -0.3247
31272W        W47081  13.645   9.154   3.052 -0.1344  0.1824  0.4830
31273W        W47082   9.420  13.229   0.908  0.0682  0.2067  0.1737
31274W        W47083   0.108  15.429  11.935  0.0792 -0.0276 -0.2571
31275W        W47084  16.302   6.303  16.413 -0.0542 -0.0054 -0.0829
31276W        W47085   9.074  12.516  12.573 -0.2120  0.0672 -0.1212
31277W        W47086  14.193  13.810  13.733  0.2899 -0.4335  0.0224
31278W        W47087  14.933   2.008   0.707  0.3899 -0.0193  0.0127
31279W        W47088   2.015   1.263  12.034 -0.1342 -0.1011  0.0259
31280W        W47089   8.345  11.581  11.232  0.0028  0.1850 -0.0691
31281W        W47090   6.123   5.932  16.936 -0.0590  0.3537  0.0039
31282W        W47091   8.387   5.010  13.449  0.2670 -0.1134  0.0862
31283W        W47092   4.788  15.519  14.576 -0.2912  0.2476 -0.1643
31284W        W47093   7.034   0.500  11.230  0.1248  0.3082  0.1645
31285W        W47094   0.020   3.663  13.628 -0.2393 -0.3640 -0.1126
31286W        W47095   9.693   4.023   3.177 -0.3441 -0.0551 -0.1049
31287W        W47096   1.440   8.187   3.415 -0.0147  0.0738  0.0403
31288W        W47097  12.129  14.039  12.770 -0.2137 -0.3144  0.0047
31289W        W47098   0.639   6.101   1.924  0.1325 -0.3272 -0.0508
31290W        W47099  16.110   4.851   4.896 -0.0530 -0.1308 -0.0598
31291W        W47100  12.125   1.525   1.265 -0.0212 -0.0672  0.1001
31292W        W47101   4.944  14.787  16.676  0.3147  0.0286  0.0880
31293W        W47102  11.111   7.735   6.448  0.1139 -0.0097  0.1380
31294W        W47103  14.914  12.095  15.782 -0.2714 -0.2266  0.0973
31295W        W47104   0.936  14.942  12.653  0.0403 -0.1995 -0.3428
31296W        W47105  16.702  13.173   4.970  0.0578 -0.2030 -0.0899
31297W        W47106   1.119   4.485  15.258  0.0461 -0.1184  0.1883
31298W        W47107  11.088   5.386  11.055 -0.0007 -0.0339 -0.0857
31299W        W47108  14.530  17.734   3.871 -0.0850 -0.0713  0.1290
31300W        W47109  15.893  12.709   3.247  0.0670 -0.2243  0.1423
31301W        W47110  16.966  16.022   1.233  0.0076 -0.2800  0.1986
31302W        W47111   1.562   6.049   5.527 -0.1419  0.0055  0.1635
31303W        W47112  13.368   7.405   5.584  0.1861 -0.0850 -0.1404
31304W        W47113   0.136   7.415   2.735  0.0796 -0.1436 -0.2981
31305W        W47114  16.135  11.247  12.780  0.0770 -0.1147  0.4334
31306W        W47115  12.046   1.794  15.222  0.1477  0.2054  0.2858
31307W        W47116   7.945   2.613  16.344 -0.2493 -0.1987  0.3182
31308W        W47117  17.440  10.301   1.585 -0.2087 -0.1953  0.1143
31309W        W47118   4.706   1.202  12.293 -0.1232  0.1334 -0.2405
31310W        W47119  14.367  12.240   4.610  0.1111  0.1317  0.2504
31311W        W47120   3.877   1.264  15.797 -0.0798 -0.1788  0.2122
31312W        W47121   2.068   8.376  13.444  0.2134  0.1257 -0.1098
31313W        W47122   6.884  10.235   5.269 -0.2230 -0.1380 -0.0751
31314W        W47123   2.986   0.681  11.693  0.3487  0.3435  0.0481
31315W        W47124  11.676  16.953  13.430 -0.3088  0.0021 -0.0877
31316W        W47125  10.629  11.523  14.473 -0.0604 -0.0228 -0.0290
31317W        W47126   9.394   1.697  14.611 -0.1435  0.1941  0.1247
31318W        W47127   4.409   2.079   4.875  0.0771  0.0858  0.3533
31319W        W47128  16.011   3.447   0.013  0.2639  0.3084  0.3098
31320W        W47129   0.017  10.386   4.701 -0.1990  0.1382  0.0584
31321W        W47130  14.488  14.050  14.132 -0.0437 -0.0900 -0.3687
31322W        W47131  11.575  12.088   4.078 -0.1449  0.0587  0.1496
31323W        W47132   0.193   7.977  15.925 -0.1360 -0.1004  0.0239
31324W        W47133   7.807  15.069   5.461 -0.4872 -0.0719 -0.0519
31325W        W47134  15.298  10.155  16.792  0.1553  0.3967  0.1050
31326W        W47135  14.529   7.935   3.552  0.0468 -0.3322  0.0628
31327W        W47136   7.141   4.598   4.071  0.2258 -0.0107  0.2595
31328W        W47137   8.613   4.519   3.075  0.0160  0.1311  0.0493
31329W        W47138  13.628   4.820  14.434  0.1098 -0.2110  0.2064
31330W        W47139   1.031   3.168  15.042  0.2834  0.1152 -0.0469
31331W        W47140  13.102  11.828  16.541 -0.0988  0.2771 -0.1587
31332W        W47141  14.804   2.109  11.947  0.0205 -0.0824  0.2161
31333W        W47142   5.909  13.279   0.871 -0.1518 -0.2479  0.0612
31334W        W47143  13.822  14.864  13.644  0.4142  0.0460  0.1031
31335W        W47144  10.631   3.455   0.695 -0.0139 -0.0271  0.1841
31336W        W47145   3.396   6.753   5.181 -0.1560  0.0996  0.0963
31337W        W47146   8.139   7.992   5.684  0.1496 -0.1915 -0.1970
31338W        W47147   7.461  13.084  13.897 -0.0286 -0.0368 -0.3276
31339W        W47148   8.011  16.530  12.531  0.0662 -0.0812  0.0533
31340W        W47149  17.719  16.708   5.065 -0.0694  0.0543  0.2569
31341W        W47150   2.907   0.620   2.829 -0.0861 -0.0011  0.0414
31342W        W47151  15.075   1.370  13.106 -0.2303 -0.2294 -0.2269
31343W        W47152  10.815  10.411  15.495  0.0280 -0.1429 -0.1050
31344W        W47153  14.848   4.883  12.564  0.1088 -0.0225 -0.1498
31345W        W47154  15.789  15.988   4.667  0.0386  0.0709 -0.0864
31346W        W47155  14.219   6.686   0.028  0.1821 -0.1133 -0.2693
31347W        W47156   3.729  13.714   4.779 -0.2524 -0.0799 -0.2196
31348W        W47157   7.221   4.225   3.054  0.2265 -0.1112 -0.0027
31349W        W47158   9.941  14.346  14.408 -0.0446 -0.2434 -0.1864
31350W        W47159   5.579   6.767  14.021  0.0828 -0.0092 -0.2611
31351W        W47160   4.710  17.685   4.583 -0.0035  0.3822  0.1831
31352W        W47161   2.851  14.632   0.703  0.0848  0.1986 -0.0100
31353W        W47162   2.880  16.195   1.792 -0.0446  0.0717  0.0658
31354W        W47163  15.946   1.904  13.003  0.0149 -0.2005 -0.1565
31355W        W47164  12.720  11.620   3.484  0.0076 -0.0887 -0.1584
31356W        W47165   4.451  17.140  14.844  0.2032 -0.0272  0.4159
31357W        W47166  14.277   6.181   0.267  0.2463  0.1146 -0.0410
31358W        W47167  14.210   5.016   2.934  0.2860  0.1862  0.1811
31359W        W47168   4.301  14.120   0.360 -0.0753  0.2829 -0.4999
31360W        W47169   7.639   3.680   2.688  0.0948 -0.1496 -0.1341
31361W        W47170   0.427  16.315   0.531  0.2382 -0.1807  0.2185
31362W        W47171   3.712  10.247  12.388  0.5433 -0.2923  0.1630
31363W        W47172  15.762   3.163  12.289 -0.1628 -0.0548  0.0759
31364W        W47173   9.326   5.006  13.730 -0.0535  0.1008 -0.2052
31365W        W47174  16.858   2.715   4.749 -0.2812 -0.2168 -0.0202
31366W        W47175   0.209  11.799  16.830  0.0810 -0.2058 -0.1081
31367W        W47176   4.917  14.478   5.495  0.1568  0.5311 -0.3370
31368W        W47177  12.866  10.794   4.115  0.0340  0.1183 -0.1930
31369W        W47178  11.302   2.627   3.975 -0.2736  0.4195 -0.0237
31370W        W47179  17.215  13.862   2.935 -0.1802  0.0400 -0.3511
31371W        W47180   4.831   5.064   1.507  0.0456  0.0701  0.0771
31372W        W47181   5.184   9.713   5.674 -0.0628  0.0846 -0.0295
31373W        W47182   7.363  13.323  10.469 -0.0281  0.5040  0.1631
31374W        W47183  15.681   6.687  15.920  0.1808 -0.0314 -0.1990
31375W        W47184   9.755  14.752   2.476  0.1599  0.0876 -0.0520
31376W        W47185   6.210   6.499  15.142  0.1041 -0.3741 -0.2860
31377W        W47186  16.914   8.626  16.136  0.2312 -0.3341  0.2358
31378W        W47187   3.500  15.956  13.671  0.0696  0.2239 -0.0496
31379W        W47188   8.895   2.147  16.427  0.3227 -0.0486  0.0906
31380W        W47189  11.991   2.371  13.852 -0.0013  0.2107 -0.0659
31381W        W47190   7.735   7.777   5.022  0.2762 -0.0120 -0.1484
31382W        W47191  11.633  17.638  13.952  0.2778  0.1483 -0.1502
31383W        W47192  10.479  16.071   2.928  0.0439 -0.2371  0.0576
31384W        W47193  13.100   2.078   0.335 -0.0184 -0.0028  0.0191
31385W        W47194  17.352   8.275   2.689  0.4997  0.1224  0.1521
31386W        W47195   7.402  11.567   0.039 -0.1514  0.0712  0.1668
31387W        W47196   2.153  13.152   4.984 -0.0407 -0.0232 -0.0934
31388W        W47197  10.727   2.519  16.673 -0.0094  0.0365 -0.1730
31389W        W47198  14.776  14.093   1.937 -0.0853  0.1655 -0.2831
31390W        W47199   0.110   0.410   0.501  0.1846 -0.2280  0.0949
31391W        W47200   7.363   8.671  11.850 -0.1688 -0.2226 -0.1456
31392W        W47201   7.324  16.129  14.411  0.0779 -0.0034  0.2933
31393W        W47202   0.605   1.453  15.072 -0.0794 -0.0053  0.0170
31394W        W47203   3.744  14.844   5.063  0.2874 -0.0292 -0.2819
31395W        W47204   4.321  11.254   3.058 -0.2658 -0.1182  0.0540
31396W        W47205  15.383   1.593  16.312  0.0959 -0.0162  0.1041
31397W        W47206   0.739  10.102   3.673  0.0358 -0.3669 -0.4406
31398W        W47207  10.820  15.341  16.014  0.0146  0.0236  0.0197
31399W        W47208  16.371   0.567   2.472 -0.2002 -0.1044  0.1547
31400W        W47209  12.111  16.441  14.911 -0.2276 -0.0673  0.0093
31401W        W47210  16.624   5.281   1.738 -0.0468 -0.0582 -0.0011
31402W        W47211   9.046  15.004  11.253  0.2240  0.2785  0.2852
31403W        W47212   1.580  14.804  11.428 -0.1233  0.1172 -0.0296
31404W        W47213  13.281  11.505   4.366 -0.1114 -0.3223 -0.0725
31405W        W47214  11.526   6.939   5.746  0.2124  0.3081  0.1622
31406W        W47215   3.115   2.338  12.236 -0.0106 -0.1829  0.1444
31407W        W47216   7.051   5.769   3.108 -0.0701  0.0019 -0.4027
31408W        W47217   4.191  16.369  10.856 -0.0028 -0.1367 -0.0127
31409W        W47218  17.687  14.270  13.773  0.1126  0.2490 -0.2304
31410W        W47219   6.539   0.710   5.468 -0.2481  0.2129 -0.3139
31411W        W47220  16.768   4.693   1.288  0.1052  0.1635 -0.0189
31412W        W47221   9.659   0.479  15.660 -0.1714 -0.0070 -0.0212
31413W        W47222   7.674  12.599   2.094 -0.0053 -0.0096 -0.1742
31414W        W47223   6.674   6.289  15.020  0.0499  0.0671  0.1853
31415W        W47224   0.336  15.117  12.642  0.1115  0.0830  0.0575
31416W        W47225   6.558  11.556   3.180 -0.1410 -0.0615 -0.1628
31417W        W47226  17.162   0.460   2.176  0.3214  0.0624  0.0497
31418W        W47227  14.216   4.074   1.694 -0.0904  0.0586  0.0491
31419W        W47228   4.179   6.507  14.093  0.2108  0.1709  0.1811
31420W        W47229  15.584  12.022   0.123  0.0424  0.2736  0.0951
31421W        W47230  13.386  14.203  15.523  0.0920 -0.0295  0.1189
31422W        W47231  11.145  16.495   0.437 -0.3323  0.0960 -0.3929
31423W        W47232   9.079   7.263  13.175 -0.1030  0.0436 -0.2831
31424W        W47233   6.741   4.458   3.320 -0.1217 -0.1383  0.0635
31425W        W47234  13.490  10.305  15.560 -0.1779  0.0321 -0.0612
31426W        W47235  16.830  10.463   4.733 -0.0388  0.2739  0.1598
31427W        W47236   5.252   3.235   6.602 -0.1605 -0.3539  0.1947
31428W        W47237  12.242   7.668  12.399  0.0644  0.0088  0.0874
31429W        W47238  12.952  10.572   4.608 -0.1821 -0.0770  0.1892
31430W        W47239   8.071  15.667  13.817  0.2028 -0.1432  0.2097
31431W        W47240   8.444  17.666   2.305 -0.0173  0.0884 -0.1752
31432W        W47241   6.294   5.583   5.481 -0.1080  0.0797  0.2967
31433W        W47242   4.867   5.239  15.797 -0.3196  0.1800 -0.0608
31434W        W47243  17.686   7.811  16.789  0.0490 -0.1408  0.0175
31435W        W47244  10.077   7.611  15.280  0.0328 -0.2354  0.2085
31436W        W47245  12.263   5.614  13.215 -0.0694  0.0328 -0.1750
31437W        W47246   0.889  13.039  16.355  0.2443  0.1918 -0.0300
31438W        W47247  13.131  11.004   4.475 -0.1361  0.1095  0.0764
31439W        W47248  14.926  15.666  13.124 -0.2208 -0.0110 -0.1772
31440W        W47249  12.994   3.073   2.867  0.2840 -0.3897 -0.2739
31441W        W47250  10.358   1.849  13.929 -0.2536  0.3471 -0.2381
31442W        W47251  10.992   2.758  16.018  0.0415  0.1422 -0.0180
31443W        W47252  10.116  10.789   0.436 -0.1454  0.2136  0.0708
31444W        W47253   1.618  11.319   3.708  0.0475  0.1772 -0.0463
31445W        W47254   4.456  12.490   0.010  0.1996  0.2240  0.2318
31446W        W47255  16.745   4.313   4.037 -0.3532  0.0546  0.2552
31447W        W47256   3.171   4.872  13.204 -0.1425 -0.1460  0.2034
31448W        W47257  11.133  13.512   4.250 -0.0542 -0.1837 -0.1262
31449W        W47258  16.333  17.042   0.830  0.3415  0.0521 -0.0254
31450W        W47259   0.125   7.628  13.984  0.0887  0.1264  0.2037
31451W        W47260   6.661   7.667  14.048 -0.0008 -0.0784  0.0082
31452W        W47261  12.854   6.904   2.093 -0.1029 -0.0353 -0.0351
31453W        W47262  12.502   8.365   2.096  0.1486  0.0511 -0.3286
31454W        W47263  17.223  17.253  10.477  0.1689  0.1544 -0.2982
31455W        W47264   3.592  13.177  13.739  0.2014  0.0297  0.1102
31456W        W47265  13.268   4.627  15.125  0.0463  0.1751  0.0827
31457W        W47266  14.387   2.901  15.310  0.0019 -0.0922  0.2698
31458W        W47267  10.484   6.189  14.138  0.3580 -0.0129 -0.2543
31459W        W47268   3.055  14.675   3.872  0.0265  0.1153  0.4794
31460W        W47269   9.499  12.053  13.404  0.0620  0.0838  0.2405
31461W        W47270  12.769  15.985   2.062  0.1439  0.4945  0.1598
31462W        W47271  13.180  15.965   2.355 -0.1134 -0.1465 -0.2295
31463W        W47272   9.284   3.608   4.148 -0.2991 -0.2117  0.0506
31464W        W47273  15.271  12.658   6.549 -0.0524 -0.1226  0.0227
31465W        W47274   7.999  15.379   4.928  0.1039  0.4878  0.3143
31466W        W47275  12.755  10.265  11.649  0.1516 -0.2528 -0.2736
31467W        W47276  12.007  14.515  13.188 -0.3597  0.0374  0.1215
31468W        W47277  10.126   2.936   0.287  0.4698 -0.0999  0.1876
31469W        W47278  15.035   3.157  13.869 -0.1653  0.0475 -0.0069
31470W        W47279   0.396   5.836   3.152 -0.2123  0.0282 -0.1321
31471W        W47280  16.870   2.925   1.917  0.2648 -0.4908 -0.2382
31472W        W47281  11.156   1.933  13.741  0.0649  0.0403  0.1390
31473W        W47282  16.632   3.756  12.652 -0.0877 -0.2364 -0.4277
31474W        W47283  17.195   4.921   1.132 -0.1064 -0.0942  0.0896
31475W        W47284   1.539   3.206   2.679  0.3143 -0.0174 -0.4773
31476W        W47285   7.777  15.627  16.187 -0.1006 -0.1413  0.0862
31477W        W47286   1.257   2.326   5.526 -0.4841 -0.2001 -0.2002
31478W        W47287   6.805   0.854   1.678  0.2662  0.1150 -0.0427
31479W        W47288   6.472   1.904  14.086 -0.1454 -0.2817  0.0906
31480W        W47289   3.603   1.695  13.546 -0.0672 -0.0918 -0.3605
31481W        W47290   3.924  12.853   4.011 -0.1302  0.3205 -0.3662
31482W        W47291  10.531  15.914  15.997 -0.0298  0.1224  0.1262
31483W        W47292   9.494  12.199  13.838  0.0161  0.1331 -0.0212
31484W        W47293  16.580  11.475  11.469  0.0230  0.1083  0.4485
31485W        W47294  12.385   2.224  14.258  0.0123 -0.1055  0.4226
31486W        W47295   3.689   9.950   4.310  0.1426 -0.1688 -0.2315
31487W        W47296   1.194  13.008   2.448  0.0404 -0.2184  0.0411
31488W        W47297  15.095   0.611  14.355 -0.0979  0.0915  0.0066
31489W        W47298  14.681  16.515  13.086 -0.1064 -0.0157 -0.0594
31490W        W47299  16.717   0.843  11.819 -0.0920  0.0054 -0.2050
31491W        W47300  16.704  14.163   3.058 -0.1820 -0.2274  0.1518
31492W        W47301  17.041   4.386   5.989 -0.0530  0.1774  0.0074
31493W        W47302   4.089   9.006   0.711 -0.2541 -0.1709 -0.0441
31494W        W47303   1.281   4.879   3.074  0.0460 -0.1470 -0.0343
31495W        W47304  14.597   7.851  12.353 -0.2319 -0.1210 -0.1724
31496W        W47305  10.808   1.052  15.303 -0.1544 -0.0538  0.2011
31497W        W47306   7.420   0.078   3.854 -0.3030 -0.1468 -0.1062
31498W        W47307   7.332  14.142   0.144  0.2395  0.0521  0.0470
31499W        W47308  12.879  11.889   1.447  0.1493  0.0268 -0.0628
31500W        W47309  13.802   7.701   4.399  0.2503  0.2603 -0.0627
31501W        W47310   1.804  11.208  15.086  0.0487  0.0138  0.0663
31502W        W47311  11.053  10.215   2.980 -0.0070 -0.1011 -0.0490
31503W        W47312   3.157  15.454   3.400 -0.0150  0.3742 -0.1424
31504W        W47313  13.714  15.483  12.826  0.4950  0.0697  0.0253
31505W        W47314   0.956   9.364  11.904 -0.1081  0.3464 -0.3764
31506W        W47315   1.453   8.517  15.974 -0.0833 -0.1874 -0.0871
31507W        W47316   4.650   4.887   2.859  0.2405 -0.4826 -0.0166
31508W        W47317  17.538   4.979   1.568 -0.1933  0.2272  0.3104
31509W        W47318  11.447   2.951  14.856  0.0375  0.0692 -0.1678
31510W        W47319   7.291  14.027   2.074  0.3935  0.1477  0.0127
31511W        W47320   7.209  16.492  11.165 -0.0448 -0.0195 -0.1552
31512W        W47321   1.989   1.301   3.436 -0.1604  0.3640 -0.1427
31513W        W47322   7.259  12.793  15.763 -0.5084 -0.2022 -0.0217
31514W        W47323   8.724   2.339   4.149 -0.0799 -0.3412  0.3062
31515W        W47324  13.531  12.227   5.783  0.4093  0.0407  0.1835
31516W        W47325   8.547   5.277   1.394 -0.0956 -0.2890 -0.1066
31517W        W47326   3.424   2.405  13.192  0.2525  0.1029 -0.0620
31518W        W47327   7.789  11.414  12.746  0.2282  0.2628 -0.1122
31519W        W47328   2.115   9.921   4.494 -0.0797  0.1655 -0.0161
31520W        W47329  16.279  11.633  16.473  0.1469  0.1445 -0.0093
31521W        W47330   2.358  10.329   5.655 -0.0121  0.2618  0.1829
31522W        W47331  13.379   3.543   5.241  0.0112  0.1873 -0.1898
31523W        W47332   1.168   0.355   3.584  0.3892 -0.0967 -0.0012
31524W        W47333  15.071  14.045  14.461  0.0706 -0.1534  0.1659
31525W        W47334   0.211  10.461  14.736 -0.2243  0.2187 -0.0421
31526W        W47335   4.110  16.741  14.544  0.3340 -0.0516 -0.0812
31527W        W47336   9.652  15.213   2.585 -0.0706 -0.0122  0.0025
31528W        W47337   0.736  15.153   5.215 -0.0388 -0.1506  0.3217
31529W        W47338   2.834   8.268   4.852 -0.0141 -0.4749 -0.1264
31530W        W47339  17.129  10.267   5.067 -0.1013 -0.1910  0.1088
31531W        W47340  17.679   6.865   2.715  0.1335  0.0191  0.2110
31532W        W47341  14.956   0.080  12.629 -0.2529  0.0580  0.1484
31533W        W47342   5.609  13.769   3.046  0.4877 -0.1415 -0.1691
31534W        W47343   5.709   8.152   2.308  0.0789  0.1186  0.1981
31535W        W47344  15.019  16.940  16.839  0.0446  0.0640  0.2524
31536W        W47345   6.170  12.168   1.523 -0.3886  0.0084  0.1712
31537W        W47346  14.525  15.440   4.152 -0.1171  0.1817 -0.0418
31538W        W47347  12.508   0.097  16.827  0.1303  0.1585  0.1077
31539W        W47348  14.399  16.055  16.261  0.0009 -0.1727  0.0698
31540W        W47349  10.662  11.069  12.897 -0.1265  0.1628  0.1580
31541W        W47350   2.848  15.796   0.021  0.4901  0.0133 -0.1012
31542W        W47351   4.687  13.355   0.460 -0.0016  0.1762 -0.0431
31543W        W47352   9.604  16.604  15.123  0.1079  0.0218 -0.3454
31544W        W47353  16.461   5.307   2.974  0.3401  0.1198 -0.0424
31545W        W47354  14.372  16.197  12.895  0.2399 -0.1409  0.0185
31546W        W47355   4.302   0.155   4.867  0.0392 -0.1579 -0.1650
31547W        W47356   7.641   0.799  16.486  0.0024 -0.0546 -0.3023
31548W        W47357   4.932   0.164   0.534  0.0352 -0.1117 -0.0059
31549W        W47358   4.256   1.458   4.757 -0.2022  0.0506  0.0219
31550W        W47359  17.496  13.753  12.620 -0.1638  0.0288 -0.0360
31551W        W47360   5.896  15.313  12.491  0.0305 -0.1674  0.3122
31552W        W47361  12.326  15.866   4.361  0.2531  0.1586 -0.2523
31553W        W47362  13.948   7.915   5.498  0.3702  0.1703  0.0164
31554W        W47363  11.485  16.813   5.002  0.0560 -0.2690 -0.0102
31555W        W47364  17.453  17.625   0.533  0.1020 -0.1501  0.2373
31556W        W47365  14.589   6.941  12.115 -0.0663 -0.3107  0.1434
31557W        W47366  11.882  14.872  12.831  0.3347 -0.3924 -0.2043
31558W        W47367  15.866  15.995   4.203  0.0857 -0.0856 -0.1833
31559W        W47368   8.104   3.542   3.173  0.1249  0.3066  0.1857
31560W        W47369  16.748  13.792  16.773 -0.0028 -0.1337  0.0268
31561W        W47370  14.414  17.239   2.929  0.0672  0.1102 -0.2042
31562W        W47371  13.677  14.058   1.324  0.1390  0.0922  0.1143
31563W        W47372  11.766  15.725  15.387  0.1864  0.1620 -0.2034
31564W        W47373   9.125  14.214   0.966 -0.1793 -0.2270  0.0606
31565W        W47374   9.313   5.576  15.974  0.1260  0.2182 -0.1751
31566W        W47375   9.529   1.526   1.617  0.1322 -0.1500  0.0306
31567W        W47376  17.056  16.356  14.248 -0.1409  0.0130  0.0859
31568W        W47377  17.019   5.622   4.163 -0.0282  0.1705  0.1832
31569W        W47378   0.534  16.914  15.737  0.2578 -0.0009  0.0861
31570W        W47379   5.139   0.251   4.672  0.0468  0.1992  0.0938
31571W        W47380   1.832  13.227   0.763  0.0074  0.0810  0.1916
31572W        W47381   5.932  10.785   2.303  0.2319 -0.2446  0.3114
31573W        W47382   8.159   7.294  16.248  0.0033 -0.0492 -0.0443
31574W        W47383  16.925  15.447  14.252 -0.0013  0.1290 -0.1845
31575W        W47384  15.528  13.563  11.451  0.1392 -0.3055 -0.0128
31576W        W47385  10.170   5.121  14.961 -0.0851 -0.1019  0.1167
31577W        W47386   7.293  16.877   6.167 -0.1379 -0.0143  0.2547
31578W        W47387   4.034   3.578   0.913 -0.1179 -0.1335  0.4115
31579W        W47388   3.148  12.704  11.707 -0.0420  0.4009 -0.0459
31580W        W47389   3.594   3.367   5.801  0.1180  0.0529  0.0278
31581W        W47390  10.985  10.960  15.810 -0.1632 -0.2295 -0.0817
31582W        W47391   6.093  10.231  15.487 -0.0026  0.2294 -0.0809
31583W        W47392   4.185  11.451   6.303  0.2758  0.2893  0.1941
31584W        W47393   4.717   3.834   1.294  0.2531 -0.2335  0.1264
31585W        W47394  17.045  16.692  14.967  0.0519 -0.1567 -0.2768
31586W        W47395  11.956   7.313   3.207  0.1481 -0.2138  0.3296
31587W        W47396   9.546  14.535  14.641  0.0504  0.0136  0.1342
31588W        W47397  12.276  17.372  15.144  0.0869  0.0364  0.1426
31589W        W47398   0.237   5.138  12.384  0.0987  0.0804  0.1336
31590W        W47399  14.973  14.259  13.930  0.2817  0.0846  0.1316
31591W        W47400  16.568  11.911  13.027 -0.1672  0.0859  0.2039
31592W        W47401  15.043   4.994  14.225 -0.1653  0.0226 -0.0241
31593W        W47402   0.149  10.641   5.226  0.5804  0.1999 -0.4702
31594W        W47403   7.096   0.082   0.724 -0.2210  0.0107 -0.1134
31595W        W47404  12.893  16.917  13.388  0.0028 -0.2965  0.1506
31596W        W47405   9.123  10.437  12.212  0.5000 -0.4658  0.0187
31597W        W47406  17.550   5.600   4.008  0.3933  0.0088  0.0445
31598W        W47407  15.845  13.074  11.351 -0.2539  0.1284  0.0949
31599W        W47408  11.559  10.284   0.347 -0.1286  0.3026 -0.1886
31600W        W47409  17.578  10.480   4.035 -0.1739  0.1320 -0.3809
31601W        W47410   7.237  15.475   4.289 -0.0485  0.2289 -0.1204
31602W        W47411  13.060  10.119  14.479 -0.4664  0.0383 -0.1824
31603W        W47412   9.787   1.835   5.630  0.2235 -0.2874 -0.2408
31604W        W47413  13.684  16.966   4.831 -0.1450 -0.2746  0.2777
31605W        W47414   1.624   0.221   1.539 -0.0955  0.0380  0.1459
31606W        W47415  15.381   0.985   3.545 -0.2166 -0.1801 -0.2050
31607W        W47416   5.384  14.499   2.418 -0.1578 -0.1004 -0.2280
31608W        W47417   5.917   0.960   1.840  0.0726 -0.0131  0.4143
31609W        W47418   6.745   0.187   2.307 -0.0849 -0.2515 -0.0555
31610W        W47419   0.961  13.085   0.333 -0.0668  0.1079 -0.1906
31611W        W47420   8.361  14.669  16.338  0.0465 -0.1873  0.1721
31612W        W47421   1.123   1.527  12.511 -0.0203  0.1160 -0.0228
31613W        W47422   2.739   8.262  11.900  0.0755  0.1464 -0.2998
31614W        W47423  14.710  17.510  16.397 -0.1865  0.0434 -0.1832
31615W        W47424   3.908   4.895  15.494  0.1690  0.4048 -0.0224
31616W        W47425   5.074  16.900   0.800  0.1357  0.0005 -0.1301
31617W        W47426  10.893  16.053   3.817 -0.2112  0.0500  0.0212
31618W        W47427   7.909   8.588   0.171 -0.1759 -0.2602 -0.0735
31619W        W47428  11.145   8.913  12.222 -0.2005 -0.1183 -0.0767
31620W        W47429  15.091  17.229   4.295 -0.0750 -0.1028  0.0542
31621W        W47430   9.327   4.652  12.991 -0.0562 -0.0711 -0.2988
31622W        W47431  15.330   7.405   0.756 -0.0740  0.2849  0.0237
31623W        W47432  14.378   9.296  12.863 -0.2789 -0.1883 -0.1295
31624W        W47433   8.001   8.335   4.211  0.0171  0.3033  0.2001
31625W        W47434   6.840   9.588   0.673 -0.0900 -0.1926 -0.0653
31626W        W47435  16.882  14.821  11.874  0.1743  0.1694  0.4022
31627W        W47436   5.380   9.831   5.158 -0.2291 -0.1716 -0.1148
31628W        W47437  14.456  12.044  11.458  0.0606  0.0548  0.3491
31629W        W47438  13.419   4.870   5.791 -0.0256  0.0335  0.1024
31630W        W47439   5.211  13.729   4.890 -0.2639  0.1767 -0.0497
31631W        W47440  10.917  10.311  16.877  0.0112 -0.1709  0.1965
31632W        W47441   8.919   9.380   1.852  0.0295  0.1325 -0.1529
31633W        W47442   4.686   2.378  12.574  0.0810 -0.0412 -0.2373
31634W        W47443  14.795  14.722  16.895  0.1118 -0.0186  0.1659
31635W        W47444   2.079   5.185  15.708 -0.3099  0.0497  0.0105
31636W        W47445  12.728  13.777   0.164 -0.0036 -0.1602 -0.2617
31637W        W47446   1.834   5.684   3.307  0.1926 -0.3051 -0.1296
31638W        W47447   3.784  11.990  13.899  0.0706 -0.1473 -0.0266
31639W        W47448  13.053   8.077  14.444 -0.0997 -0.0132 -0.0405
31640W        W47449  13.886  12.531  11.497  0.0070 -0.0786 -0.1092
31641W        W47450   0.457  14.823   1.640  0.2058 -0.3006 -0.1139
31642W        W47451   1.095  12.635   4.434 -0.1881  0.1985  0.2683
31643W        W47452  13.604   0.428  12.895 -0.3081 -0.4061  0.0763
31644W        W47453   7.826  14.043  11.117 -0.1537 -0.2833 -0.1297
31645W        W47454   1.753   0.124   4.134 -0.1570 -0.0333 -0.2039
31646W        W47455  11.002  16.771   4.832  0.2230  0.1153  0.3213
31647W        W47456  14.050  13.166   3.278  0.1066 -0.0284 -0.1676
31648W        W47457   6.340  14.089  13.533 -0.1072 -0.0648 -0.0830
31649W        W47458   1.680  12.422   0.288 -0.1904  0.1861  0.1733
31650W        W47459   8.538   4.758   0.193  0.1700  0.0264 -0.0321
31651W        W47460   0.354  17.270  15.435 -0.0754 -0.0745 -0.2631
31652W        W47461   9.924   4.214   2.308 -0.2411 -0.4472  0.1537
31653W        W47462  10.408   5.376   2.656  0.1090 -0.0235 -0.2908
31654W        W47463   1.146  13.864  13.346  0.0779 -0.1039 -0.2365
31655W        W47464   9.215  14.463  15.889 -0.4932 -0.2420 -0.2303
31656W        W47465  14.247   7.541   3.473 -0.1682  0.0014  0.1580
31657W        W47466  13.498   9.680   2.266  0.0021  0.1556 -0.0983
31658W        W47467   8.727  10.661  15.631 -0.0261 -0.0931  0.2114
31659W        W47468   4.012   4.458  12.979 -0.0519  0.1521 -0.1618
31660W        W47469  15.364  11.251   3.200  0.1105  0.1517 -0.0625
31661W        W47470  13.622   0.722  14.278 -0.2177 -0.3564 -0.2490
31662W        W47471  17.622  13.966  14.173  0.1710  0.0138 -0.0200
31663W        W47472   6.192  10.876   4.583  0.1491 -0.1989  0.0483
31664W        W47473   7.780  12.645  11.963  0.0630 -0.0336 -0.0367
31665W        W47474  12.793   3.832  14.833  0.2684 -0.0983 -0.0363
31666W        W47475  17.400   5.789  16.622 -0.0327  0.1773 -0.0410
31667W        W47476  15.404  16.484  14.150  0.2607 -0.1834 -0.0287
31668W        W47477  10.771   5.494  13.697 -0.0339 -0.1363 -0.3230
31669W        W47478   6.104  11.184  12.304  0.1146 -0.0210  0.0884
31670W        W47479  13.459   6.651   3.307  0.2572  0.0857  0.0011
31671W        W47480   1.061   5.279   1.881 -0.0304  0.1576  0.1407
31672W        W47481   0.275   4.515   4.226  0.0186 -0.2725  0.0199
31673W        W47482   3.359  15.143  15.566 -0.0272  0.0018 -0.1790
31674W        W47483   8.092   5.183  14.951 -0.0894  0.0849 -0.2876
31675W        W47484   4.407   4.477  13.216 -0.1618  0.1654 -0.0475
31676W        W47485   0.844   1.846   0.734  0.1309 -0.0334 -0.0897
31677W        W47486   3.367   6.713  16.802 -0.1470 -0.0445 -0.2925
31678W        W47487   8.930  17.043  14.749 -0.3121 -0.2045 -0.2538
31679W        W47488  13.576  14.506   1.530  0.1060 -0.1475  0.0839
31680W        W47489   3.414  17.166  14.181 -0.2135 -0.3116  0.0955
31681W        W47490   4.251  17.592  14.529  0.2611  0.5407 -0.0145
31682W        W47491   1.161  12.150  13.398  0.1304  0.1040 -0.1771
31683W        W47492  13.305  11.107  15.520 -0.1067 -0.1205  0.2327
31684W        W47493   8.340  13.639   5.231  0.1388 -0.0724  0.1410
31685W        W47494   0.609   3.796  13.745  0.1058  0.2910 -0.1270
31686W        W47495  13.359   1.736   1.684  0.3029  0.0316 -0.0736
31687W        W47496   2.109  15.696   1.953  0.1954  0.0369 -0.1780
31688W        W47497  13.873   4.524   2.050 -0.0621 -0.2239 -0.0055
31689W        W47498   7.356   7.218  12.817 -0.0160  0.1550  0.1687
31690W        W47499   3.403   9.007   5.151 -0.1085  0.1194 -0.0264
31691W        W47500   1.626   9.151  13.077  0.0053  0.3286 -0.2600
31692W        W47501  17.567   0.273  14.386 -0.1186 -0.1266 -0.0237
31693W        W47502  14.495   1.038  14.246  0.0517  0.0956  0.1109
31694W        W47503  14.644   6.170   2.404 -0.3575 -0.1081 -0.2731
31695W        W47504   2.992  15.636  13.962 -0.1721  0.2482 -0.2097
31696W        W47505   2.301   3.412  12.013  0.2099 -0.2973 -0.2965
31697W        W47506   2.966   1.983  15.065 -0.2558 -0.1407  0.0568
31698W        W47507   3.773  12.266   2.669  0.0892  0.1852 -0.0693
31699W        W47508  14.427  11.448  16.495 -0.3782 -0.1939  0.0917
31700W        W47509  16.826  12.241  14.863  0.3647  0.0639  0.3252
31701W        W47510  14.606   7.937  16.407 -0.1099  0.0075  0.3146
31702W        W47511   0.520   5.635  14.602 -0.3650 -0.2404 -0.0296
31703W        W47512  14.374   0.341   3.047 -0.2565 -0.2239  0.0032
31704W        W47513  14.153  15.968  14.465 -0.0021 -0.3347 -0.2165
31705W        W47514   4.310  11.122   0.044 -0.2758 -0.1722  0.0356
31706W        W47515   2.749  16.103   1.344  0.0380 -0.2158 -0.1808
31707W        W47516   3.509  13.691  16.914  0.5234 -0.1216 -0.0854
31708W        W47517   6.981  10.112  16.067 -0.2159  0.3477 -0.0390
31709W        W47518   2.096   6.718   1.914  0.2112 -0.1909 -0.0972
31710W        W47519   9.113   3.756   1.937  0.1400 -0.0161 -0.1500
31711W        W47520  10.774  11.443  11.128  0.0290 -0.0043 -0.0334
31712W        W47521   1.642   5.716   3.962  0.1365 -0.0971 -0.1767
31713W        W47522   4.700  11.108   0.386 -0.0384  0.3330 -0.4332
31714W        W47523  11.110   1.515  13.438  0.0224 -0.3260 -0.2165
31715W        W47524   9.947   4.947   0.124  0.0112  0.3481  0.0900
31716W        W47525  16.434  13.897   4.915 -0.1335  0.1581 -0.0117
31717W        W47526   7.247   8.150   1.827  0.1647 -0.1285 -0.1897
31718W        W47527  14.129   5.690  16.023 -0.0811 -0.0534  0.1209
31719W        W47528  13.075   3.773  12.819  0.0638  0.2176 -0.2566
31720W        W47529   4.171   0.740   2.820  0.1407  0.1947  0.1044
31721W        W47530   1.108   0.042   1.527  0.1612 -0.0244 -0.0551
31722W        W47531  14.349  10.636   4.449 -0.2193  0.1975  0.1579
31723W        W47532  10.509  13.346  15.872  0.3960 -0.2883  0.1560
31724W        W47533  17.355  11.192   2.064 -0.1302 -0.0058 -0.1467
31725W        W47534  12.233   6.203  12.390 -0.2175 -0.0713  0.0547
31726W        W47535  16.062  15.606  11.345  0.1184 -0.2943  0.0214
31727W        W47536  11.167   3.207   1.668  0.0866 -0.0254 -0.1547
31728W        W47537   3.036   1.659   4.270  0.0478  0.0094 -0.0031
31729W        W47538  13.279   3.042  12.362 -0.0220 -0.0502  0.0853
31730W        W47539   6.854   2.698  14.050  0.0041 -0.1312 -0.0379
31731W        W47540  11.693   9.676   5.482 -0.3068 -0.1932 -0.2689
31732W        W47541   3.041  11.486   4.899  0.3598 -0.2098  0.1213
31733W        W47542   1.411   2.029   5.144 -0.1084  0.1674  0.4611
31734W        W47543   5.180  16.237   1.957  0.2036 -0.0367  0.0076
31735W        W47544   2.743   0.700   2.233 -0.0571  0.2315  0.0636
31736W        W47545   7.122   9.528  15.339 -0.0959  0.1477 -0.0752
31737W        W47546  11.254  13.640  16.347  0.0320 -0.2193 -0.0582
31738W        W47547  12.647  17.123  12.791 -0.3418 -0.0008 -0.0833
31739W        W47548  15.680  14.288   5.505  0.0774 -0.2294  0.3906
31740W        W47549   5.767   1.449   4.679  0.1296  0.0088 -0.0042
31741W        W47550  11.793  11.715   4.354  0.1358 -0.1371  0.0541
31742W        W47551   0.232  11.968   2.930  0.1075  0.2682  0.1349
31743W        W47552  14.662   8.186   6.130 -0.0488  0.0228 -0.2751
31744W        W47553   6.637  12.100  13.790 -0.4269 -0.0158 -0.1719
31745W        W47554   0.757  13.452  13.219 -0.2432  0.3056 -0.2164
31746W        W47555  12.496   2.775  13.794  0.1806  0.3135  0.2526
31747W        W47556  17.338  11.222   5.006  0.1172  0.2259  0.1518
31748W        W47557   3.381   9.063  14.966  0.1076  0.1561 -0.1692
31749W        W47558   5.596  16.243   5.139  0.2581  0.1662 -0.3091
31750W        W47559  13.813   6.103   6.019 -0.2872  0.1608  0.2905
31751W        W47560  17.007  14.752   2.447  0.0920  0.2493  0.2522
31752W        W47561   0.109   2.537   1.025 -0.1197 -0.0972  0.0393
31753W        W47562   7.755   2.050   4.997  0.1175  0.0232  0.3292
31754W        W47563   4.948   7.998  15.266  0.1103  0.0231 -0.3383
31755W        W47564  15.979   0.948   1.788  0.0072  0.0493 -0.1631
31756W        W47565   2.623  13.128   2.402  0.2206  0.1366  0.1888
31757W        W47566  12.640  13.773  15.140 -0.1992 -0.0771  0.3123
31758W        W47567  10.232  11.038   2.618  0.1606 -0.4185 -0.1883
31759W        W47568   9.108  11.044  12.746 -0.1207  0.2318  0.0826
31760W        W47569  16.000   3.974  14.251 -0.0669 -0.1562  0.1888
31761W        W47570   0.187  11.084   0.832  0.1594 -0.1603  0.1832
31762W        W47571   0.041   2.020  14.256 -0.1513  0.3442  0.0760
31763W        W47572   9.201  17.408  12.120  0.0227 -0.2396 -0.0410
31764W        W47573   0.248  16.642   4.549 -0.0783  0.0795  0.1282
31765W        W47574   8.287   2.483  11.689 -0.2675  0.1216 -0.0178
31766W        W47575  10.487   5.519  16.453 -0.1328  0.0698  0.1122
31767W        W47576   4.669  12.518   2.465 -0.1080 -0.0023  0.0043
31768W        W47577   4.580  14.198   1.949 -0.1642  0.0236 -0.1295
31769W        W47578   3.001   4.272   2.946 -0.1584 -0.2373 -0.0322
31770W        W47579   0.728   1.040  13.685 -0.1878 -0.0715  0.1465
31771W        W47580  10.735  14.067   1.889  0.2690 -0.2925  0.0804
31772W        W47581   0.967  13.894   2.032  0.0167 -0.3944  0.1212
31773W        W47582  16.901  10.053  15.645  0.1095 -0.0355  0.2292
31774W        W47583   9.815  10.114  11.530  0.1707  0.0003  0.1807
31775W        W47584  16.721   0.498  12.774 -0.2210 -0.2161 -0.4129
31776W        W47585   6.852   2.523   5.856 -0.1835 -0.1448 -0.1958
31777W        W47586   7.743  13.369   1.834 -0.0353 -0.5725  0.0870
31778W        W47587   9.657  15.821  14.465 -0.5631 -0.0326 -0.3394
31779W        W47588   6.045   6.215   1.817  0.2246 -0.0479 -0.1403
31780W        W47589   8.741   1.293   1.087 -0.0780  0.1031  0.0886
31781W        W47590  13.580  16.229   1.466  0.0128 -0.3833 -0.1034
31782W        W47591  14.196   5.355  13.175  0.0832 -0.1369 -0.1129
31783W        W47592   5.581  17.566   3.269  0.0165 -0.1576 -0.0948
31784W        W47593   3.956  12.254   0.385  0.3548 -0.1373 -0.0675
31785W        W47594   9.325   4.835  16.029  0.0099 -0.2258 -0.3304
31786W        W47595  11.936   2.407  12.591 -0.1076  0.1312  0.1432
31787W        W47596   4.357  14.157  15.517  0.0737 -0.1917 -0.2937
31788W        W47597  14.254   1.709   2.469  0.0848 -0.0199 -0.1293
31789W        W47598  14.868   2.084   5.132 -0.1259 -0.0022  0.0780
31790W        W47599  10.744   8.871   0.275  0.1373 -0.2059  0.2055
31791W        W47600  15.809   1.884  14.458 -0.1557  0.0616 -0.0593
31792W        W47601   9.339  15.776  14.054 -0.2002  0.0846 -0.0777
31793W        W47602   7.054   2.130   4.174  0.0960 -0.0446  0.0380
31794W        W47603   6.887  16.367  16.465 -0.3871  0.1149 -0.0890
31795W        W47604   8.902   4.504  15.152  0.1176  0.2047  0.0459
31796W        W47605  16.942   9.385   5.488 -0.0284  0.0996  0.0012
31797W        W47606   8.002   3.645  14.888 -0.3413 -0.1878 -0.4175
31798W        W47607  13.300  14.867   4.580  0.0709 -0.1741  0.2239
31799W        W47608   3.381  11.108   4.812  0.0559 -0.2395  0.1750
31800W        W47609   9.003  17.331   1.125  0.1821  0.0249 -0.0570
31801W        W47610   2.799   5.703   1.613  0.0190  0.1892 -0.1377
31802W        W47611   8.700  10.373   3.639  0.0635  0.0978  0.0104
31803W        W47612   7.705   2.715   1.286  0.0641  0.0617 -0.0482
31804W        W47613  10.450  10.018   4.528 -0.0119 -0.0138  0.0823
31805W        W47614  15.374   8.141   3.622  0.2343  0.0634  0.0167
31806W        W47615   9.655  10.826   3.536 -0.2632 -0.1702 -0.0399
31807W        W47616   7.489   7.452  13.334 -0.0519  0.0769 -0.3288
31808W        W47617  15.907   2.910   0.928 -0.2407 -0.1535  0.0066
31809W        W47618  12.345   4.138   3.455 -0.1522 -0.0314 -0.2400
31810W        W47619   4.623  15.116   2.314  0.0144  0.0529 -0.3408
31811W        W47620   1.980   6.292  15.549 -0.1918 -0.0086  0.3966
31812W        W47621  14.832   7.715  13.698  0.0258 -0.0493 -0.2983
31813W        W47622   8.211   0.191   5.220 -0.0222 -0.1215 -0.1263
31814W        W47623   5.080  12.883   0.477  0.0650  0.2107 -0.2331
31815W        W47624  14.471   7.880  12.883 -0.0140 -0.0949  0.0269
31816W        W47625   1.680   3.287   2.238 -0.1060 -0.1809 -0.0954
31817W        W47626   9.993   8.624  15.050  0.2589 -0.0485  0.3132
31818W        W47627   6.000  16.196   5.506 -0.1607 -0.1859  0.0283
31819W        W47628  10.277  14.843   0.332 -0.2382 -0.2138  0.1524
31820W        W47629   2.843   1.867   2.706  0.0274  0.1857  0.2257
31821W        W47630   3.538  10.633   4.511 -0.4061  0.1317  0.1546
31822W        W47631   3.716   3.195   4.919 -0.3221 -0.0892 -0.3002
31823W        W47632   5.415  16.868  16.588  0.1074  0.1276  0.3990
31824W        W47633   3.815  15.943  14.690 -0.0870  0.1073  0.2168
31825W        W47634   9.357  15.500  16.715 -0.1879  0.2730  0.3516
31826W        W47635  16.192   6.387   1.754 -0.0266  0.0163  0.2706
31827W        W47636   8.473   3.200   0.894  0.1575 -0.2916 -0.0499
31828W        W47637  17.193   6.648  16.277 -0.3295 -0.3348  0.0757
31829W        W47638  13.795   1.091  13.752  0.5232 -0.2867  0.4685
31830W        W47639   8.031  13.108   2.601  0.0933  0.1140 -0.0021
31831W        W47640  14.326   8.408   2.937  0.1610 -0.1152 -0.2100
31832W        W47641   3.684   8.086  13.602 -0.0035  0.2340 -0.4756
31833W        W47642  13.460   7.341   4.572  0.1926  0.0563 -0.4171
31834W        W47643  16.754   2.525  15.555  0.2594 -0.3432 -0.1751
31835W        W47644  14.103  15.557   3.905 -0.2892 -0.0380 -0.5382
31836W        W47645  16.680   7.353   1.657  0.2255  0.1520 -0.2277
31837W        W47646   8.220   2.362  13.361 -0.1003 -0.0360 -0.0404
31838W        W47647   4.277   3.078   2.729  0.2094  0.0596  0.0209
31839W        W47648  16.828   8.284   2.781 -0.0717  0.0517 -0.1204
31840W        W47649  12.577  12.419   4.988  0.2051  0.0507 -0.0035
31841W        W47650  16.026  17.631   3.695  0.2263 -0.0356 -0.3003
31842W        W47651   2.843  11.126   1.859 -0.0158 -0.1946 -0.0876
31843W        W47652   6.121   8.876   3.822 -0.0191  0.1187 -0.0591
31844W        W47653   9.518  17.586  14.969  0.0963 -0.0563  0.1451
31845W        W47654  12.919   9.607  16.475  0.1093  0.0303 -0.0096
31846W        W47655   4.852  14.671  13.870 -0.0186  0.0763 -0.0651
31847W        W47656  12.701   8.882  13.750 -0.0910  0.1201 -0.2809
31848W        W47657   6.471   1.295   0.547 -0.1051  0.0246 -0.2728
31849W        W47658   6.827   2.589   0.419 -0.0752  0.2496 -0.1528
31850W        W47659  13.535   5.900   3.062 -0.0744 -0.0381  0.1460
31851W        W47660   9.564   5.178  15.733  0.1018 -0.0433 -0.1548
31852W        W47661   7.781   0.106   0.760  0.0419 -0.2079  0.0230
31853W        W47662  14.803   4.779   5.892 -0.2436  0.1154 -0.4616
31854W        W47663   4.507   0.851   2.229  0.1612 -0.0509  0.0930
31855W        W47664  16.696   6.178   1.759 -0.3228  0.3503  0.1399
31856W        W47665   8.501   4.508  15.852 -0.2283 -0.0102  0.1457
31857W        W47666   4.616  11.504   4.001  0.0976  0.2109 -0.0383
31858W        W47667  16.899   0.324  12.338 -0.1031  0.1091  0.1006
31859W        W47668   5.890  12.898  12.858 -0.0446  0.0636  0.0033
31860W        W47669   6.163   0.902   3.320  0.2484 -0.3006  0.2428
31861W        W47670   3.231   6.542  14.111  0.0857  0.1508  0.0568
31862W        W47671  10.801   7.179  11.415 -0.0352  0.1957 -0.1311
31863W        W47672  17.204  16.101  11.981 -0.1011 -0.2671 -0.0064
31864W        W47673   6.918  13.509  15.018  0.0304 -0.4081 -0.0135
31865W        W47674   9.119  17.548  14.035 -0.2235 -0.0795  0.1976
31866W        W47675   4.697   7.503   2.016  0.0155 -0.0593 -0.0681
31867W        W47676  14.498   6.339   5.187 -0.0062 -0.2637 -0.0226
31868W        W47677   9.915   3.660   5.516 -0.2667  0.0812 -0.0631
31869W        W47678   2.899   1.090  16.844  0.1759 -0.0616  0.0767
31870W        W47679  10.072  10.060   2.584  0.0650 -0.0099  0.0950
31871W        W47680   3.294  10.944  14.817  0.0846  0.0711 -0.0151
31872W        W47681   7.328  17.689   1.529  0.0392  0.0442 -0.3589
31873W        W47682   9.507  12.214   1.887  0.0820 -0.0688  0.1170
31874W        W47683   7.555   9.414  13.480 -0.0314  0.1067  0.2564
31875W        W47684  13.922  17.073   3.855 -0.2606  0.0660  0.0764
31876W        W47685   2.596  14.682   0.298  0.3121 -0.4620  0.0589
31877W        W47686   5.073  13.248   2.690  0.1942  0.1962  0.3007
31878W        W47687  11.656   8.736  14.585  0.0170 -0.2376  0.1003
31879W        W47688   6.102   0.507   4.634  0.0961 -0.4304 -0.0843
31880W        W47689   6.120   4.910  14.381  0.1053 -0.0884 -0.0141
31881W        W47690   5.432   9.837   4.593 -0.0083 -0.2465  0.1894
31882W        W47691   9.243  15.456  11.963 -0.0587  0.0880 -0.1285
31883W        W47692  14.280  12.262   1.484  0.3093  0.2526  0.1507
31884W        W47693   4.488   6.742  13.763 -0.0142 -0.4319  0.2333
31885W        W47694   9.949   1.129   3.318  0.0719  0.0775 -0.0664
31886W        W47695   1.500   2.321   1.113 -0.1632 -0.0517  0.0618
31887W        W47696   0.422  13.632  15.653  0.0061  0.0359  0.1382
31888W        W47697  16.967   8.563   3.516  0.0796  0.2595  0.0037
31889W        W47698   2.499  16.563  14.707  0.2236  0.4045 -0.1049
31890W        W47699   3.212   6.399  15.912 -0.3400 -0.3268 -0.2183
31891W        W47700   6.617  13.424  15.433 -0.0105 -0.2967 -0.0161
31892W        W47701   9.357  16.070   3.509 -0.0534 -0.2056 -0.1169
31893W        W47702  14.373  10.553   1.879  0.0013 -0.2589  0.0118
31894W        W47703   4.886   6.466   3.558 -0.1293  0.0099 -0.0784
31895W        W47704  16.966   1.145   0.295 -0.1772 -0.0242 -0.0477
31896W        W47705   6.440   0.515   0.876 -0.0588 -0.0896 -0.1113
31897W        W47706   9.127  13.527   4.981  0.0278  0.3207 -0.0812
31898W        W47707   9.464   8.391   0.408  0.0254 -0.0482  0.0011
31899W        W47708   9.975  10.612   1.662 -0.0002  0.4343  0.0609
31900W        W47709   2.910   2.783  14.660  0.2079 -0.2448 -0.2326
31901W        W47710   0.736  16.400  14.883  0.0472 -0.3216 -0.1323
31902W        W47711   1.277   5.951   1.094  0.2345 -0.0082 -0.0209
31903W        W47712   4.544   3.925   1.874 -0.1899  0.0987  0.1692
31904W        W47713   3.909  12.342  16.614  0.1077  0.1390 -0.1128
31905W        W47714   6.046   0.006  15.162  0.0260 -0.1261  0.0893
31906W        W47715  12.837   6.415   2.068  0.1065  0.0252  0.1625
31907W        W47716   6.100  12.452  14.312  0.1386  0.5542 -0.2086
31908W        W47717  11.124   2.258   0.619  0.0369 -0.0139 -0.3178
31909W        W47718   1.606  13.551  11.482 -0.4160 -0.0648 -0.1576
31910W        W47719   5.550  14.424  13.307 -0.1359 -0.0146 -0.0718
31911W        W47720   6.272  14.778  13.540  0.0579  0.0869  0.2066
31912W        W47721  14.676   5.358   3.734 -0.0706 -0.1527  0.4095
31913W        W47722   5.216   1.526   5.143  0.1603  0.0772  0.1700
31914W        W47723   8.830  13.021  14.312 -0.1735  0.1970  0.0560
31915W        W47724   8.219   6.206  15.171 -0.1194  0.0657  0.0712
31916W        W47725  12.346  17.172   4.678 -0.0047 -0.1685  0.3813
31917W        W47726  13.255  17.671   6.281  0.0501 -0.1706  0.0599
31918W        W47727   7.015   1.496  11.919  0.0155  0.0708  0.0192
31919W        W47728  11.192  11.405   2.364  0.1700  0.1877 -0.2768
31920W        W47729  10.573  16.411  15.685 -0.1998 -0.1304  0.1170
31921W        W47730   4.203   2.924   0.369  0.1980  0.0934 -0.0014
31922W        W47731   3.388  16.075  15.483 -0.0916 -0.3530 -0.3475
31923W        W47732   8.462   3.283  16.218 -0.1297  0.0958  0.0948
31924W        W47733  10.581  12.650   5.320  0.0300  0.1269  0.2670
31925W        W47734  14.421   1.916   5.677 -0.3057 -0.0739  0.2638
31926W        W47735   0.833   2.324   4.237 -0.1843 -0.0751  0.1092
31927W        W47736   6.870   6.675   2.728  0.0096 -0.0880 -0.2272
31928W        W47737  11.319  10.454   2.599 -0.4204 -0.0763 -0.0754
31929W        W47738  12.719   1.059  16.628  0.0226 -0.0431 -0.1919
31930W        W47739  13.229  10.405   4.986  0.0358 -0.0349 -0.0900
31931W        W47740   1.774  15.592   3.565  0.3124 -0.0079 -0.0708
31932W        W47741   8.802  11.935  12.322 -0.2736 -0.0954 -0.2999
31933W        W47742   4.738  10.358  15.803 -0.2571  0.0111  0.0741
31934W        W47743  12.423   5.057   5.381 -0.1554  0.0647 -0.0053
31935W        W47744   0.616   5.163   3.706 -0.0096 -0.1114 -0.1057
31936W        W47745   5.114   2.597   1.274 -0.2627 -0.1873 -0.0306
31937W        W47746   0.140  16.840   3.638  0.1025 -0.1245  0.0723
31938W        W47747  14.620   9.719  11.507 -0.0003  0.0820  0.0858
31939W        W47748  12.519   2.254   2.498  0.2902  0.2217  0.2228
31940W        W47749   6.656   6.859  13.176  0.0292 -0.1919  0.0557
31941W        W47750   1.358  16.942  13.897 -0.0528 -0.1047 -0.1707
31942W        W47751  11.404   3.599   3.678 -0.1741  0.3777 -0.0377
31943W        W47752  11.313  11.940  14.033  0.1157 -0.0793 -0.4455
31944W        W47753   5.820   7.181  14.227  0.0115  0.2369 -0.1384
31945W        W47754  11.230  14.748  13.484  0.1946 -0.0763  0.0675
31946W        W47755   3.485  12.276  14.156 -0.0410  0.0890  0.3222
31947W        W47756   4.543  10.633   4.183 -0.1864  0.0336 -0.0165
31948W        W47757  10.354   9.324   6.053  0.1553 -0.0176 -0.0552
31949W        W47758   5.724   8.322   0.920 -0.1947 -0.1798 -0.1353
31950W        W47759   1.807   4.876  11.781  0.3165  0.1666 -0.1958
31951W        W47760   1.117   8.828   3.179 -0.0606 -0.0823 -0.3269
31952W        W47761  12.782  16.184  14.626 -0.2340  0.0352  0.0750
31953W        W47762  11.781  15.773   1.164 -0.1470  0.0435  0.0562
31954W        W47763  16.800   3.524   5.293  0.0587  0.1930  0.2773
31955W        W47764   4.120   2.046   1.217 -0.0014 -0.0043  0.1332
31956W        W47765   1.806  17.059   1.800 -0.1186  0.3539 -0.1466
31957W        W47766  11.012   5.143  12.356 -0.0643  0.0039  0.1673
31958W        W47767   4.182  10.658   0.076  0.1591 -0.1089 -0.1499
31959W        W47768   3.569   1.618   3.000 -0.0953 -0.0076 -0.0808
31960W        W47769  16.903  12.850   1.240  0.1900  0.1440 -0.1744
31961W        W47770  15.516  14.107   0.641 -0.1921  0.0248 -0.1060
31962W        W47771   9.885   3.395   5.075  0.1152  0.3332  0.0178
31963W        W47772  16.089   7.886   2.149 -0.0265  0.0666  0.1053
31964W        W47773  11.745   9.221   6.036 -0.0644 -0.2939 -0.1473
31965W        W47774   0.243  11.710   4.647  0.0922  0.0122 -0.1490
31966W        W47775  13.475  13.324   4.576  0.0315 -0.1447  0.0926
31967W        W47776  15.742  11.163   5.786  0.0241 -0.2489 -0.0164
31968W        W47777   1.893   5.967   1.410 -0.1225  0.1436  0.2913
31969W        W47778  13.873   7.335   5.480 -0.2743  0.1784 -0.0459
31970W        W47779   4.995   2.041  14.998 -0.0763 -0.2814  0.1660
31971W        W47780   8.087  11.286  16.953 -0.0135  0.1921 -0.0100
31972W        W47781   8.344   8.129   3.431  0.1390 -0.0364 -0.0515
31973W        W47782   4.928  17.144   3.498 -0.0423 -0.0714 -0.0933
31974W        W47783  12.664  15.582  10.082  0.0573  0.0316 -0.1138
31975W        W47784   6.736  15.284   4.124  0.0380  0.2157 -0.1648
31976W        W47785   4.535  17.250   4.261 -0.0698  0.0812  0.1439
31977W        W47786   5.532   4.404   1.494 -0.3548  0.1674  0.1091
31978W        W47787  14.639   5.580   5.841 -0.2295  0.0262 -0.1638
31979W        W47788   1.881  12.291   2.493 -0.1260  0.0539 -0.0216
31980W        W47789  16.177  16.831   0.348 -0.0281 -0.1030  0.0047
31981W        W47790  13.283   3.330  16.866  0.0149 -0.0041  0.0395
31982W        W47791  11.194   9.423   0.642 -0.0085  0.0906 -0.0905
31983W        W47792   5.544   6.029   2.856 -0.2382  0.4466 -0.1630
31984W        W47793  11.966   7.885   2.163  0.0454  0.3132 -0.3952
31985W        W47794   5.474   2.015   0.645 -0.0008 -0.2497 -0.3349
31986W        W47795   2.077  10.418   4.694 -0.1591  0.1245  0.1698
31987W        W47796   5.233  12.094   5.240  0.2904  0.0555  0.2672
31988W        W47797  14.940   2.562  15.111  0.0468 -0.0424 -0.1014
31989W        W47798  12.800   6.968   3.420 -0.1578  0.1566  0.1938
31990W        W47799   7.523   3.907   0.824 -0.3323 -0.4574 -0.0416
31991W        W47800  11.259  14.959  11.773 -0.2386  0.2094  0.3533
31992W        W47801  17.632  10.201   5.272 -0.3067 -0.0677 -0.2369
31993W        W47802   2.825  16.982   5.206  0.0080 -0.0412  0.0922
31994W        W47803  11.601  13.873   4.980 -0.0179  0.1404 -0.2177
31995W        W47804   8.136   3.175  11.947 -0.1643 -0.0144  0.0708
31996W        W47805   6.677   5.278   3.815  0.0880  0.0242 -0.0708
31997W        W47806  10.104  14.043   4.024  0.0208  0.3404 -0.2066
31998W        W47807  12.650   4.254   4.386 -0.3163  0.2241 -0.2490
31999W        W47808   7.148   0.944   3.711  0.2764 -0.0123 -0.1756
32000W        W47809   1.219  16.478  12.801 -0.1038  0.1868 -0.1641
32001W        W47810   1.555   4.855  12.179 -0.1284  0.1571 -0.0551
32002W        W47811  13.540  11.293   4.759 -0.1176  0.0509 -0.3905
32003W        W47812   8.725   2.327  11.897  0.0112 -0.0512  0.1748
32004W        W47813   2.790  16.776  15.065 -0.2368  0.0914 -0.0777
32005W        W47814  17.588  12.509  16.758 -0.3200  0.0306  0.0520
32006W        W47815   0.377   4.834  14.280  0.1287  0.3527 -0.1111
32007W        W47816  16.040  11.857   1.936  0.1206 -0.0052  0.1515
32008W        W47817  11.434  15.400   1.131  0.1726 -0.1263 -0.1183
32009W        W47818   2.877  11.669   1.725  0.1282 -0.0159  0.1553
32010W        W47819   1.898   4.295   3.505  0.2085  0.0520  0.1022
32011W        W47820   9.817  13.616  13.859  0.1537 -0.0594 -0.1652
32012W        W47821  11.472   0.348  15.872  0.0289  0.2681  0.3132
32013W        W47822   0.723  15.718   4.496 -0.0123  0.1822  0.4258
32014W        W47823  13.230   8.259   4.260 -0.0874  0.0296  0.2860
32015W        W47824  11.141   7.532   3.316 -0.0845 -0.3156  0.0322
32016W        W47825   4.461  15.431  10.763  0.1681  0.2279 -0.0426
32017W        W47826   9.665   7.049  15.923 -0.3637 -0.1048  0.0669
32018W        W47827   9.506  11.542  12.251 -0.1152  0.0678  0.2452
32019W        W47828  17.086  13.144   0.886 -0.1051 -0.0139  0.0104
32020W        W47829  13.533  15.958  11.760  0.4148 -0.0883  0.2773
32021W        W47830  17.549   9.457  14.911 -0.0015  0.0433 -0.2768
32022W        W47831   4.420  14.212   5.242  0.1836  0.2840 -0.0191
32023W        W47832  12.141   7.480   3.797  0.0901 -0.0178 -0.3213
32024W        W47833  12.730  12.621   1.983 -0.1507 -0.0299  0.2220
32025W        W47834  16.291  12.290   4.514 -0.0442 -0.0608 -0.2466
32026W        W47835  14.254  12.881  11.491 -0.1226  0.2257 -0.1786
32027W        W47836  11.096   4.128  11.726  0.0023 -0.2306  0.1197
32028W        W47837  13.837  11.307   2.603 -0.2203  0.0789 -0.2568
32029W        W47838  11.906  14.249  16.913  0.0263 -0.0777  0.1256
32030W        W47839  10.490  13.764  14.090 -0.0593  0.0553 -0.1285
32031W        W47840  14.155   0.800   2.782 -0.2675 -0.0013  0.3913
32032W        W47841   9.178  16.105   0.868  0.1207 -0.1897 -0.3392
32033W        W47842  11.386   5.210   6.481  0.1322 -0.2846 -0.2075
32034W        W47843  16.151   5.163  15.749  0.0263 -0.1298  0.1198
32035W        W47844  10.219  17.512  11.116  0.0837 -0.0683  0.1349
32036W        W47845   8.570   8.931  14.087  0.0229 -0.3909  0.1241
32037W        W47846   2.762   2.478  12.965 -0.2665 -0.2021 -0.0236
32038W        W47847  10.966  14.572  11.189 -0.1838 -0.2061 -0.2189
32039W        W47848   4.207   2.349  12.621 -0.3249  0.4181  0.0104
32040W        W47849  16.282   1.076  10.651 -0.1190 -0.0258 -0.0929
32041W        W47850  17.450  17.402  16.213 -0.0198  0.1122 -0.0239
32042W        W47851   1.271   8.916  14.434  0.1879 -0.1137  0.1557
32043W        W47852   5.783  13.167  15.772  0.0679 -0.1822  0.2178
32044W        W47853   7.894   5.484   6.005  0.0700 -0.2325  0.1846
32045W        W47854  12.389   7.704   5.528  0.1082 -0.0826 -0.0171
32046W        W47855  15.111  13.703   1.929 -0.1648 -0.1863 -0.0980
32047W        W47856   9.873  15.671  13.330  0.0433  0.1455  0.2033
32048W        W47857  10.863  16.273  16.008  0.2721 -0.1624 -0.4827
32049W        W47858  16.875  11.487  13.226  0.1798  0.1203 -0.0655
32050W        W47859  14.855  16.056   1.236 -0.2678 -0.1617 -0.0301
32051W        W47860   0.466  11.215  13.540  0.0768 -0.0813  0.1986
32052W        W47861   4.536   6.070  16.194  0.0861  0.0874  0.0560
32053W        W47862   5.980   3.751  16.215  0.1090 -0.0139 -0.1592
32054W        W47863   9.252   7.021   0.216  0.1685  0.2144  0.1422
32055W        W47864  12.935  14.186   4.590  0.0477  0.1781 -0.1835
32056W        W47865   7.781   6.091  16.930 -0.0462  0.0784  0.3018
32057W        W47866  13.385  16.088   3.856  0.1626  0.0897  0.0131
32058W        W47867  10.823   1.636  12.989 -0.0963 -0.2742  0.0050
32059W        W47868   8.071   4.701   2.074  0.0199  0.2831  0.0238
32060W        W47869   8.109  15.657  15.332 -0.1263 -0.1243 -0.0263
32061W        W47870   1.484   6.400   3.136  0.0764 -0.0464 -0.3267
32062W        W47871   4.701   6.891   5.387 -0.2474 -0.0760  0.1196
32063W        W47872   7.031  16.226  15.904 -0.4058 -0.1049 -0.0577
32064W        W47873   6.680   1.923   4.533  0.1310  0.0962  0.1943
32065W        W47874   3.259   1.756   2.505 -0.0945  0.2725 -0.0822
32066W        W47875  15.820  13.517  12.383  0.3804  0.0423  0.1030
32067W        W47876   9.478  12.073  11.369  0.4012  0.1401  0.0984
32068W        W47877  12.076  11.321   3.609 -0.0392  0.1551 -0.2187
32069W        W47878  12.252  11.813   3.343  0.0631 -0.2606  0.0722
32070W        W47879   8.124  16.144   5.237 -0.1585 -0.0278  0.5121
32071W        W47880  11.668   8.788   4.967  0.0104 -0.0114 -0.1819
32072W        W47881   2.253   0.681  11.336 -0.2639  0.0230 -0.0103
32073W        W47882  11.614  12.446  14.182 -0.2918  0.2833 -0.1871
32074W        W47883   4.737   1.770   2.253 -0.2102 -0.0807  0.2725
32075W        W47884  12.513   6.595  14.562 -0.1052 -0.0100  0.0482
32076W        W47885   5.551   2.926  16.285  0.1381  0.1843  0.1973
32077W        W47886   5.072  13.779   4.083  0.1153 -0.1013  0.3711
32078W        W47887   2.845   2.521  13.562  0.1719 -0.0184 -0.1226
32079W        W47888   7.642   5.983  13.122  0.0828  0.2504 -0.2551
32080W        W47889   9.397  12.414  15.670  0.1666  0.0988 -0.1312
32081W        W47890   7.551   3.695   4.026 -0.1403 -0.0480 -0.1105
32082W        W47891  15.177   3.904  15.040 -0.1162  0.1591 -0.0488
32083W        W47892  12.818  10.465  16.795 -0.0498 -0.3521  0.0934
32084W        W47893   9.660   9.949  16.462  0.1722 -0.4067  0.2456
32085W        W47894   6.931   2.167  15.444  0.0256  0.1597  0.0540
32086W        W47895   7.749  15.247  12.287 -0.0498 -0.4639 -0.0240
32087W        W47896  10.184  12.325   4.518 -0.1572  0.0065  0.0797
32088W        W47897  11.630  13.567  11.409 -0.0700 -0.0759  0.1213
32089W        W47898   1.519   7.992   0.863  0.2925  0.1541 -0.0572
32090W        W47899   3.176   3.890   1.959  0.1150 -0.0942 -0.3879
32091W        W47900   2.478   7.601   4.316  0.0844  0.1272 -0.1955
32092W        W47901  16.831   3.609  14.198 -0.1686 -0.0776 -0.0930
32093W        W47902   9.428   9.449   1.342 -0.1945 -0.0588  0.4227
32094W        W47903   7.981   8.611  16.288  0.0182 -0.1326 -0.1872
32095W        W47904   2.461  13.678  14.907  0.0458  0.0188 -0.2494
32096W        W47905   2.210   9.186  14.698 -0.1997 -0.0162  0.1927
32097W        W47906   4.489  15.553   2.020  0.1021  0.3227  0.0361
32098W        W47907  14.073  13.494  16.180 -0.1099 -0.1795  0.0543
32099W        W47908  16.158  13.272  12.730 -0.1813  0.2116  0.0593
32100W        W47909  13.801   6.355   4.710 -0.1689 -0.0573  0.1675
32101W        W47910   4.385  11.623  16.340 -0.1860 -0.0552  0.0892
32102W        W47911   6.552  13.465   1.693 -0.0740 -0.1947  0.0586
32103W        W47912  12.410  14.424  16.245 -0.0292  0.0770 -0.0716
32104W        W47913  13.084   8.633  15.632 -0.2460 -0.0188 -0.0606
32105W        W47914   1.908   0.158  13.519 -0.0911 -0.2176 -0.0972
32106W        W47915   7.920  11.283  13.715 -0.2108  0.2783  0.2429
32107W        W47916   4.700  12.108   5.189  0.0763  0.1469  0.2371
32108W        W47917  15.952   3.133  11.806 -0.1889 -0.1091 -0.0400
32109W        W47918   5.056   2.632  16.122  0.1164  0.1167  0.1700
32110W        W47919  16.549   5.584  13.682 -0.3632 -0.0077 -0.0188
32111W        W47920   2.696   9.786  15.636  0.3678  0.1774  0.0961
32112W        W47921   1.140  10.870   4.887 -0.2900 -0.0682  0.0105
32113W        W47922  12.211  13.840  15.340  0.2134 -0.0030  0.0850
32114W        W47923   1.356  17.347   5.222  0.1545 -0.3650  0.1776
32115W        W47924  16.779  15.537  16.519 -0.0700 -0.0420 -0.0667
32116W        W47925  13.444   6.922   2.868  0.2488  0.0807 -0.1197
32117W        W47926   8.167   7.597  12.327 -0.1109  0.0151 -0.3252
32118W        W47927   6.673  12.262  13.191  0.0843  0.0654  0.0320
32119W        W47928  13.779  14.670   4.999 -0.1341  0.4031  0.3666
32120W        W47929  10.136  10.237   4.265  0.0920 -0.2792  0.1208
32121W        W47930  15.284   1.076   2.445  0.2048  0.0621 -0.3380
32122W        W47931   1.145   4.672  12.631 -0.3566  0.0971  0.0955
32123W        W47932  10.352   0.558   1.594  0.0945  0.1659 -0.0716
32124W        W47933   7.286   0.865   0.638  0.0459  0.1086 -0.1256
32125W        W47934   7.828   3.045  16.628 -0.1789 -0.1852 -0.0948
32126W        W47935  14.757   8.552  12.882  0.0378  0.3502 -0.1902
32127W        W47936   1.614  13.067   2.981 -0.0263  0.1141 -0.0512
32128W        W47937   5.004   0.530   2.938  0.0518  0.2880  0.1689
32129W        W47938  11.806  12.736   1.469  0.0565  0.0656  0.2166
32130W        W47939   9.557  12.282   2.783  0.3128 -0.2324 -0.1243
32131W        W47940  14.343   4.418  13.282 -0.2796  0.0966  0.0102
32132W        W47941   9.372   2.306   0.540  0.1131 -0.1537  0.0232
32133W        W47942   7.274   4.736  14.183  0.2566 -0.0163 -0.2310
32134W        W47943   6.102  14.453  16.931 -0.2780 -0.0377 -0.1402
32135W        W47944   3.843  11.941   4.102 -0.0754 -0.0971  0.2471
32136W        W47945   8.100   6.287   5.233  0.1440 -0.1336  0.2488
32137W        W47946  14.667   4.135  13.611 -0.0367  0.2262 -0.0070
32138W        W47947   6.747  13.382   5.770 -0.4375 -0.0931 -0.1912
32139W        W47948  12.585  14.679  13.981 -0.1850  0.0298 -0.0992
32140W        W47949  11.751   2.809   3.300  0.2180  0.0879  0.2385
32141W        W47950  15.730   7.001   2.577 -0.2709 -0.0696  0.0638
32142W        W47951  16.965  14.127  15.295 -0.0820  0.2656 -0.2002
32143W        W47952  12.679  15.609  14.752  0.2130 -0.0206  0.2933
32144W        W47953  17.294  11.209  15.713  0.1878 -0.0237  0.2297
32145W        W47954   9.006   4.592  16.881 -0.1589  0.2351  0.0573
32146W        W47955   8.040   1.397  12.623 -0.0374 -0.0135 -0.1086
32147W        W47956  10.887   1.689  15.893  0.1597  0.1850 -0.1102
32148W        W47957   3.765   4.801  13.392 -0.4827 -0.0684 -0.0207
32149W        W47958   4.619  14.694   3.835  0.0045  0.2362 -0.0075
32150W        W47959  11.790  13.983   4.134  0.0788 -0.2108  0.1066
32151W        W47960   2.489  13.545   4.125 -0.1557  0.0659 -0.1750
32152W        W47961   3.653  15.103  12.316 -0.1526  0.3607 -0.1754
32153W        W47962  10.233  11.377  15.280 -0.4598 -0.0621  0.3362
32154W        W47963   2.210   4.382   2.446  0.2692 -0.2156  0.2187
32155W        W47964   9.635  14.593   3.792  0.2758  0.2499 -0.4375
32156W        W47965   8.324  16.451  16.240 -0.0669 -0.0662 -0.0637
32157W        W47966  16.262   4.341  15.124 -0.2023  0.0965  0.1257
32158W        W47967   3.499  17.601  12.305 -0.0680 -0.0851  0.3652
32159W        W47968  13.122  15.967   1.138 -0.0418  0.2104 -0.0300
32160W        W47969   0.642  11.016   4.983  0.0241  0.2424  0.1794
32161W        W47970  16.335   6.147  14.819  0.0779  0.1736 -0.0816
32162W        W47971  13.830   9.460   1.924  0.0518 -0.5479  0.1692
32163W        W47972   6.270   8.826  12.495  0.0587 -0.3756  0.3413
32164W        W47973   1.563   5.958   2.268 -0.1543  0.1638 -0.2340
32165W        W47974   1.262   2.849   2.865 -0.2404  0.0849  0.5067
32166W        W47975   6.035  11.473  16.826 -0.1196  0.1186  0.1652
32167W        W47976   1.906  12.808   3.740 -0.1397  0.0755 -0.0601
32168W        W47977   4.716   0.492   1.243 -0.2631  0.0584  0.3025
32169W        W47978  10.616   4.974  15.807 -0.1284 -0.1076  0.1042
32170W        W47979   1.481   6.821   4.887  0.1215 -0.0392 -0.1535
32171W        W47980   3.592   4.753  14.215  0.0455  0.1997 -0.1420
32172W        W47981   8.264  12.253   1.482  0.0895  0.1358 -0.2478
32173W        W47982   2.421  13.945   1.857 -0.2558 -0.1973  0.2603
32174W        W47983   5.498   1.638   3.622  0.0146  0.0006  0.0713
32175W        W47984  10.226   8.021  12.261 -0.0755 -0.2169 -0.3716
32176W        W47985  10.649  14.849  12.347  0.0835  0.2045  0.1578
32177W        W47986   7.089   0.664   5.510  0.3411  0.1257  0.3181
32178W        W47987   4.628   9.644   0.496  0.4980  0.1297  0.1457
32179W        W47988   4.202   7.131   0.583 -0.1638 -0.0458  0.1886
32180W        W47989  12.454  15.070  13.558 -0.0807  0.3505 -0.0252
32181W        W47990   7.359  15.642   3.758 -0.0431  0.2793  0.2237
32182W        W47991   9.632   4.434   4.857 -0.1564 -0.1103 -0.0370
32183W        W47992   8.218  12.478   1.983 -0.0468  0.0015  0.0989
32184W        W47993   2.887   6.527  12.862  0.1927  0.0315 -0.0250
32185W        W47994   2.164   4.794   2.203  0.4141  0.3236  0.0889
32186W        W47995   5.898  12.863   1.342  0.0096  0.3313 -0.4152
32187W        W47996  13.896   7.700   2.173  0.1452 -0.0363  0.2248
32188W        W47997  11.720   3.037   5.823 -0.2430  0.0072 -0.0543
32189W        W47998   1.639   9.011  16.025  0.3210 -0.4067 -0.2830
32190W        W47999   7.778  12.648  11.493  0.2508  0.0295  0.0021
32191W        W48000   4.118  11.522   1.645 -0.0792  0.1135  0.2220
32192W        W48001   2.536   7.850  16.859 -0.1772  0.1457  0.0795
32193W        W48002  11.690  15.908   5.572 -0.1076 -0.0394 -0.1731
32194W        W48003  16.872   0.234  15.836 -0.1629 -0.1419  0.1751
32195W        W48004   5.682   1.227   5.228 -0.0608  0.0562 -0.1401
32196W        W48005   8.396   4.507   2.509  0.1858  0.2671  0.0129
32197W        W48006   5.339  13.728  12.501 -0.0422 -0.3094  0.1984
32198W        W48007  12.296   3.025  14.536 -0.0713 -0.1984 -0.2276
32199W        W48008  15.260  13.503  14.713  0.1676  0.2328  0.2412
32200W        W48009  13.808   6.539  16.138 -0.0214 -0.1902  0.1177
32201W        W48010  14.193  14.659   3.579 -0.1393 -0.0361  0.0590
32202W        W48011   2.320  10.054   2.481 -0.1085 -0.1030  0.0664
32203W        W48012   1.437   0.657  15.160  0.2217 -0.4029 -0.1133
32204W        W48013  16.293   9.394  12.527 -0.0844  0.1878  0.0179
32205W        W48014   7.905   7.808  16.015 -0.0698 -0.0411 -0.2590
32206W        W48015   2.583   1.285  16.556 -0.1471  0.1956 -0.2747
32207W        W48016   9.452   0.824   5.921 -0.0656  0.0899 -0.2519
32208W        W48017   3.410   9.055   0.317  0.3473 -0.0486 -0.1673
32209W        W48018   2.237  13.892  14.506  0.0500 -0.1328  0.1896
32210W        W48019  12.926   4.324   3.433  0.1951 -0.1783 -0.1915
32211W        W48020   2.284  10.154  14.434 -0.1148  0.2096 -0.2418
32212W        W48021  11.808   4.482  14.566 -0.0305  0.1302 -0.1548
32213W        W48022  14.454   8.344  13.222  0.0386  0.0609 -0.2496
32214W        W48023   5.643  13.790   1.593 -0.0531  0.2702 -0.1824
32215W        W48024   3.638  11.185   3.832  0.2308 -0.4607 -0.1548
32216W        W48025   8.445  14.490  13.387  0.1382 -0.0719 -0.1106
32217W        W48026   7.141   0.445   2.114  0.0395 -0.0043  0.0897
32218W        W48027   8.943   2.600   4.842 -0.1285 -0.0116 -0.1704
32219W        W48028   3.817  14.593   2.271  0.1000 -0.1358 -0.1476
32220W        W48029   3.633   2.082   4.867  0.0715  0.3576 -0.3221
32221W        W48030   5.831  16.800  12.686 -0.1835  0.2528  0.0424
32222W        W48031   8.737  10.637   2.018  0.0254 -0.2988  0.0022
32223W        W48032  16.381   5.800  15.543 -0.2112  0.1340 -0.2287
32224W        W48033   5.384  14.348  12.728  0.1860  0.1839 -0.2587
32225W        W48034   4.686   2.261   0.448 -0.1392 -0.1777  0.4175
32226W        W48035  10.329  11.861  15.028  0.0140 -0.0835  0.1172
32227W        W48036  17.330   7.098   5.156  0.0090  0.1298 -0.2040
32228W        W48037   0.595  15.049   0.026 -0.2558 -0.2831 -0.0720
32229W        W48038  14.815   9.075  12.078 -0.1603 -0.0140  0.0041
32230W        W48039   6.424   3.764  13.624  0.2275  0.1116 -0.4635
32231W        W48040   6.168  14.167   4.872  0.0681 -0.0298 -0.2545
32232W        W48041   7.254  15.700  11.474 -0.0891  0.0217  0.2010
32233W        W48042  15.366   6.411   3.869 -0.1417  0.1194  0.2436
32234W        W48043   0.087   0.864  13.223 -0.2203 -0.0698 -0.0007
32235W        W48044   8.664   0.872   4.928  0.0136  0.1635  0.2598
32236W        W48045  10.937   6.037   4.057 -0.0727  0.3986 -0.0075
32237W        W48046   2.834   4.228   1.164 -0.4129  0.0329 -0.2279
32238W        W48047   2.577   5.573  13.652 -0.1237  0.0101 -0.2660
32239W        W48048   3.627  13.683   5.448  0.1074  0.0988  0.1734
32240W        W48049   8.466   8.616   0.867 -0.2063  0.1391 -0.1249
32241W        W48050   9.459   7.046   1.863 -0.1379 -0.1810 -0.2640
32242W        W48051  10.203  15.105  12.118  0.0612  0.0205  0.1725
32243W        W48052  15.343  14.448   5.792 -0.0284  0.2820 -0.2134
32244W        W48053  12.461   0.254  13.368 -0.0767 -0.2078  0.0406
32245W        W48054  15.501   3.823  14.568 -0.1467 -0.1996  0.0734
32246W        W48055   9.506  15.842  15.675 -0.1384  0.2965  0.1772
32247W        W48056  17.620   1.900   5.050 -0.1696  0.1791  0.3515
32248W        W48057   6.771   9.096   0.620  0.0380  0.1270 -0.2653
32249W        W48058  10.718   4.247  13.316 -0.2437 -0.0489 -0.1087
32250W        W48059   3.655   9.476   4.059  0.1004 -0.0962 -0.1504
32251W        W48060  13.902   2.806  15.634 -0.0204  0.2361  0.1109
32252W        W48061  17.028   6.330   4.651 -0.0702 -0.0879  0.0169
32253W        W48062  13.112  15.310   4.359 -0.0936 -0.3583 -0.0182
32254W        W48063   4.799   6.028  11.681  0.1354 -0.1091  0.0400
32255W        W48064   3.770  11.578  14.829 -0.1899  0.0858  0.2032
32256W        W48065  11.909  11.393   6.057  0.1206 -0.0728  0.1367
32257W        W48066  16.777   2.810   2.936  0.2744  0.1669  0.0982
32258W        W48067   9.917   0.404  13.239 -0.1174  0.3031 -0.1514
32259W        W48068   9.996  14.013   5.018 -0.0959 -0.0941  0.2661
32260W        W48069  13.771   6.001  15.797 -0.0534 -0.3479  0.1584
32261W        W48070  13.688   5.700   1.262 -0.0262  0.0810 -0.0550
32262W        W48071   6.424  15.715   4.143 -0.2089  0.3792 -0.0028
32263W        W48072   7.048   6.964   2.244 -0.0070 -0.0565  0.0053
32264W        W48073   5.365   5.941   5.397 -0.0234 -0.0002  0.0554
32265W        W48074  15.777  12.322  10.912  0.1169 -0.0930 -0.3121
32266W        W48075   1.295   9.439   1.725  0.1043 -0.1173 -0.1443
32267W        W48076   5.543   2.236  12.491  0.0283 -0.1905 -0.1335
32268W        W48077  10.083   8.116   0.182 -0.0950  0.1338 -0.0820
32269W        W48078   0.157  16.238  14.883  0.1051 -0.2234 -0.2021
32270W        W48079   8.143   7.059  14.980 -0.0582 -0.2201  0.0966
32271W        W48080   7.954  12.226  14.292  0.0102 -0.1203  0.1878
32272W        W48081  14.653   9.001   0.183  0.1155  0.0700 -0.0027
32273W        W48082   8.364  16.928  11.894  0.2192 -0.0990 -0.3501
32274W        W48083   7.237  16.585  12.826  0.0698  0.0624 -0.0130
32275W        W48084  11.891  14.074   2.538 -0.1342 -0.1575 -0.1991
32276W        W48085   2.069  13.122   5.841  0.3852  0.0653  0.0609
32277W        W48086   7.959  10.654   4.256 -0.0675  0.0425 -0.0109
32278W        W48087   9.525   4.948   6.446 -0.3349  0.2923 -0.2493
32279W        W48088   9.445   2.645   4.622 -0.2474  0.4313  0.2724
32280W        W48089   2.240   3.925   2.686  0.1950 -0.1085 -0.0766
32281W        W48090  16.904  14.256  12.567 -0.1227 -0.1874 -0.2809
32282W        W48091  11.491   5.332  13.816 -0.0630  0.0505  0.0672
32283W        W48092  15.521  14.832  13.288 -0.2762 -0.0869  0.1766
32284W        W48093   2.171  17.340  15.985 -0.1714 -0.4766 -0.1463
32285W        W48094   6.502  17.643  15.505  0.0445 -0.0997 -0.1330
32286W        W48095   6.860   1.120   2.866  0.2264  0.0096  0.0298
32287W        W48096   6.585  16.059  16.045 -0.1225 -0.0858 -0.4096
32288W        W48097   6.126   0.986  12.729 -0.2044 -0.0032 -0.1272
32289W        W48098   2.605   6.231  16.389 -0.1360 -0.0950 -0.0450
32290W        W48099  16.280  14.648  16.304  0.2761 -0.3289  0.0546
32291W        W48100   5.521   5.626  14.263  0.0764  0.2983  0.0822
32292W        W48101   9.632   8.231  13.750  0.1573 -0.2615  0.1258
32293W        W48102   0.955   7.489   4.535  0.1315  0.0582 -0.2495
32294W        W48103   1.906   5.203   2.336  0.0160 -0.2665  0.2398
32295W        W48104   0.196  17.164  13.811 -0.0073 -0.0774  0.0190
32296W        W48105   5.655  17.528   5.118  0.1548 -0.3930 -0.0932
32297W        W48106  15.988   7.004  14.974  0.0853  0.2745  0.2034
32298W        W48107  11.146  16.356  14.241 -0.1407 -0.0944  0.1134
32299W        W48108   8.936   6.611   0.212  0.0201 -0.3671  0.0118
32300W        W48109   2.489  11.376   1.486 -0.0802  0.2523  0.2529
32301W        W48110  12.112   4.167   5.267  0.0570  0.0450 -0.1279
32302W        W48111   8.829  16.082   4.471  0.0527 -0.0018  0.1062
32303W        W48112  11.052  16.022  12.761  0.0641  0.3052 -0.1131
32304W        W48113  15.747   8.640   0.167 -0.0974 -0.0523  0.1018
32305W        W48114  10.331   0.259  16.592 -0.0406 -0.1531  0.0402
32306W        W48115   8.530   8.324   5.012 -0.0441  0.2641  0.1680
32307W        W48116   4.215  12.464   4.105 -0.0887 -0.1852 -0.0744
32308W        W48117   0.490   4.152  16.689  0.1171  0.1960 -0.2830
32309W        W48118   2.046   3.006  13.464 -0.1534 -0.1708  0.2194
32310W        W48119   9.734   3.658  16.550  0.2136  0.3064 -0.1982
32311W        W48120  10.832   7.524  11.759  0.0544  0.2307  0.1071
32312W        W48121   8.307   6.558  16.308  0.1510  0.1289  0.1038
32313W        W48122  10.769  10.102  14.463  0.2025  0.2148 -0.2228
32314W        W48123   8.398   5.621  12.186 -0.1578 -0.0228  0.0971
32315W        W48124  16.737   4.757   5.809 -0.1020  0.1591  0.4310
32316W        W48125  10.256  14.608  12.461 -0.0039 -0.0886  0.1339
32317W        W48126  10.988   8.891  15.953 -0.3743 -0.0505  0.2609
32318W        W48127  11.690   8.759   4.449  0.0744 -0.0819 -0.1488
32319W        W48128  13.144   0.353   3.086 -0.0104 -0.0189  0.0022
32320W        W48129   0.727  16.030   2.695 -0.0425 -0.1383  0.0079
32321W        W48130  17.165   2.292   0.332 -0.1421  0.2759 -0.0006
32322W        W48131   2.799   2.688   1.540 -0.0034 -0.0523 -0.0499
32323W        W48132   8.772   0.366   5.336 -0.1359 -0.1500 -0.0101
32324W        W48133   4.977  14.918   4.120  0.1498 -0.3205  0.1838
32325W        W48134   3.452   3.463  13.497  0.0792 -0.5032  0.1670
32326W        W48135   1.931   7.574   1.781 -0.0698 -0.0039  0.1483
32327W        W48136  13.892   8.720   3.203  0.0932 -0.1239 -0.0025
32328W        W48137   4.180   7.806   3.689 -0.0655  0.1928 -0.1585
32329W        W48138  14.356  13.544   0.771 -0.2320  0.0341 -0.0585
32330W        W48139  15.052  12.355   2.696  0.0139 -0.0788  0.3341
32331W        W48140   8.595   2.982   3.649 -0.0261 -0.0068 -0.0761
32332W        W48141  14.267  14.636  12.127 -0.2975 -0.0212  0.1620
32333W        W48142  10.984   0.142  15.997 -0.0565  0.1169 -0.2504
32334W        W48143  17.701  12.580   0.674 -0.1515 -0.4518 -0.0113
32335W        W48144   2.757   0.149   0.117  0.2803 -0.0148  0.3038
32336W        W48145   0.522  12.625   3.572 -0.0400 -0.0302  0.0455
32337W        W48146  13.925  11.686  16.599 -0.0646 -0.0270  0.0554
32338W        W48147  16.561  14.463   3.997  0.1559 -0.1668 -0.0488
32339W        W48148  16.877   1.578   1.536 -0.1375  0.2655  0.1089
32340W        W48149   4.204   7.516  13.103  0.1358 -0.0020 -0.1850
32341W        W48150  15.838   9.425  16.649  0.0659  0.2989 -0.1829
32342W        W48151  10.232  15.265  16.406  0.0517 -0.0804 -0.2704
32343W        W48152   7.660   5.290   0.547 -0.0505 -0.0027  0.0065
32344W        W48153  15.079   4.055   5.315  0.4041  0.3208 -0.1390
32345W        W48154   1.301   5.556  15.875  0.1922 -0.1250 -0.1305
32346W        W48155  17.140  12.757  11.325  0.1699  0.1727  0.1299
32347W        W48156   1.765  15.328   3.081  0.0179  0.0764  0.0204
32348W        W48157   5.446   1.604  13.329 -0.0712  0.1649  0.1846
32349W        W48158   3.356   5.238   2.116  0.0204 -0.0044  0.1552
32350W        W48159  14.343   0.519  11.919  0.0226 -0.1024 -0.1227
32351W        W48160  12.538  11.168  11.477  0.1699  0.1315  0.0945
32352W        W48161  16.318   6.474  14.264 -0.1314 -0.0505 -0.1301
32353W        W48162   8.346  11.356   1.638 -0.1721  0.0668 -0.1913
32354W        W48163  10.573   9.493  11.094  0.1470 -0.1674 -0.2968
32355W        W48164  11.968   0.949  16.320  0.0816 -0.0199 -0.1579
32356W        W48165  16.789  12.458   1.457  0.0653  0.0361  0.2442
32357W        W48166   1.060   1.650  14.815 -0.0277  0.0073 -0.1600
32358W        W48167  12.111  14.485   0.355 -0.0888 -0.0557  0.3221
32359W        W48168  17.093   5.138   4.056 -0.0158 -0.1547 -0.3234
32360W        W48169   2.879   6.296   5.837  0.0490 -0.1310 -0.0228
32361W        W48170   6.936   4.356  11.759  0.2312 -0.2191 -0.2601
32362W        W48171  14.609  11.718   0.219 -0.4096 -0.1734 -0.2098
32363W        W48172  15.184   6.809   5.143 -0.2827  0.0060 -0.1227
32364W        W48173  11.616   6.032   2.406 -0.1018  0.0367  0.1514
32365W        W48174   8.914  11.954  14.989 -0.0545  0.0058  0.2856
32366W        W48175   0.100   0.054   2.594  0.0157  0.4113  0.0919
32367W        W48176  13.158   1.334  14.320 -0.1833  0.0152  0.0328
32368W        W48177   9.547   5.830   5.175 -0.0376 -0.0449  0.2228
32369W        W48178   0.179  11.699  15.888 -0.2328 -0.0629  0.2935
32370W        W48179  14.693  12.009  14.438 -0.2074 -0.0784  0.0341
32371W        W48180   7.096  10.932   4.791  0.0997 -0.1163 -0.0845
32372W        W48181  15.173   2.026  12.358  0.0300  0.2244  0.1960
32373W        W48182   4.205   3.192  14.279  0.1762 -0.1751 -0.0478
32374W        W48183   0.328   0.308   2.091  0.1238 -0.0422 -0.1712
32375W        W48184   7.286  10.588  14.713 -0.3907  0.1345 -0.1987
32376W        W48185  14.365   3.730   1.316 -0.0998 -0.0394  0.2015
32377W        W48186   7.964   9.033  14.243 -0.0951 -0.0381  0.2437
32378W        W48187   7.911  14.755   2.065  0.1153  0.0845  0.1595
32379W        W48188  10.090   8.856  12.906 -0.1000 -0.0198 -0.0590
32380W        W48189   1.677  15.983   2.561  0.0115 -0.1008 -0.0498
32381W        W48190   0.067  11.811  14.456 -0.0463 -0.2238  0.0187
32382W        W48191  15.194   2.355   0.403 -0.0380 -0.0284 -0.0862
32383W        W48192   0.789   4.104   5.992 -0.1677 -0.2562  0.1424
32384W        W48193   4.172  17.424   5.945 -0.0348 -0.0211 -0.1029
32385W        W48194  12.638  13.615  11.110  0.0622  0.2814 -0.0866
32386W        W48195  14.281  15.406  11.092 -0.1381 -0.1419 -0.0696
32387W        W48196   3.452   2.513  15.764  0.1324  0.0487  0.0969
32388W        W48197  17.172   0.761   5.666  0.0203 -0.0759 -0.3163
32389W        W48198  16.546  15.975  12.548  0.0715  0.1226 -0.0176
32390W        W48199   8.267  12.768   1.236  0.2791 -0.0587 -0.0233
32391W        W48200   8.575  14.712   4.348  0.1766 -0.0691 -0.0570
32392W        W48201  13.928  10.031  15.532 -0.2821 -0.0161  0.2733
32393W        W48202  17.105  14.274   1.705 -0.1309  0.0661  0.0399
32394W        W48203  16.766  17.546  12.359  0.2204 -0.4135 -0.2110
32395W        W48204  12.621  16.374  16.197 -0.2184  0.2156  0.3742
32396W        W48205   9.848   0.658   3.546 -0.1028 -0.0953  0.2191
32397W        W48206   9.178   0.917  15.011 -0.2035 -0.0539  0.0617
32398W        W48207   1.756  14.398   3.522 -0.0732  0.2897  0.0231
32399W        W48208  15.154  14.839   0.221  0.0700  0.2846  0.1644
32400W        W48209  14.389  16.119  15.774 -0.2211 -0.0989 -0.0019
32401W        W48210  12.866  16.115  16.832  0.0450  0.0212 -0.1252
32402W        W48211   1.001  16.014  11.777 -0.0559  0.0835 -0.1585
32403W        W48212   6.919   1.145   5.627  0.1472  0.1647 -0.0457
32404W        W48213   0.396   6.282  13.472 -0.0227  0.0732 -0.3445
32405W        W48214  12.354  14.986   1.131 -0.1653  0.1778 -0.0221
32406W        W48215   4.646   1.352  16.216  0.0709  0.1638  0.2241
32407W        W48216  12.457  16.996   0.191 -0.0205 -0.2196  0.1491
32408W        W48217   0.017   6.001  16.171  0.2121  0.1738 -0.3030
32409W        W48218   5.702  12.869   4.779  0.0597  0.1956  0.0302
32410W        W48219   2.505   8.836   5.669  0.1386  0.2542 -0.1420
32411W        W48220  11.379  16.403   2.823 -0.1574  0.0445 -0.1698
32412W        W48221  11.882   8.774  15.037  0.1116  0.2064  0.0504
32413W        W48222  10.311   6.611  15.489  0.3090  0.2036  0.1347
32414W        W48223  14.369   8.963   1.889 -0.4216 -0.1574  0.1481
32415W        W48224  11.041  11.199  14.726 -0.1045  0.1160  0.2174
32416W        W48225  12.403   6.973   5.207  0.0350 -0.2159  0.1454
32417W        W48226   7.924   0.575   4.453  0.2153 -0.3313 -0.1556
32418W        W48227  11.076   7.927   0.058 -0.0805 -0.0275  0.1328
32419W        W48228  13.122  14.811   1.478  0.1370 -0.0347 -0.1395
32420W        W48229  10.176   9.087   2.390 -0.0414 -0.0888 -0.2315
32421W        W48230   5.586   8.200   5.054 -0.1043 -0.0436  0.5068
32422W        W48231  11.088   4.935   1.675 -0.1756 -0.0526  0.0018
32423W        W48232   2.431   5.233   1.374  0.2016 -0.2047 -0.0496
32424W        W48233   5.945  10.149  14.115 -0.0225 -0.0434 -0.0793
32425W        W48234  15.022   7.771   2.816 -0.1017 -0.0615  0.2328
32426W        W48235  14.921  16.651   5.386 -0.1361  0.3029 -0.1374
32427W        W48236  13.814  12.645   5.763  0.3222  0.4514  0.2224
32428W        W48237  13.636  13.914  13.721 -0.0400  0.0052  0.2425
32429W        W48238   7.517   4.733   3.735 -0.0893  0.0685  0.0260
32430W        W48239  14.270  13.633  15.455  0.4142  0.1492  0.1954
32431W        W48240   5.370  15.705  15.872  0.0222 -0.1824 -0.0149
32432W        W48241  10.562  10.351   5.900  0.2726  0.1784 -0.0694
32433W        W48242  13.033   3.788   6.133  0.0750 -0.1775 -0.2833
32434W        W48243  15.605   1.512   5.059  0.0069 -0.0293 -0.0174
32435W        W48244  13.997  10.589  15.455 -0.1067 -0.1071 -0.1416
32436W        W48245  13.737   5.437  13.901  0.0175  0.0058 -0.1236
32437W        W48246  15.059   5.161  14.720 -0.0320  0.1157 -0.0038
32438W        W48247   9.417   6.081  12.173  0.0538 -0.1659 -0.2164
32439W        W48248  15.244   5.340  13.833  0.2004 -0.1157  0.0524
32440W        W48249   2.794   8.357  15.137 -0.2750  0.0916  0.4380
32441W        W48250   3.530   6.691   4.346  0.0529 -0.1537 -0.0649
32442W        W48251   0.843   9.637   0.257 -0.2980  0.0669  0.0817
32443W        W48252   2.080   9.660  12.851 -0.0919 -0.1351  0.1025
32444W        W48253  13.205  10.128  11.465  0.0704 -0.0823  0.0902
32445W        W48254   4.737  17.247  13.928 -0.0618  0.1927 -0.0548
32446W        W48255   5.654   7.140  15.306 -0.1305  0.0512 -0.0174
32447W        W48256  12.045   2.417   5.085  0.0647 -0.2587 -0.1600
32448W        W48257  16.348   1.772  13.316 -0.1247 -0.0213  0.0634
32449W        W48258   9.685   9.793  11.970 -0.0904 -0.0264  0.2534
32450W        W48259  11.530  11.105  11.663  0.1303 -0.0279  0.0473
32451W        W48260   5.446   9.392   4.363  0.2085 -0.1712 -0.2639
32452W        W48261   5.327   3.417  11.949 -0.1308 -0.0836  0.2691
32453W        W48262   4.209  16.789  15.064  0.2755 -0.1221 -0.1068
32454W        W48263   3.930   4.873  14.960 -0.3129 -0.2718 -0.1513
32455W        W48264  14.258  12.945  13.007  0.2597 -0.2324  0.1068
32456W        W48265  13.556   6.925  13.908 -0.0036 -0.0565  0.2686
32457W        W48266  16.706  15.322   5.237 -0.2461 -0.1579 -0.0482
32458W        W48267   8.220  13.955   0.398 -0.1424  0.1875  0.1337
32459W        W48268   4.333   2.497   0.160  0.1601  0.0652 -0.1619
32460W        W48269  13.099   9.457   2.478 -0.0800  0.2884 -0.0226
32461W        W48270   3.953   1.391   1.916  0.0191 -0.0746  0.2661
32462W        W48271   5.794  14.038  11.039 -0.3934  0.1196  0.1177
32463W        W48272  17.508  13.870  15.206  0.2134 -0.0743 -0.0032
32464W        W48273   1.320  16.145   0.341 -0.1270 -0.3962 -0.1385
32465W        W48274   7.940  16.709  13.816  0.0836  0.5340  0.0258
32466W        W48275   7.003   7.079  15.526  0.1626  0.2142 -0.0295
32467W        W48276  15.562  13.122  12.133  0.0029  0.0238  0.1058
32468W        W48277  17.710   3.216  16.405  0.2486  0.0873 -0.2902
32469W        W48278   5.811   7.625  13.987 -0.2290  0.3074 -0.4508
32470W        W48279  12.939  13.286   0.679  0.1948  0.1861 -0.3199
32471W        W48280  10.369   6.172   5.665  0.2108 -0.2069  0.2067
32472W        W48281  16.584  15.990  16.549  0.3771 -0.1719  0.2315
32473W        W48282   8.073   8.111  15.647  0.2926  0.3256  0.1649
32474W        W48283   8.083  14.287   0.082 -0.4095 -0.2652  0.0628
32475W        W48284   9.316  14.756  13.777  0.0034  0.0594  0.2008
32476W        W48285  11.152   8.853   4.736 -0.1595 -0.0690 -0.1936
32477W        W48286  12.160   0.848  14.532 -0.0759  0.1034  0.0625
32478W        W48287   6.157  15.812   3.721  0.1712 -0.0360  0.0489
32479W        W48288   6.398   6.634   2.989  0.1314  0.0843 -0.0725
32480W        W48289   6.116   4.394  16.867  0.1140  0.0526 -0.1447
32481W        W48290  10.173  12.804  16.603  0.1220 -0.0121  0.0499
32482W        W48291   6.036   6.600  13.529  0.3894 -0.0634  0.1018
32483W        W48292  12.574   6.795   0.380  0.0184  0.1047 -0.0232
32484W        W48293  16.060   2.077  13.985 -0.2056  0.0827  0.3274
32485W        W48294  10.579   2.583  14.614 -0.1703  0.3276  0.1738
32486W        W48295  11.384   6.625  12.079 -0.2097  0.0154  0.0429
32487W        W48296  14.074   8.404   5.115  0.1848  0.3189  0.1308
32488W        W48297   7.009  11.222   0.004 -0.1847 -0.2319 -0.1545
32489W        W48298  15.076  14.351   0.192  0.1022  0.1986 -0.0736
32490W        W48299   3.481   9.387  16.257 -0.1593  0.1670  0.1751
32491W        W48300   7.618  13.365  15.059  0.1544  0.1753  0.1520
32492W        W48301   4.050   4.509  16.796 -0.0410  0.0764 -0.0894
32493W        W48302  12.508   2.778  12.936  0.0144 -0.0740  0.0518
32494W        W48303   3.679   8.782  16.996 -0.1142 -0.1280  0.0794
32495W        W48304   7.162  14.590  15.793  0.2088  0.2414 -0.1140
32496W        W48305   8.666   3.520  15.786  0.1524  0.1924  0.0902
32497W        W48306   1.142   6.912   0.972 -0.0991 -0.0021  0.0095
32498W        W48307   3.710   7.732   2.357  0.4733  0.0756 -0.1097
32499W        W48308   5.674   1.432   2.487 -0.1395 -0.2001 -0.0414
32500W        W48309  15.680   9.029   0.587 -0.0319 -0.1537 -0.0252
32501W        W48310  17.367  15.867   5.268  0.4228 -0.1056  0.0373
32502W        W48311   1.444  15.006  14.541 -0.1340  0.0868 -0.1816
32503W        W48312   4.701  16.699   0.450  0.1999 -0.3144  0.1640
32504W        W48313   0.529  15.459  11.649  0.2041 -0.2269  0.0464
32505W        W48314  12.608   4.455  14.018  0.1218 -0.0312 -0.1701
32506W        W48315  11.957   2.324   3.250  0.0212  0.2792 -0.0795
32507W        W48316   8.471  11.493   4.173 -0.1312  0.1607  0.2679
32508W        W48317   6.347  17.013  12.764 -0.0333 -0.0056  0.2504
32509W        W48318   2.095  15.644   4.367  0.1391  0.0781 -0.1715
32510W        W48319  14.677  13.839  13.681 -0.3441 -0.1122 -0.3991
32511W        W48320   5.746  15.731   2.233  0.1677  0.1618  0.2820
32512W        W48321  15.422  12.599  11.852  0.0903  0.0204 -0.0592
32513W        W48322  12.436  12.199  15.746  0.1906 -0.1382  0.0874
32514W        W48323  15.504   1.322  11.527  0.0397 -0.0686 -0.2675
32515W        W48324  17.678   1.710  16.083  0.1274  0.0751  0.0133
32516W        W48325   2.101  12.878  14.790 -0.0264  0.2141 -0.1976
32517W        W48326   4.107   3.577  12.747 -0.2652  0.0753 -0.1956
32518W        W48327   4.231   3.658   1.354  0.1434  0.2745  0.1872
32519W        W48328  16.234  15.562  16.664  0.0776 -0.0573 -0.3724
32520W        W48329  10.717   0.281  14.236 -0.1927  0.2114 -0.0200
32521W        W48330  13.025   4.589   5.466  0.0960  0.2054 -0.2077
32522W        W48331   2.550   7.225   3.287  0.3321  0.1472  0.2199
32523W        W48332   4.328   6.285   1.914  0.0236  0.1781 -0.0875
32524W        W48333   4.351  12.324   3.598  0.1349  0.1777 -0.0538
32525W        W48334   8.425   4.692  16.688 -0.0962 -0.1029  0.1734
32526W        W48335   5.336  14.821  16.319 -0.0354 -0.1065  0.1154
32527W        W48336  13.616  14.202   2.950 -0.1051  0.1274 -0.1216
32528W        W48337  10.859  14.376   0.665  0.2742 -0.1702 -0.0418
32529W        W48338   6.886  16.950  16.931  0.1720 -0.1503 -0.2582
32530W        W48339  12.005  12.419  15.514  0.2732  0.1519  0.2582
32531W        W48340  13.990   3.325  16.351 -0.1602  0.1423  0.2436
32532W        W48341   4.496  13.213  15.882  0.0965  0.1343  0.1894
32533W        W48342   5.585   6.430  15.743 -0.3418 -0.1561 -0.3647
32534W        W48343   6.977  17.060   4.495  0.0364  0.1989 -0.0196
32535W        W48344   7.218  11.267  16.190 -0.1767  0.1792 -0.0273
32536W        W48345   3.389   3.052   5.316  0.1070 -0.0227 -0.2071
32537W        W48346  12.186  10.504   3.087  0.0711 -0.1759  0.0932
32538W        W48347   7.055   3.453  15.718 -0.1420  0.0839 -0.0080
32539W        W48348  16.817  10.639  13.959  0.0700  0.0600 -0.0303
32540W        W48349  16.148  15.628  12.745  0.1786 -0.0962  0.1883
32541W        W48350   5.872  17.549  13.344  0.0082 -0.1035  0.0511
32542W        W48351  17.657  12.131  14.077  0.1426  0.1236  0.2147
32543W        W48352   4.806   9.213   0.282 -0.0810 -0.2699  0.1015
32544W        W48353   6.360  16.059  11.942  0.0308 -0.0247  0.0370
32545W        W48354  15.796  14.679  12.888  0.3751 -0.0998  0.0223
32546W        W48355   7.840  17.417   3.852 -0.1140  0.1680  0.0182
32547W        W48356  12.905  11.433  15.643 -0.2115  0.1540 -0.1241
32548W        W48357  10.498  16.102  12.948  0.1333  0.1821  0.0834
32549W        W48358  11.155  15.349  11.086  0.0910  0.2104  0.1008
32550W        W48359  14.858  17.558  14.169  0.2422  0.0437 -0.2178
32551W        W48360   2.921   5.248   2.907 -0.1281 -0.1898 -0.1315
32552W        W48361   4.946   1.910   5.127  0.1415 -0.0948  0.0445
32553W        W48362  15.515   0.292  16.517 -0.0841  0.1262 -0.0815
32554W        W48363  17.453  11.523  13.118  0.1286  0.0146  0.2188
32555W        W48364   2.427   3.528  14.450  0.0444 -0.0486 -0.0248
32556W        W48365   3.518  12.939   4.327 -0.1040 -0.1928  0.0734
32557W        W48366   1.677  15.490  14.127  0.2481 -0.0914  0.1859
32558W        W48367   0.711   6.536  13.113  0.3434  0.1632  0.0848
32559W        W48368   7.806   3.914   5.097  0.0498 -0.1327 -0.0436
32560W        W48369   2.681   2.862   4.205 -0.0452  0.1159 -0.2567
32561W        W48370   7.937   5.287  12.185  0.1299 -0.0073 -0.1554
32562W        W48371   2.874   6.462  15.601 -0.0227 -0.1648  0.1997
32563W        W48372   9.761   7.104  13.719 -0.4086 -0.2935  0.1234
32564W        W48373  15.356  14.969  14.478  0.2425  0.0255  0.1689
32565W        W48374  11.376  17.241   5.237  0.1942 -0.0460 -0.2636
32566W        W48375   1.066  12.640  11.253  0.4389  0.0758 -0.1099
32567W        W48376  12.499   3.294   5.494  0.2899  0.1513 -0.2032
32568W        W48377   2.616   3.261   2.083 -0.0177 -0.2539  0.1270
32569W        W48378   2.405  13.921  15.550 -0.1630  0.0628 -0.2766
32570W        W48379   8.652  11.640  14.608 -0.0795 -0.3499 -0.1185
32571W        W48380   6.575   3.566  15.654 -0.1142  0.0944 -0.2630
32572W        W48381  13.173  11.172  12.169  0.1306 -0.1235 -0.4062
32573W        W48382  17.366   0.142  13.172 -0.2493  0.0909 -0.2026
32574W        W48383   0.990  16.245  14.453  0.4117  0.1226 -0.0149
32575W        W48384  10.250   2.537  16.279 -0.0713 -0.1958 -0.0751
32576W        W48385  13.220   1.023  15.766 -0.0169 -0.3929 -0.0371
32577W        W48386   3.828   9.992   5.752 -0.1599  0.1792  0.0640
32578W        W48387   8.005  10.973   3.738  0.4363  0.2560 -0.0116
32579W        W48388   5.884  13.975   5.368 -0.0902  0.1194  0.1795
32580W        W48389  13.528  14.714  13.205  0.2406 -0.0332  0.0209
32581W        W48390  15.347  14.245  15.911  0.1089 -0.0341 -0.0808
32582W        W48391   2.975   3.526   1.734 -0.0556 -0.0605 -0.2916
32583W        W48392  17.566   2.435   3.917  0.1195 -0.0335  0.2714
32584W        W48393   6.688   8.443   5.046  0.1686 -0.2107  0.0396
32585W        W48394  16.060   6.236   0.856 -0.1812  0.2148 -0.1622
32586W        W48395  11.796   3.104  16.304 -0.1293 -0.1046 -0.0942
32587W        W48396  16.225  12.336  16.900 -0.2357 -0.0699  0.0440
32588W        W48397   9.160   9.960   5.130 -0.3712  0.0271  0.1319
32589W        W48398  11.117   3.262   0.646  0.3332 -0.1073  0.3211
32590W        W48399   9.366   6.267   1.976  0.0594  0.3547 -0.1000
32591W        W48400  14.403   8.818   5.891 -0.2505 -0.0140 -0.0448
32592W        W48401  16.046   8.050   4.506 -0.1328 -0.4262  0.0493
32593W        W48402   3.057   8.282   3.921 -0.2587  0.3260  0.0354
32594W        W48403   4.011   8.450   0.861 -0.0616 -0.0741  0.3655
32595W        W48404  17.175  10.731  15.528  0.0692  0.0854  0.1407
32596W        W48405  11.369  11.033   1.829 -0.0270  0.1824 -0.1992
32597W        W48406   6.658  13.397   3.258 -0.0079  0.0445 -0.2940
32598W        W48407   1.021  11.360   4.904 -0.1932 -0.2542  0.1967
32599W        W48408   7.693  12.229  13.708  0.0465  0.2470 -0.1153
32600W        W48409  11.093   5.400   1.866 -0.1688  0.0838 -0.0247
32601W        W48410   6.671   1.723   0.178 -0.0136  0.1845 -0.2852
32602W        W48411   2.038   9.556  12.354  0.0738  0.0801 -0.0022
32603W        W48412   7.176   5.296  14.977  0.1548  0.0457 -0.1370
32604W        W48413   9.892   8.760   1.141  0.0572 -0.0320  0.0111
32605W        W48414  13.422  16.256  15.807 -0.1708  0.0482 -0.0436
32606W        W48415   7.925  14.893   1.052 -0.0174 -0.0438  0.0185
32607W        W48416   5.011   1.281   4.376  0.1831  0.0790 -0.1208
32608W        W48417  14.935   4.789  13.053 -0.1016 -0.1610 -0.0096
32609W        W48418  10.474  16.728  10.976 -0.0061 -0.0502 -0.0961
32610W        W48419  16.532   5.697  11.911 -0.2396 -0.1291 -0.0883
32611W        W48420   9.329  13.671  16.386  0.0003  0.0146 -0.4397
32612W        W48421  11.777   9.245  14.877 -0.0224  0.0336 -0.0472
32613W        W48422  10.757   4.818   5.952  0.2045 -0.1393  0.1179
32614W        W48423   0.631  13.744  13.641  0.1434  0.3809 -0.0672
32615W        W48424   7.620  14.282  10.748  0.3038 -0.0281 -0.1525
32616W        W48425   6.473   2.272  11.434 -0.0434 -0.0592 -0.1560
32617W        W48426   9.691   5.085  14.068  0.2320  0.2491  0.3330
32618W        W48427  13.131  13.555   3.715  0.0033  0.1538 -0.2058
32619W        W48428  15.675   4.221   4.142  0.1638  0.1127 -0.3323
32620W        W48429  10.390   7.987  14.991 -0.0686  0.0904  0.1758
32621W        W48430   4.327  12.717   1.174 -0.1225  0.0858 -0.1903
32622W        W48431   7.441   3.341  15.320 -0.2740  0.0383 -0.1780
32623W        W48432   8.474   2.528   6.611 -0.0396 -0.0105  0.1100
32624W        W48433   0.688   5.009   5.677 -0.3398 -0.2457  0.1314
32625W        W48434   3.161   0.187   6.666 -0.3149 -0.2214 -0.1036
32626W        W48435   6.967  12.461  12.541 -0.4588  0.2443  0.0464
32627W        W48436  15.704   2.317  13.659 -0.2442  0.1812  0.1988
32628W        W48437  14.329   5.115  15.106  0.4455 -0.1484 -0.1095
32629W        W48438   5.405  10.286   4.886 -0.3702  0.1290 -0.0112
32630W        W48439   8.344  14.220  11.375 -0.3588 -0.2907 -0.4022
32631W        W48440  16.961  10.490   3.624  0.2226 -0.1046  0.1120
32632W        W48441   4.306  12.130   1.265  0.1000 -0.2256 -0.0862
32633W        W48442   7.891  12.716  13.576  0.1392 -0.0893  0.1503
32634W        W48443  12.309   8.507  13.978 -0.2405 -0.0709  0.1163
32635W        W48444  13.028   9.102  14.196  0.1760 -0.1621  0.1478
32636W        W48445   6.715   8.750   0.999 -0.1142  0.0792 -0.0776
32637W        W48446   6.372   6.680   4.651 -0.0167 -0.0359  0.2908
32638W        W48447   8.327   3.427   0.256  0.1234  0.1508  0.0830
32639W        W48448   7.029  16.070  16.823 -0.0891 -0.0856  0.2255
32640W        W48449   2.850   6.279   1.920  0.0057 -0.0615  0.3720
32641W        W48450   7.413   1.683   3.240 -0.0421  0.2259 -0.0606
32642W        W48451   3.215   3.474  16.707 -0.1114 -0.1379  0.3078
32643W        W48452   4.402   6.098  11.995  0.3923 -0.1399  0.0583
32644W        W48453   6.038  12.272  16.103 -0.0148  0.1858 -0.2793
32645W        W48454  11.125   6.193  12.924 -0.0274  0.0353 -0.0132
32646W        W48455  16.149   8.390   5.619 -0.1294  0.1820  0.1168
32647W        W48456   9.281  13.728   3.524 -0.4041  0.1078  0.1185
32648W        W48457   0.483   0.321   2.916  0.0190  0.0903  0.1495
32649W        W48458  13.629  14.619  15.349  0.1694 -0.0996 -0.4313
32650W        W48459  15.021  10.515  12.145 -0.3557 -0.0598 -0.1616
32651W        W48460   6.730   6.884   4.347  0.0051 -0.0715  0.0166
32652W        W48461  11.973   8.294  16.791  0.2190 -0.2112 -0.0798
32653W        W48462  12.784  10.098   6.190 -0.1717 -0.0028 -0.1833
32654W        W48463   7.751  17.553   1.132  0.2093  0.0142 -0.1513
32655W        W48464  13.127   0.444  15.530  0.0493  0.0596  0.1108
32656W        W48465   8.561  17.572   4.730 -0.1059 -0.0487  0.2472
32657W        W48466   5.581   6.492   3.168  0.1067 -0.0757 -0.0198
32658W        W48467  13.893  16.101   0.550  0.0969 -0.1245 -0.0755
32659ION     NA48468   1.663  11.307  16.909  0.1219 -0.0306  0.0761
32660ION     NA48469  15.952   6.429   2.463  0.0477  0.0557 -0.2087
32661ION     NA48470  16.031   9.283  10.703 -0.1271  0.1131  0.1611
32662ION     NA48471  16.882   3.178  11.191 -0.1859 -0.1339  0.0315
32663ION     NA48472   5.359   9.008  10.805 -0.3452 -0.2390  0.1414
32664ION     NA48473   0.362   8.068  11.387  0.3237  0.0218  0.0886
32665ION     NA48474   3.880  12.517  10.658  0.3239 -0.0121 -0.2011
32666ION     NA48475   7.954  16.374  10.437 -0.1449  0.0786 -0.0080
32667ION     NA48476   9.321  17.676  10.332 -0.0298  0.2297  0.3333
32668ION     NA48477   9.260   1.292  10.712  0.0415 -0.1986 -0.1193
32669ION     NA48478   1.851  13.764  10.548 -0.0360  0.1084 -0.0933
32670ION     NA48479  12.113  12.457  10.760 -0.0022 -0.0086  0.2751
32671ION     NA48480  17.572  10.202  10.721 -0.0479 -0.3164  0.2032
32672ION     NA48481  10.340   7.744  10.815  0.0744  0.1702  0.0550
32673ION     NA48482   1.817  11.934   0.329  0.1031 -0.0626  0.0062
32674ION     NA48483  12.136   0.157  10.649  0.0570  0.1326 -0.3943
32675ION     NA48484   3.806  17.224  13.760  0.0264  0.1716  0.0704
32676ION     NA48485  11.227  13.909  10.069 -0.1386  0.2627 -0.0883
32677ION     NA48486   1.753  13.236   6.387  0.2264 -0.1908  0.1148
32678ION     NA48487   9.885   8.660  11.545 -0.2510  0.0230  0.0014
32679ION     NA48488   2.775  14.872   6.128  0.1325  0.1566  0.0900
32680ION     NA48489  16.240  11.111  14.102  0.2632  0.3074 -0.1508
32681ION     NA48490   8.313  15.605  10.342 -0.0331 -0.3123 -0.2524
32682ION     NA48491  13.857   5.677   0.762 -0.0986  0.0058 -0.3523
32683ION     NA48492   6.111  13.149   5.872  0.0879 -0.0471 -0.3924
32684ION     NA48493  13.571  10.308  13.255 -0.1152  0.1476 -0.2465
32685ION     NA48494  12.107   1.498  12.323 -0.0342 -0.0394  0.1713
32686ION     NA48495  17.553   6.380  11.260 -0.0591  0.0563  0.0777
32687ION     NA48496   2.846   6.504  11.093 -0.2848 -0.0080 -0.2864
32688ION     NA48497   2.654  11.922  10.800 -0.1355  0.1071  0.0273
32689ION     NA48498   9.364  13.465   9.830 -0.4438  0.0404  0.5190
32690ION     NA48499   8.125  14.274  10.116 -0.2090  0.0071  0.2210
32691ION     NA48500   9.763   6.298  11.208  0.3056  0.0675  0.2937
32692ION     NA48501   0.177  17.328   3.782  0.0652 -0.1522  0.0718
32693ION     NA48502   6.025   8.740  15.219 -0.0873  0.2213 -0.0125
32694ION     NA48503  12.486  15.028  11.555  0.2368  0.1091 -0.0345
32695ION     NA48504   1.795   3.149   6.540 -0.2781  0.1046  0.0274
32696ION     NA48505   8.309  16.674  10.205 -0.2515  0.0778  0.0678
32697ION     NA48506   5.098  12.902  10.780 -0.0256 -0.0205 -0.0475
32698ION     NA48507   0.233   0.656   6.079  0.2166  0.1575 -0.2283
32699ION     NA48508   3.528  12.017   4.482  0.0537  0.1691  0.1878
32700ION     NA48509   9.747  10.736  10.524 -0.2788  0.0100 -0.3040
32701ION     NA48510  11.151  15.968   0.360 -0.0301 -0.0059 -0.1419
32702ION     NA48511   9.945   3.682  11.400  0.0926  0.2850  0.2114
32703ION     NA48512  10.423   9.348  10.601  0.3026  0.2726  0.0307
32704ION     NA48513   9.097  16.232  10.203  0.1600  0.0175  0.1663
32705ION     NA48514   5.957   3.976  11.158  0.2757  0.2273  0.4327
32706ION     NA48515   4.920   3.853  12.983  0.1393 -0.1264 -0.1390
32707ION     NA48516  12.106  15.531   5.744  0.1254  0.0933 -0.0581
32708ION     NA48517  14.749  16.223  16.614 -0.3761 -0.2327  0.0307
32709ION     NA48518   6.438   1.789   6.042 -0.2814  0.0464  0.0230
32710ION     NA48519   8.031   8.570  14.279  0.1550 -0.0152 -0.0332
32711ION     NA48520   3.984   7.895  11.071 -0.1924  0.1732  0.0774
32712ION     NA48521   1.196  15.101   5.988 -0.1916  0.2446  0.1135
32713ION     NA48522   4.122  15.860  10.991  0.2750  0.2438  0.0250
32714ION     NA48523   3.175  17.421  16.424  0.0735 -0.0725 -0.1323
32715ION     NA48524   3.600  14.065  10.653 -0.3169 -0.0327 -0.3189
32716ION     NA48525   6.240  15.532   5.932 -0.0325  0.1875  0.1779
32717ION     NA48526   1.228   0.779  11.469 -0.0048  0.1486  0.2428
32718ION     NA48527   9.946  11.539   5.707 -0.0258  0.2565 -0.0823
32719ION     NA48528   8.239   7.679   6.144  0.0135 -0.0133  0.0494
32720ION     NA48529   3.072   4.502  10.844  0.3412  0.1970  0.3541
32721ION     NA48530  12.992   3.045   4.653  0.1125  0.1242 -0.0730
32722ION     NA48531  12.328  15.998  14.629 -0.0675  0.1869  0.3559
32723ION     NA48532  14.153   4.197   4.324  0.1457 -0.1502  0.1324
32724ION     NA48533   3.950   2.824  10.880 -0.2021 -0.3399  0.4427
32725ION     NA48534   8.207   3.370  11.041  0.0769  0.0970 -0.1865
32726ION     NA48535  14.553  12.868  10.506  0.0101  0.0719 -0.3394
32727ION     NA48536   4.944  17.268   6.404  0.2159  0.1054  0.0263
32728ION     NA48537   0.348  14.259   0.236  0.1746  0.1645 -0.2959
32729ION     NA48538   0.708   7.995  10.937  0.1233  0.2886  0.0801
32730ION     NA48539   3.620  15.721  11.071 -0.1708  0.0862 -0.2263
32731ION     NA48540   6.032   6.056  10.966 -0.0207 -0.1463  0.1247
32732ION     NA48541   5.336   1.180   6.131 -0.0147  0.3059  0.1553
32733ION     NA48542  15.597   2.415  10.956 -0.2810 -0.0833 -0.1998
32734ION     NA48543  11.762  11.353  10.630 -0.4670  0.0327  0.0311
32735ION     NA48544   7.328   6.553  11.336 -0.0993  0.1278  0.0392
32736ION     NA48545   8.893  14.835   5.573  0.3054 -0.1750 -0.2603
32737ION     NA48546  17.460  12.946  11.002 -0.3334 -0.2368  0.1242
32738ION     NA48547   5.228  16.359  10.823  0.0404 -0.3693  0.1854
32739ION     NA48548   5.334   0.402  11.157  0.2859 -0.1991 -0.0184
32740ION     NA48549  17.258   8.950  10.963  0.0049  0.2718 -0.2363
32741ION     NA48550  15.501  15.444  10.189 -0.3127 -0.0875 -0.4649
32742ION     NA48551  16.026   5.076   0.694  0.0589 -0.3290 -0.2328
32743ION     NA48552   0.155  14.164  10.520 -0.0738  0.1913  0.0096
32744ION     NA48553   3.752   9.204  10.893  0.0088 -0.4684  0.0574
32745ION     NA48554   8.663   8.900  12.914  0.1111 -0.1522  0.1940
32746ION     NA48555   1.750   5.040  13.408  0.5758  0.0132  0.0213
32747ION     NA48556  13.725  12.870  10.581  0.0610 -0.0639  0.1196
32748ION     NA48557   7.830  14.849  10.786 -0.0076  0.1922  0.2474
32749ION     NA48558   2.970   9.599  10.818  0.1896 -0.1554 -0.1281
32750ION     NA48559  13.358   5.139  11.509 -0.0530  0.3357  0.0041
32751ION     NA48560  15.701  10.730   1.386 -0.3117  0.0534  0.0172
32752ION     NA48561  14.671  10.714  11.791  0.2229 -0.2284 -0.0717
32753ION     NA48562   7.177   8.593  10.840  0.1527  0.0938 -0.0680
32754ION     NA48563  17.073  11.717   5.495 -0.1489  0.1445  0.2744
32755ION     NA48564   4.545   7.220   6.261 -0.3375  0.0127 -0.2311
32756ION     NA48565   7.954   7.152  11.274  0.1067  0.1209 -0.1826
32757ION     NA48566   4.755   2.235   5.537 -0.2022 -0.3323  0.0943
32758ION     NA48567   0.781  14.502   2.723  0.0668  0.0706 -0.2910
32759ION     NA48568   4.291  14.949  10.658 -0.0084  0.3440 -0.0379
32760ION     NA48569   6.294  11.095  10.974 -0.2431  0.1671 -0.1390
32761ION     NA48570   1.732   1.514  11.264 -0.1334  0.1383  0.4001
32762ION     NA48571  16.409   6.923   1.349 -0.1565 -0.0173 -0.0852
32763ION     NA48572  15.930   3.154  11.300  0.0238  0.0786 -0.1055
32764ION     NA48573  17.498  13.824  10.637  0.1161  0.1869 -0.0248
32765ION     NA48574   0.075   0.354  10.910 -0.0938 -0.4707  0.2310
32766ION     NA48575   4.461   9.674  11.341  0.2398 -0.3171  0.2528
32767ION     NA48576  11.661   3.053  11.022  0.1045  0.2480  0.5495
32768ION     NA48577  12.590   5.212  11.445  0.0384  0.3559  0.1119
32769ION     NA48578   3.270  16.073  10.961 -0.2040 -0.0605 -0.0176
32770ION     NA48579  13.934   2.065   2.211  0.0739 -0.1773  0.0713
32771ION     NA48580  16.729   5.047  11.216  0.1189 -0.0784  0.0079
32772ION     NA48581  10.312   5.064  11.378  0.3613 -0.2050  0.0838
32773ION     NA48582   8.158  15.442   5.443  0.2930  0.2849  0.0155
32774ION     NA48583  12.290  15.269  10.236 -0.1333  0.0988  0.1184
32775ION     NA48584   4.388   6.003   0.678 -0.2103 -0.0724 -0.0790
32776ION     NA48585   5.454  13.813  10.562  0.0626 -0.0414 -0.1046
32777ION     NA48586  13.313  11.523   6.272  0.1668 -0.1128 -0.0032
32778ION     NA48587   1.899  15.649   5.661 -0.2536 -0.1105  0.2151
32779ION     NA48588   0.136   8.323   2.652  0.0683 -0.0202  0.2430
32780ION     NA48589   6.599   1.187   4.375  0.1948  0.0374 -0.0134
32781ION     NA48590  10.606  11.769  13.536  0.0818  0.1026  0.1448
32782ION     NA48591   0.110  12.358   2.350 -0.2595 -0.1359 -0.1146
32783ION     NA48592   7.141  14.745   2.120  0.1597 -0.1336  0.2406
32784ION     NA48593  12.850  11.153  10.462 -0.0846 -0.1054 -0.1811
32785ION     NA48594   2.107   9.965   6.252  0.1277 -0.0095  0.1113
32786ION     NA48595   2.270  10.175  10.991  0.2593 -0.0077 -0.2213
32787ION     NA48596  11.829  15.963   4.039  0.1132 -0.1473 -0.1547
32788ION     NA48597  11.322   8.858  10.743  0.2512 -0.2628 -0.1694
32789ION     NA48598  10.955  13.567  12.858 -0.2866 -0.2904  0.2169
32790ION     NA48599  10.360  15.651   5.356 -0.3151 -0.3004  0.1026
32791ION     NA48600  13.723   0.415  10.753 -0.0360 -0.1626  0.0648
32792ION     NA48601   9.529   5.212  11.170 -0.1552  0.1847  0.0831
32793ION     NA48602  17.192   1.056  11.012 -0.0453  0.1133 -0.2743
32794ION     NA48603  15.812  14.534   4.698  0.0668 -0.0524  0.1795
32795ION     NA48604  11.760  13.110  10.260  0.1199 -0.0058  0.0399
32796ION     NA48605   5.565   6.790  10.899 -0.0864 -0.1879 -0.0912
32797ION     NA48606  11.579  15.668  11.049  0.2308 -0.1665 -0.0112
32798ION     NA48607   1.174   7.175  11.051  0.1926 -0.0139  0.1228
32799ION     NA48608  11.165  10.456  10.614  0.1280 -0.3654  0.1947
32800ION     NA48609   0.987   0.976  11.044 -0.0482  0.0953  0.2952
32801ION     NA48610   6.361   8.963  10.945  0.1057  0.0147 -0.2702
32802ION     NA48611  16.643  13.478  10.823  0.0995 -0.0267  0.3030
32803ION     NA48612  16.276   1.153  11.943  0.1152  0.0333  0.0409
32804ION     NA48613   7.305   8.003   5.891 -0.1697 -0.1617  0.0459
32805ION     NA48614   3.389   4.746   2.265  0.2278  0.0776  0.1011
32806ION     NA48615  10.261  15.278  14.185 -0.4610 -0.2461 -0.0790
32807ION     NA48616   4.788   7.312  10.928  0.2885 -0.0306 -0.1547
32808ION     NA48617  17.682  17.286  10.765  0.2440  0.1551 -0.1942
32809ION     NA48618   8.045   2.334   4.039 -0.0428  0.0907  0.1448
32810ION     NA48619  13.536  10.731  10.513  0.1416 -0.4379 -0.0044
32811ION     NA48620   7.584   2.104   5.551 -0.3613 -0.0071 -0.1541
32812ION     NA48621  15.863  12.008   6.138  0.0964 -0.1201  0.2781
32813ION     NA48622   1.031  17.297  10.791  0.4440  0.0425  0.2175
32814ION     NA48623   3.499   0.318  10.981 -0.1877 -0.0436  0.0353
32815ION     NA48624   7.517  10.606  10.787 -0.3089  0.0465  0.0353
32816ION     NA48625   0.892  15.656  14.357  0.1169 -0.0409 -0.0883
32817ION     NA48626  14.270  10.570   5.690 -0.1005  0.1556 -0.1398
32818ION     NA48627  10.829   3.109  12.663  0.1730  0.0027 -0.0034
32819ION     NA48628  10.183   4.914  13.990 -0.0933 -0.3428  0.2816
32820ION     NA48629  11.250   7.912  10.893  0.1940 -0.0200 -0.1101
32821ION     NA48630   9.748   7.025  12.079  0.2417 -0.2280 -0.1077
32822ION     NA48631   5.696  10.403   0.485  0.1141 -0.0474 -0.3432
32823ION     NA48632   2.248   4.324  10.738  0.2342  0.3776  0.5393
32824ION     NA48633  12.743   4.804   6.249 -0.2375 -0.1840 -0.1735
32825ION     NA48634   2.201   1.319   0.394 -0.0252 -0.0791 -0.2724
32826ION     NA48635  14.713   8.579  10.836 -0.0254  0.2262 -0.2628
32827ION     NA48636   5.557   5.158   3.079  0.1948  0.0094 -0.0823
32828ION     NA48637   4.477   0.804   6.594 -0.2189 -0.1140 -0.0826
32829ION     NA48638   3.684   7.696  13.209 -0.0671  0.3246  0.1839
32830ION     NA48639   3.373  11.704  10.570 -0.1386  0.2228 -0.0264
32831ION     NA48640   5.487  16.079   6.157 -0.1030 -0.1257 -0.1363
32832ION     NA48641  13.226   1.756  11.205 -0.2764 -0.4308 -0.1205
32833ION     NA48642   7.771   4.586  11.401  0.0349  0.4537  0.1677
32834ION     NA48643   1.393   5.641  11.079 -0.1577  0.0796 -0.1703
32835ION     NA48644  16.322  10.914  10.607 -0.2323  0.1274  0.4044
32836ION     NA48645  12.645  13.085  10.340  0.2333  0.1585  0.3829
32837ION     NA48646  12.254  12.431   2.140 -0.4072  0.3188 -0.0544
32838ION     NA48647   4.654  10.434  12.616  0.0201  0.0731 -0.0111
32839ION     NA48648   2.604   4.272   6.320  0.0512  0.0199 -0.0268
32840ION     NA48649   1.143   8.126  11.096  0.1027  0.0412 -0.0160
32841ION     NA48650  14.274  10.508  10.742 -0.0372 -0.1415 -0.0865
32842ION     NA48651   8.124   9.003  10.794 -0.2022 -0.0914 -0.3160
32843ION     NA48652   9.302  14.610  15.409  0.0884 -0.1286  0.0257
32844ION     NA48653   7.923   3.895   3.523 -0.0877  0.0941 -0.2708
32845ION     NA48654  13.062  12.116  10.475 -0.2515 -0.1950 -0.1913
32846ION     NA48655   1.990  17.245   6.025  0.0476  0.1501 -0.0860
32847ION     NA48656   2.169  14.541  10.719  0.0192  0.1966 -0.1755
32848ION     NA48657  16.537  12.338   6.019  0.0425 -0.1663 -0.1262
32849ION     NA48658   6.867  17.289   3.055 -0.2585  0.0041 -0.0064
32850ION     NA48659   6.926   1.329  10.864 -0.0154 -0.0837  0.0883
32851ION     NA48660  16.907   6.169  14.333  0.2951 -0.1524 -0.0875
32852ION     NA48661   9.060   3.081  11.479 -0.1810  0.1367  0.2977
32853ION     NA48662  13.122   9.810  10.477  0.0528 -0.0483  0.2172
32854ION     NA48663  16.695  11.719  10.719 -0.1748  0.2089  0.2517
32855ION     NA48664   2.851  13.907  10.690 -0.0719  0.0385 -0.0679
32856ION     NA48665   1.879   7.013   2.280 -0.3572  0.0102 -0.0024
32857ION     NA48666   9.231  13.995   4.464  0.0076 -0.1593  0.1129
32858ION     NA48667   9.725   0.357   0.160  0.0761  0.0504 -0.0357
32859ION     NA48668  11.571   8.747   2.357  0.1345  0.3727  0.0487
32860ION     NA48669   2.306  16.075  10.641 -0.2013  0.1708  0.0253
32861ION     NA48670  11.106   1.822  10.715 -0.0340  0.1684  0.0568
32862ION     NA48671   9.256   6.450   6.453  0.0322  0.0198 -0.0138
32863ION     NA48672  16.872  10.684  10.631 -0.0402 -0.0296  0.3742
32864ION     NA48673   8.781   4.760  11.228  0.0190  0.2875  0.0918
32865ION     NA48674  13.982   9.913  10.944 -0.1247 -0.0378 -0.0160
32866ION     NA48675  10.869   2.734  10.782  0.4083  0.0212 -0.3994
32867ION     NA48676  11.425   1.411  10.519 -0.2889  0.0453 -0.0097
32868ION     NA48677   4.021   3.458  10.776 -0.2081 -0.0020 -0.1123
32869ION     NA48678   1.756   7.941  11.073  0.0434  0.1409  0.1265
32870ION     NA48679   6.280  11.448  10.611  0.1012  0.1143  0.2110
32871ION     NA48680   7.341   7.388   2.252  0.1250  0.1083 -0.2954
32872ION     NA48681  17.573   7.366  10.982 -0.2746  0.1090  0.2893
32873ION     NA48682  15.867   1.126   3.835 -0.2095  0.0858  0.1458
32874ION     NA48683   9.832   2.961   6.129  0.4629  0.0767  0.0746
32875ION     NA48684   6.726   3.542  11.119  0.1132 -0.0016  0.1079
32876ION     NA48685   2.704  15.383  10.743  0.0876 -0.0604  0.1970
32877ION     NA48686   9.455   8.925  13.912 -0.0280  0.0823  0.2987
32878ION     NA48687  14.587  15.509  10.255  0.2361 -0.1587 -0.1373
32879ION     NA48688   6.085  16.579  16.958  0.0267  0.2649 -0.2327
32880ION     NA48689   2.875   0.768   6.459 -0.1525 -0.1818  0.1149
32881ION     NA48690  16.707   2.180  11.470 -0.3632 -0.3187  0.2400
32882ION     NA48691  14.936   2.131  11.095 -0.2059 -0.0803 -0.2092
32883ION     NA48692   4.224   8.690   2.244 -0.1321 -0.2964 -0.1119
32884ION     NA48693   7.237  14.318  10.083 -0.1020  0.2077 -0.3018
32885ION     NA48694  17.272  16.937   6.024 -0.2178 -0.2531 -0.0164
32886ION     NA48695   3.969   8.407  11.071 -0.1641  0.0748  0.0154
32887ION     NA48696  17.715  10.372   5.787  0.0003 -0.1660  0.1020
32888ION     NA48697   2.210   9.196  10.834  0.2194 -0.1063 -0.4145
32889ION     NA48698   3.630   6.253  11.210 -0.3836 -0.1371 -0.0173
32890ION     NA48699   5.516   3.121  11.159 -0.2409 -0.0090  0.1610
32891ION     NA48700   4.946   3.901  10.765 -0.1483  0.1031  0.2402
32892ION     NA48701   6.115   5.110  11.344 -0.0256 -0.0214  0.4215
32893ION     NA48702  15.304   6.349  11.145  0.3373 -0.2298 -0.0891
32894ION     NA48703  13.757  15.078  10.160  0.2365 -0.0052 -0.1700
32895ION     NA48704   0.066  10.966  10.400 -0.1284 -0.0179 -0.2770
32896ION     NA48705  15.671  17.503  10.515 -0.0072  0.0682  0.0026
32897ION     NA48706  10.174   4.173  12.593  0.1490 -0.0437 -0.1159
32898ION     NA48707   4.929   3.119  11.010 -0.0932 -0.1720  0.1109
32899ION     NA48708   3.451  17.120  10.879  0.1333 -0.4332  0.1062
32900ION     NA48709  16.900  12.364  11.239  0.1462 -0.1739 -0.1648
32901ION     NA48710   4.588  16.676  15.354 -0.1190 -0.3442 -0.0439
32902ION     NA48711   1.305   6.804   6.431 -0.2487 -0.0530 -0.1682
32903ION     NA48712   4.599  11.893   6.188  0.2021  0.1364 -0.3284
32904ION     NA48713  15.022  17.341  13.752  0.0165  0.1353  0.0230
32905ION     NA48714   8.128   7.310   0.715  0.1043  0.1929 -0.1092
32906ION     NA48715  14.910  10.961   5.966 -0.2247 -0.1598  0.0688
32907ION     NA48716  11.125   7.121  11.002  0.2750  0.1513 -0.1557
32908ION     NA48717  17.154  15.315  10.733 -0.1218 -0.1435  0.1413
32909ION     NA48718   8.404  10.421  10.744 -0.3049 -0.1876  0.0604
32910ION     NA48719  10.739   4.315  11.446  0.2461  0.0959  0.0130
32911ION     NA48720   9.944   3.094  11.128  0.0219 -0.0431 -0.2073
32912ION     NA48721  14.138  12.661   6.177  0.0032 -0.2749  0.2951
32913ION     NA48722   2.711  10.979  10.784 -0.2315  0.1695 -0.0076
32914ION     NA48723  14.139   2.897  11.500 -0.1007  0.2085 -0.0686
32915ION     NA48724  13.651   8.924   1.167 -0.1074  0.4279 -0.0474
32916ION     NA48725   1.437   2.806  11.148 -0.1496  0.5719 -0.6156
32917ION     NA48726  16.072   2.261   3.201  0.2627  0.3030 -0.1273
32918ION     NA48727  12.958   7.387   6.335  0.0876 -0.2581 -0.1676
32919ION     NA48728   2.500   7.264  11.201  0.0501 -0.0441  0.4312
32920ION     NA48729   6.041   9.705  10.739 -0.0309  0.2030 -0.2696
32921ION     NA48730  16.980  16.365  10.728  0.2066  0.2758 -0.0022
32922ION     NA48731   1.107  10.318   1.670 -0.0328  0.1382  0.0631
32923ION     NA48732  11.430   4.079  11.190  0.0536 -0.1440  0.2887
32924ION     NA48733  14.824   9.591  11.035  0.2079  0.1093  0.1721
32925ION     NA48734   7.085   0.865   1.220 -0.0692  0.0757 -0.1102
32926ION     NA48735  17.658  11.744  11.094  0.1826 -0.3084 -0.0386
32927ION     NA48736   4.588   5.776   5.635 -0.3090  0.1009 -0.1301
32928ION     NA48737   6.460   6.854   2.474 -0.4584  0.3300 -0.0935
32929ION     NA48738   1.999   4.638  16.322 -0.0788 -0.0022 -0.1140
32930ION     NA48739  11.863   2.233  10.964  0.1276 -0.3630  0.1232
32931ION     NA48740   3.352   2.235  11.124  0.0909 -0.1294 -0.0077
32932ION     NA48741  15.934   6.472  14.870  0.0079 -0.1024 -0.2036
32933ION     NA48742   3.086  10.734   2.564 -0.1919  0.1660  0.0949
32934ION     NA48743  15.764  11.477  10.806 -0.0038  0.0678  0.3393
32935ION     NA48744  15.816  11.498   6.202 -0.1001 -0.0351 -0.2395
32936ION     NA48745   8.670   4.227  11.253  0.2096  0.2709  0.1901
32937ION     NA48746  10.695  16.133  10.201  0.0991  0.0945  0.0811
32938ION     NA48747  13.119   2.692  11.351  0.0493 -0.2463 -0.3290
32939ION     NA48748   0.837   2.860   4.153  0.1226  0.1525 -0.0398
32940ION     NA48749  13.053  17.422  10.306 -0.0274  0.1668 -0.0218
32941ION     NA48750   3.124  11.471   0.986  0.1889  0.1765 -0.1844
32942ION     NA48751   0.975  16.627  13.820  0.2611  0.0611  0.0539
32943ION     NA48752   3.689  11.172   3.072 -0.0465  0.0436  0.2538
32944ION     NA48753   6.322   5.242  10.791 -0.0158 -0.0874  0.0228
32945ION     NA48754   8.442   1.771  10.684 -0.2053 -0.1824  0.0795
32946ION     NA48755   3.769   2.401   6.177 -0.0134 -0.1138 -0.2077
32947ION     NA48756   7.214   0.487  10.780  0.1244 -0.1128 -0.0130
32948ION     NA48757   4.506  14.241  10.607 -0.0978  0.0072 -0.1471
32949ION     NA48758   1.498   4.663  10.968 -0.0545 -0.1597 -0.0051
32950ION     NA48759  11.685   0.900  13.951  0.1115  0.0213  0.2220
32951ION     NA48760   0.964  15.657  10.501 -0.2615  0.1270 -0.2900
32952ION     NA48761   7.432   2.111  10.858  0.0588 -0.2712 -0.2498
32953ION     NA48762  11.892  14.401  10.433 -0.0889 -0.0393  0.0618
32954ION     NA48763   5.466  10.013  10.859 -0.0781 -0.1823 -0.0178
32955ION     NA48764   0.616   7.644   3.571  0.1372  0.1130 -0.0303
32956ION     NA48765   2.946   7.078   6.421  0.1179 -0.0524 -0.3883
32957ION     NA48766   2.978   5.665  11.199 -0.0662 -0.2378  0.0002
32958ION     NA48767  16.713  13.719  13.231 -0.1358  0.0596  0.3667
32959ION     NA48768  12.817  17.366   4.576  0.1885  0.1567 -0.1124
32960ION     NA48769   9.917  16.682  10.174 -0.1447  0.2048 -0.1652
32961ION     NA48770  16.017   1.969   6.328  0.2102  0.0125  0.0147
32962ION     NA48771   1.276   1.758  11.252 -0.0324  0.1191 -0.0892
32963ION     NA48772   0.492  13.630  11.054 -0.0281 -0.0598 -0.3081
32964ION     NA48773   2.065   5.630   6.224 -0.0201 -0.0573 -0.1268
32965ION     NA48774   0.923  11.330  10.884 -0.0148  0.1318 -0.0723
32966ION     NA48775  10.664  17.019  10.252  0.0112 -0.4143  0.0182
32967ION     NA48776   9.651  11.359   1.493 -0.2146  0.0985 -0.0069
32968ION     NA48777   1.217  13.353   5.546 -0.0178  0.0122 -0.1021
32969ION     NA48778  12.240   6.699  11.187  0.1904 -0.0270 -0.0474
32970ION     NA48779  11.324   3.322   3.225 -0.1785 -0.0644  0.0125
32971ION     NA48780   4.621   6.463  11.075  0.1365  0.2080  0.0745
32972ION     NA48781   8.119  14.905   2.500 -0.1188 -0.3606 -0.2188
32973ION     NA48782  14.428   5.957  11.291 -0.0925  0.1617  0.2898
32974ION     NA48783   1.305   8.853  10.858  0.3965 -0.0065  0.1763
32975ION     NA48784  16.767   9.791  12.657 -0.2260  0.3097 -0.0785
32976ION     NA48785  14.200   6.719   4.036  0.0811  0.0078 -0.1130
32977ION     NA48786  13.132  10.887  14.055  0.2581 -0.0148 -0.0006
32978ION     NA48787  14.466  15.061   6.078  0.2546 -0.1876 -0.0561
32979ION     NA48788   3.187   8.528  11.145 -0.1096 -0.1326  0.2340
32980ION     NA48789   0.545   2.284  11.189  0.0773 -0.0873 -0.2549
32981ION     NA48790  11.525   6.418  15.920 -0.0270 -0.3203  0.0046
32982ION     NA48791   2.579   5.216  15.150 -0.0654  0.0852 -0.0915
32983ION     NA48792   2.927   1.530   5.956 -0.1386  0.2919 -0.0944
32984ION     NA48793  17.265  16.812  10.632 -0.1217  0.1622 -0.2526
32985ION     NA48794  12.777   6.935  11.116  0.0160 -0.0161  0.1715
32986ION     NA48795  13.394   1.220  11.169  0.0779 -0.0690  0.2995
32987ION     NA48796   9.707   9.866  11.102 -0.1224 -0.1533 -0.0352
32988ION     NA48797  14.731   8.734  14.878  0.2880  0.2468  0.3137
32989ION     NA48798   1.673   2.844   1.008  0.0194  0.0880 -0.1094
32990ION     NA48799   3.359   3.571  11.188  0.2702  0.1539  0.0946
32991ION     NA48800  13.626  17.020   2.600 -0.0930  0.1137  0.2505
32992ION     NA48801   0.834   0.719   4.073 -0.1106 -0.2981 -0.0742
32993ION     NA48802   9.780   4.984  15.238  0.1350  0.0515  0.0235
32994ION     NA48803  15.566   6.080   6.538 -0.1341 -0.0698 -0.0061
32995ION     NA48804  13.228   8.810  10.682 -0.0628 -0.2094 -0.0633
32996ION     NA48805   4.886  15.074  11.003  0.0580 -0.1636  0.3227
32997ION     NA48806   6.265   0.684  10.900  0.1655  0.3760  0.0599
32998ION     NA48807   7.933   8.211  10.694 -0.3087 -0.0445  0.0447
32999ION     NA48808  13.387  12.804   5.941  0.0978 -0.3483 -0.1995
33000ION     NA48809  17.298   7.011   6.378 -0.2412  0.1700  0.1308
33001ION     NA48810  13.643  13.281   1.867  0.2288  0.1381 -0.3338
33002ION     NA48811   8.896   0.901  10.682  0.0100  0.1009 -0.0007
33003ION     NA48812  10.358   8.409  10.674 -0.0165  0.1506 -0.0839
33004ION     NA48813  17.143   9.299  14.477  0.0257  0.2065  0.1153
33005ION     NA48814   2.630  12.947  11.626  0.0807 -0.0384 -0.0543
33006ION     NA48815  15.256   3.400   2.687 -0.0731  0.0139 -0.2919
33007ION     NA48816  14.944   4.985  11.068  0.1158  0.2129 -0.1014
33008ION     NA48817  14.813   1.219  10.935  0.1053  0.4670  0.1092
33009ION     NA48818  14.535  14.460  10.298 -0.3488 -0.1147 -0.1808
33010ION     NA48819   3.518  15.218   2.919 -0.0243 -0.1462  0.0069
33011ION     NA48820  13.152  13.980  10.190 -0.0479  0.3354  0.0639
33012ION     NA48821  15.996   0.125  10.679  0.5023 -0.2561  0.1218
33013ION     NA48822  14.236  11.759   4.661  0.0813 -0.1764 -0.3794
33014ION     NA48823   7.081  16.959   1.298 -0.0540  0.0820  0.1813
33015ION     NA48824  12.181   2.686  14.189 -0.1281 -0.0374  0.1007
33016ION     NA48825   8.833   0.040  10.440  0.0931 -0.0920 -0.1620
33017ION     NA48826  14.840   4.215  11.515 -0.0095 -0.0430 -0.0804
33018ION     NA48827   3.183  14.246   6.110 -0.0303  0.0550 -0.0965
33019ION     NA48828   5.359   2.130   4.326 -0.0832  0.2549  0.3428
33020ION     NA48829  16.065  14.936  15.514 -0.3521 -0.1863  0.2060
33021ION     NA48830   6.016   1.613  11.953  0.1475 -0.4044  0.2436
33022ION     NA48831   3.369   7.978   6.446 -0.1153  0.0048 -0.1799
33023ION     NA48832  12.461   3.551  11.229  0.2427  0.0502 -0.0481
33024ION     NA48833  16.462   6.208   4.683  0.4096  0.0137 -0.3673
33025ION     NA48834  16.527   3.716  11.282 -0.1167  0.3338  0.0796
33026ION     NA48835  10.565   1.661  10.775  0.0680  0.1362  0.2150
33027ION     NA48836   8.640  11.779   1.797 -0.0918  0.2618  0.1334
33028ION     NA48837   9.960   6.919  10.837 -0.0074 -0.1119 -0.1477
33029ION     NA48838  16.553   2.657  11.190 -0.0102 -0.1389  0.4695
33030ION     NA48839   1.239  12.994  10.717 -0.1025  0.0547 -0.2914
33031ION     NA48840   6.395   8.001  10.818  0.2139  0.1533  0.0728
33032ION     NA48841  13.711   9.106  16.429  0.2016  0.0637  0.0651
33033ION     NA48842  16.927  17.654  10.521 -0.0213  0.1446  0.2019
33034ION     NA48843   6.982  10.189   1.441 -0.1689 -0.0081 -0.0057
33035ION     NA48844  10.716   3.580  10.975  0.0687  0.2396 -0.1939
33036ION     NA48845  14.147   9.089  10.967 -0.0275  0.1043 -0.0625
33037ION     NA48846   7.598  13.575  10.006 -0.1222  0.0475  0.1893
33038ION     NA48847   0.533  16.544  10.475  0.0844  0.2111 -0.1273
33039ION     NA48848   6.457   1.485  10.949  0.0215  0.1309 -0.0694
33040ION     NA48849  11.148  14.704  10.383 -0.1464  0.0073  0.1645
33041ION     NA48850  15.058  10.210  10.774 -0.2749  0.1204 -0.2043
33042ION     NA48851   1.278   6.503  11.182  0.1076  0.0118 -0.0150
33043ION     NA48852   6.385   2.618   6.092  0.0775  0.1339  0.0738
33044ION     NA48853   4.338   0.752  11.026 -0.3464 -0.1810 -0.0710
33045ION     NA48854  13.057   3.755  11.500 -0.1039 -0.1392  0.2529
33046ION     NA48855   4.194  12.794  11.389  0.0960 -0.2372  0.0931
33047ION     NA48856  11.348  15.437  10.177 -0.0618  0.1016 -0.0190
33048ION     NA48857  12.102  17.026  10.197 -0.1213 -0.0495 -0.2186
33049ION     NA48858   9.033  14.780  10.182  0.3275 -0.1343  0.2107
33050ION     NA48859  14.054   1.999  11.638  0.0934  0.0935  0.3508
33051ION     NA48860  13.790   1.204   6.159  0.2937 -0.1953  0.2184
33052ION     NA48861   9.536  11.614  10.247  0.1237 -0.3058  0.0279
33053ION     NA48862  16.958  13.428   6.235 -0.1244  0.0491  0.0723
33054ION     NA48863   9.641  15.473  10.633 -0.0258 -0.0150 -0.0967
33055ION     NA48864  16.046   7.664  10.911  0.0562  0.2496  0.0809
33056ION     NA48865  11.202   5.345  11.593 -0.2121 -0.0175 -0.3074
33057ION     NA48866  10.684  13.803   5.101  0.0888 -0.0375  0.0089
33058ION     NA48867   2.440   8.621  11.647 -0.2542  0.1273  0.1067
33059ION     NA48868  10.958  12.857  12.336 -0.2169  0.3605 -0.1065
33060ION     NA48869  14.821   0.492  15.839 -0.2736  0.1734  0.1352
33061ION     NA48870   1.651   6.864   3.988 -0.1232  0.0397 -0.0603
33062ION     NA48871   7.176   0.240  11.738  0.0288  0.0313  0.0647
33063ION     NA48872   4.684   2.247   1.094  0.2240  0.1642  0.1749
33064ION     NA48873   8.885   4.995  15.171  0.1422 -0.1256  0.2393
33065ION     NA48874   0.903   5.205  16.887  0.2526 -0.0324  0.1311
33066ION     NA48875  11.422   5.843   1.182 -0.0106 -0.1498 -0.0908
33067ION     NA48876   5.570   8.477  10.767  0.0670 -0.1820 -0.0719
33068ION     NA48877  14.476  16.410  10.506 -0.2662  0.0061 -0.1174
33069ION     NA48878  12.177   7.549  11.104  0.2137  0.1016 -0.1055
33070ION     NA48879   3.049  16.032   5.074  0.1695 -0.0307 -0.0111
33071ION     NA48880   6.390  12.344  10.513 -0.1377 -0.0577  0.2125
33072ION     NA48881   4.131  11.930  10.777 -0.1482 -0.0122 -0.1806
33073ION     NA48882  12.907  17.031   5.825  0.2897  0.0736  0.3714
33074ION     NA48883   1.798  16.403   5.158 -0.0223  0.0092  0.2811
33075ION     NA48884   2.958  10.248  12.681  0.1242 -0.0131  0.0804
33076ION     NA48885  10.868   6.105  15.066 -0.1041  0.1512 -0.1255
33077ION     NA48886  16.067   8.429  10.878  0.1357 -0.0028  0.0487
33078ION     NA48887   2.244   3.459  11.182  0.0019  0.1317 -0.3884
33079ION     NA48888   0.544  17.149   5.981 -0.1780  0.0441  0.2109
33080ION     NA48889   2.832   9.123  12.533  0.2274  0.0516 -0.1849
33081ION     NA48890  12.932   1.851   3.408 -0.2753 -0.0222 -0.1341
33082ION     NA48891   9.603   4.408  11.287  0.0492 -0.0168  0.5157
33083ION     NA48892   5.355   0.643  15.171  0.2615 -0.2585  0.0941
33084ION     NA48893   0.630   3.060  11.087  0.1705  0.0234  0.2267
33085ION     NA48894   1.381  10.404  15.457 -0.0552 -0.2011  0.1126
33086ION     NA48895  15.958  14.101  10.740 -0.0667  0.2080 -0.0619
33087ION     NA48896   4.637  10.582  11.071  0.0520  0.2666 -0.0185
33088ION     NA48897  15.861  10.186  11.026 -0.1324  0.1258 -0.2176
33089ION     NA48898  15.242   7.991  11.163 -0.0035 -0.0231 -0.0604
33090ION     NA48899   7.972   9.131   5.013  0.1549  0.0029 -0.3834
33091ION     NA48900  14.738   5.575   1.800  0.2477 -0.2572  0.0473
33092ION     NA48901   2.916  12.803  10.490 -0.1933  0.0070 -0.1161
33093ION     NA48902  13.785   4.183   6.576  0.0601 -0.0041  0.1550
33094ION     NA48903   0.929  15.535   5.951 -0.3689 -0.2807 -0.0138
33095ION     NA48904  13.502  14.631  11.458 -0.0164 -0.1474  0.0883
33096ION     NA48905   0.797   5.089  11.014 -0.0664  0.0160 -0.0913
33097ION     NA48906  17.296  12.815   5.841  0.0292 -0.0730 -0.0066
33098ION     NA48907   4.420  16.790  10.926 -0.1248 -0.0714 -0.1789
33099ION     NA48908   6.461  16.608  10.875  0.1350 -0.3501  0.0414
33100ION     NA48909  10.258  12.259  10.266  0.0069 -0.0800 -0.0410
33101ION     NA48910   4.611   5.297  10.978 -0.0953  0.0137  0.1054
33102ION     NA48911  13.521   8.997   6.053  0.1895 -0.0339 -0.2612
33103ION     NA48912  16.885   7.951  10.913 -0.0496  0.1134 -0.1105
33104ION     NA48913   5.258  17.170  11.013 -0.2945 -0.0014  0.2312
33105ION     NA48914   4.631  12.816  10.849  0.2656  0.0682  0.1324
33106ION     NA48915  15.205  14.594  10.436 -0.1601 -0.0734 -0.1201
33107ION     NA48916  11.818  10.589  10.487 -0.2442 -0.2504 -0.1460
33108ION     NA48917   7.107  11.106  10.607  0.1433 -0.0151 -0.0444
33109ION     NA48918   9.220   6.104  11.222  0.3029 -0.1350  0.0675
33110ION     NA48919   0.928   5.191   6.360 -0.1055  0.0144 -0.1831
33111ION     NA48920  15.997   0.925   6.041 -0.0603 -0.2304  0.0651
33112ION     NA48921   1.894  10.208  10.699  0.2141 -0.1171  0.2698
33113ION     NA48922   9.091   4.495   4.826 -0.2487  0.0693 -0.0162
33114ION     NA48923  14.432  13.563  10.393  0.0651  0.0369 -0.0210
33115ION     NA48924   6.595   1.131   3.367  0.0250 -0.1033  0.0350
33116ION     NA48925  15.002   6.616   6.565  0.1547  0.2830  0.3696
33117ION     NA48926   7.643   1.674  12.850  0.3751  0.0372 -0.4121
33118ION     NA48927  11.375  17.737  11.233  0.0523 -0.2061 -0.3820
33119ION     NA48928  11.271   9.832  10.551  0.1135  0.0155  0.0056
33120ION     NA48929   7.696  11.082   6.065 -0.1084  0.4196  0.2235
33121ION     NA48930   2.140  12.795  10.815  0.1026  0.1423  0.0614
33122ION     NA48931  12.362   5.313   6.577  0.1031 -0.1626 -0.0689
33123ION     NA48932   7.179   3.886   0.400  0.1511 -0.0210 -0.2883
33124ION     NA48933  10.844   0.845  13.021  0.0748 -0.0108 -0.1374
33125ION     NA48934   1.635  15.562   4.108 -0.0426  0.0858  0.0488
33126ION     NA48935  10.014  13.132  13.574  0.1519  0.1314 -0.2831
33127ION     NA48936   0.756  10.017  10.658  0.1480  0.1059 -0.0867
33128ION     NA48937   9.004   9.162   6.009  0.0421  0.1727  0.0676
33129ION     NA48938   7.557  15.020  10.242 -0.1707 -0.2905 -0.1084
33130ION     NA48939   0.956  10.768   0.537  0.2053  0.3525  0.1044
33131ION     NA48940  17.547   2.679  11.152  0.0813 -0.1374 -0.2173
33132ION     NA48941  10.453   4.677   6.820 -0.0657 -0.0660  0.0140
33133ION     NA48942   5.428   8.684  13.901 -0.0052 -0.0180 -0.0375
33134ION     NA48943  11.260  17.547  10.378 -0.0443 -0.3887 -0.3232
33135ION     NA48944   3.751  10.051  10.980  0.1170 -0.4471  0.0518
33136ION     NA48945   4.527   1.693  11.029  0.0036  0.1387  0.1862
33137ION     NA48946  13.002  16.005   5.866 -0.1627  0.0347 -0.1499
33138ION     NA48947   0.828   7.581   6.331  0.2239 -0.2459 -0.2174
33139ION     NA48948   4.508   4.401  13.767  0.3802 -0.1479  0.3163
33140ION     NA48949  14.375   7.667  11.028  0.1449 -0.3938  0.0292
33141ION     NA48950   0.547   8.653  10.790 -0.3299 -0.1113 -0.2449
33142ION     NA48951  11.988   0.343  16.791  0.0980  0.0947 -0.0144
33143ION     NA48952   0.978  17.444   6.079  0.1039  0.0669 -0.0419
33144ION     NA48953  16.859  14.358  10.635 -0.1255 -0.1367 -0.4987
33145ION     NA48954   8.110  17.503   6.034  0.0065 -0.6308  0.2055
33146ION     NA48955   4.733   8.964  10.740 -0.2564  0.0351  0.1489
33147ION     NA48956  12.398   1.997  11.366  0.2794 -0.0153  0.0672
33148ION     NA48957  15.491   6.823  11.124 -0.1703  0.0964 -0.0755
33149ION     NA48958  12.357   9.722  10.585  0.1526  0.1724  0.2184
33150ION     NA48959   6.810   4.480  11.031  0.1178 -0.0618  0.3339
33151ION     NA48960  14.960  11.941  10.681 -0.0809 -0.4340  0.0477
33152ION     NA48961   6.303   6.269  13.854 -0.1387  0.2021 -0.2669
33153ION     NA48962   1.196   9.948   1.010 -0.1274  0.2266 -0.0112
33154ION     NA48963  14.935  11.109  10.840 -0.1838 -0.0011 -0.0962
33155ION     NA48964   5.847  14.679  16.217 -0.1000  0.0577  0.0337
33156ION     NA48965   0.622  11.369   4.621  0.2122  0.0380  0.2324
33157ION     NA48966   7.310  11.677  13.120 -0.3440 -0.1288  0.2773
33158ION     NA48967   3.822   8.446  13.246  0.2858  0.0243 -0.5006
33159ION     NA48968   3.130   7.891   3.633 -0.1470 -0.0991 -0.2113
33160ION     NA48969   6.938  15.976   5.951 -0.0567  0.2027  0.2332
33161ION     NA48970  14.605   0.415   2.070 -0.1421  0.1052 -0.3149
33162ION     NA48971  10.302  15.121   3.203 -0.2994  0.1145 -0.2499
33163ION     NA48972  14.633   6.950  11.160 -0.0177 -0.2324 -0.0517
33164ION     NA48973   6.067  17.611  10.852  0.1122  0.1356  0.1128
33165ION     NA48974   8.197   3.751   1.862  0.0484  0.0469  0.1191
33166ION     NA48975  16.488  10.624   5.756  0.1539  0.0131 -0.0316
33167ION     NA48976  13.373   1.901  15.931 -0.3654  0.1047  0.1184
33168ION     NA48977  10.893   0.611  10.675 -0.1932 -0.0774 -0.2096
33169ION     NA48978  17.071   1.074  12.849 -0.0596 -0.0363  0.3083
33170ION     NA48979   5.345   4.704  10.717 -0.2758  0.3551  0.0863
33171ION     NA48980   6.462   9.083   3.014 -0.3781  0.2460  0.0808
33172ION     NA48981   7.543   4.419  14.900  0.0305 -0.1498  0.0409
33173ION     NA48982   7.105   7.340  11.139 -0.3313  0.0030  0.1836
33174ION     NA48983   6.578   7.906  13.393  0.1169  0.0483  0.0819
33175ION     NA48984  15.508  13.867   6.335 -0.2098  0.1769  0.1007
33176ION     NA48985  11.740   0.463   5.558  0.1016 -0.2703  0.0258
33177ION     NA48986   7.908   1.307   5.915  0.3006 -0.0481  0.2553
33178ION     NA48987  11.288  13.136   5.790  0.1013 -0.0300  0.2319
33179ION     NA48988  17.576   5.439   1.905 -0.0427 -0.0712 -0.1368
33180ION     NA48989   8.425   2.843  10.900  0.0125 -0.0177  0.0030
33181ION     NA48990   3.569   4.350  10.735 -0.1564  0.0098  0.0000
33182ION     NA48991  12.229   8.197  13.183  0.3319  0.1475  0.0223
33183ION     NA48992  12.546   4.462  11.265 -0.0648 -0.0289  0.0218
33184ION     NA48993  13.142  15.508   9.988  0.2667  0.1312 -0.0219
33185ION     NA48994   0.931  13.853   6.331 -0.0119 -0.0543  0.2048
33186ION     NA48995  15.735  12.867   6.460  0.3646 -0.0184  0.1096
33187ION     NA48996  16.254  15.915  10.401 -0.2316  0.2688 -0.3064
33188ION     NA48997   2.487   7.777   6.039 -0.0824  0.0364 -0.1094
33189ION     NA48998  16.073   4.170   6.778 -0.0635  0.0243  0.0116
33190ION     NA48999   9.028  15.853  15.676 -0.0498 -0.1297  0.4049
33191ION     NA49000   7.286   6.221   6.461  0.1790 -0.0515  0.2673
33192ION     NA49001   4.328  14.981   5.874 -0.1835  0.0428 -0.0278
33193ION     NA49002   3.909   2.268   0.125 -0.0226  0.1305 -0.1077
33194ION     NA49003  13.343   4.586  11.477 -0.2912 -0.0551  0.2605
33195ION     NA49004  14.366  16.732   5.882 -0.1345 -0.3804  0.0805
33196ION     NA49005  17.541   3.680  11.208  0.0669  0.1442  0.1302
33197ION     NA49006   1.473  15.159  15.624 -0.1147 -0.1727 -0.1999
33198ION     NA49007   3.085  14.999  10.738 -0.1086 -0.0705 -0.0238
33199ION     NA49008  15.311  16.334  10.433 -0.0829  0.4174 -0.1061
33200ION     NA49009   2.514   7.839  11.167  0.1081 -0.1009  0.1486
33201ION     NA49010   8.171  13.777   1.794 -0.1281  0.2332  0.0567
33202ION     NA49011  10.093  13.105  10.013 -0.2203 -0.0127  0.0228
33203ION     NA49012   3.364  15.963   1.676 -0.2815 -0.0115  0.0586
33204ION     NA49013   4.472  17.301  16.391 -0.0296 -0.2527 -0.2348
33205ION     NA49014   5.715  16.333  10.861  0.1319  0.0331  0.2245
33206ION     NA49015   7.272   7.314  12.309 -0.2129 -0.0620  0.0119
33207ION     NA49016   7.959  17.484  10.518  0.0900 -0.1312 -0.1022
33208ION     NA49017   3.158   3.766   3.106 -0.0719 -0.1014  0.1301
33209ION     NA49018  12.567   5.603  11.180  0.1447  0.2685  0.3509
33210ION     NA49019   8.009   8.031  15.134 -0.2427 -0.0832  0.2601
33211ION     NA49020   4.511   8.083   6.482 -0.0538  0.0196  0.0338
33212ION     NA49021   0.100   0.459  12.103 -0.3040  0.0490 -0.2655
33213ION     NA49022  14.418   8.858  13.132  0.0405 -0.0945 -0.1216
33214ION     NA49023   2.051  14.659  13.316 -0.1569 -0.4031  0.0617
33215ION     NA49024   8.697   5.594  11.231 -0.0039  0.1053 -0.1142
33216ION     NA49025   5.660   6.895  15.922  0.0325 -0.1356  0.1192
33217ION     NA49026   1.240   3.720  11.126 -0.1918 -0.1531  0.1168
33218ION     NA49027   1.008  11.809   6.148 -0.1245 -0.1160 -0.0090
33219ION     NA49028  10.323  10.321  10.807  0.1418  0.0965  0.0532
33220ION     NA49029   0.992   9.756  11.467 -0.1603 -0.1503  0.1266
33221ION     NA49030   4.054   3.876   4.208  0.2764 -0.3822  0.0704
33222ION     NA49031   4.564  12.635  12.114  0.1498  0.2260 -0.0052
33223ION     NA49032  12.239  11.329   1.170 -0.2269  0.0977  0.1090
33224ION     NA49033   1.792   8.189  14.817 -0.0644  0.0426  0.0010
33225ION     NA49034   8.562  13.535  10.034  0.2016  0.0239 -0.0846
33226ION     NA49035  11.519  16.390  10.096 -0.0712 -0.0317 -0.0854
33227ION     NA49036  12.553   0.777   5.842 -0.0559  0.1037  0.0105
33228ION     NA49037  16.675   9.871  10.774  0.0801  0.0196 -0.1199
33229ION     NA49038   7.031  12.969  10.418  0.0252 -0.0172  0.1677
33230ION     NA49039   0.551   4.380  11.365  0.1076  0.2298  0.6049
33231ION     NA49040  13.449  14.550  10.322 -0.1932  0.2357 -0.0218
33232ION     NA49041   3.773   5.368  10.932 -0.2247 -0.2119  0.2661
33233ION     NA49042   5.228  11.949  10.907 -0.0536 -0.0332 -0.2705
33234ION     NA49043   3.187   1.278  11.125  0.3336 -0.0373 -0.2690
33235ION     NA49044  11.389   0.501  10.419 -0.0190 -0.1868  0.0537
33236ION     NA49045  10.100   9.249   5.633  0.2038 -0.1095 -0.1097
33237ION     NA49046   8.227  12.198  10.332 -0.1835  0.1779 -0.2994
33238ION     NA49047   6.589  16.179  12.403 -0.3832  0.0782  0.0405
33239ION     NA49048   2.377   1.155  11.190  0.0786  0.0627 -0.0022
33240ION     NA49049   6.746   2.339  11.023 -0.0213 -0.0666  0.1776
33241ION     NA49050  14.760  17.211  10.560 -0.0271 -0.1807 -0.0107
33242ION     NA49051   1.124  14.350  10.749  0.3244  0.0733 -0.0293
33243ION     NA49052  16.830  15.300   4.745  0.1557 -0.0522  0.0002
33244ION     NA49053  10.892  10.103   5.320 -0.0320  0.2654  0.0499
33245ION     NA49054  15.311   0.732  10.854 -0.2698 -0.1141 -0.0366
33246ION     NA49055  11.392   6.172  11.294 -0.0156  0.1148 -0.0820
33247ION     NA49056   8.323   6.246  11.267 -0.1560 -0.0814  0.1599
33248ION     NA49057   9.486   8.947  10.897  0.2884 -0.0910 -0.0535
33249ION     NA49058   4.216  16.742   2.824 -0.0607 -0.2052  0.0841
33250ION     NA49059   8.869  11.030  10.647  0.0506 -0.3092  0.0079
33251ION     NA49060   5.475   5.515  10.726  0.2821 -0.2834 -0.0346
33252ION     NA49061  15.668   3.804  11.165 -0.2298 -0.3596 -0.0278
33253ION     NA49062   1.127   1.311  16.545 -0.2205 -0.0493 -0.0172
33254ION     NA49063   9.854   1.183  10.754  0.0220  0.2666  0.1035
33255ION     NA49064   3.825   6.902  14.227 -0.3274 -0.1681  0.3278
33256ION     NA49065  10.603   8.965   1.142 -0.3124  0.0530  0.1680
33257ION     NA49066  10.504  17.480  15.698  0.3641  0.0793 -0.0529
33258ION     NA49067   7.982  11.261  10.458 -0.1017  0.0608 -0.0750
33259ION     NA49068   9.863   6.284  13.264  0.0147 -0.0200  0.3637
33260ION     NA49069   6.907   5.912  11.056  0.1748 -0.0976  0.4159
33261ION     NA49070   4.915  15.720   0.679  0.3004  0.1004 -0.3415
33262ION     NA49071  15.676  15.915  11.481 -0.0504 -0.0055 -0.2014
33263ION     NA49072  13.791  16.885  10.174 -0.0430  0.0507 -0.2292
33264ION     NA49073   4.581   5.213  10.491 -0.0069 -0.2196 -0.1734
33265ION     NA49074  11.066   3.358   5.261 -0.1268  0.2852 -0.0643
33266ION     NA49075   0.292   6.446  11.134  0.1744  0.0961  0.2160
33267ION     NA49076  11.928   5.904  11.282  0.1281 -0.2077 -0.1489
33268ION     NA49077  14.199   2.935  16.078 -0.0563 -0.2369  0.4710
33269ION     NA49078   8.034   6.812   5.912  0.0655 -0.3457  0.0300
33270ION     NA49079   2.323   8.725  10.993  0.0855  0.0644 -0.0401
33271ION     NA49080   3.790  17.509  11.103  0.1156 -0.1377 -0.0507
33272ION     NA49081   8.828   7.608  10.881  0.2776  0.0415  0.0250
33273ION     NA49082   7.641   3.310  11.040  0.1433 -0.0258  0.1600
33274ION     NA49083   6.960   9.410  13.456 -0.1408  0.1883 -0.1547
33275ION     NA49084   4.357   7.768  16.880  0.1161 -0.1499  0.2386
33276ION     NA49085   7.901   0.988  10.889 -0.3520  0.0395 -0.2194
33277ION     NA49086  13.606   5.431  11.171  0.2488  0.1099  0.1204
33278ION     NA49087   4.286  13.427  10.674 -0.1898  0.0635 -0.0595
33279ION     NA49088   0.277   5.572  11.462 -0.1508  0.2640  0.3035
33280ION     NA49089  13.175   6.518  13.779  0.1895  0.1088  0.3201
33281ION     NA49090   5.163   2.262  11.217  0.2033 -0.1324 -0.0183
33282ION     NA49091   5.605  15.210  10.545 -0.0771 -0.1148 -0.0415
33283ION     NA49092   7.485  12.870   1.656  0.1403  0.1930 -0.3418
33284ION     NA49093  15.109  13.723  10.570 -0.2196 -0.1126  0.1701
33285ION     NA49094  10.641  11.365   1.406 -0.0634 -0.0023  0.1523
33286ION     NA49095   9.251  12.655  10.115  0.3552 -0.2849 -0.3570
33287ION     NA49096   9.463  10.181   5.474  0.1691  0.3660  0.3145
33288ION     NA49097   1.274  17.162   1.885 -0.1904 -0.0670 -0.0073
33289ION     NA49098  12.015   8.398  11.053 -0.2323  0.1253 -0.1855
33290ION     NA49099   3.889  13.420  10.377  0.1848  0.0257 -0.2893
33291ION     NA49100   3.401   7.137  11.173 -0.1134 -0.2260  0.0640
33292ION     NA49101   2.796  16.683  10.698 -0.1876 -0.1090 -0.5390
33293ION     NA49102  10.275  10.940  16.328  0.1477 -0.3016 -0.0735
33294ION     NA49103   0.325   1.253  11.031  0.2539  0.2651 -0.1345
33295ION     NA49104  13.930  13.640  10.661 -0.1697  0.0636  0.0548
33296ION     NA49105  10.750  13.855  10.003  0.1118 -0.1196 -0.0630
33297ION     NA49106   9.320   2.532  11.263 -0.2390  0.1674  0.1992
33298ION     NA49107   5.558   1.805   2.833  0.2818 -0.0863 -0.0495
33299ION     NA49108  15.325   7.620   5.820  0.2015  0.0703 -0.2271
33300ION     NA49109  10.663   1.891   0.934 -0.1817 -0.0283  0.0686
33301ION     NA49110   6.922   7.703   6.122  0.0290 -0.1926 -0.1266
33302ION     NA49111  14.516   9.343   4.568  0.2281  0.0811 -0.1213
33303ION     NA49112  15.782   5.490  11.124 -0.0789  0.0631  0.1420
33304ION     NA49113  13.750   8.262  10.903 -0.1734  0.1415  0.0704
33305ION     NA49114  13.907  16.045  10.028 -0.0424 -0.1254  0.0074
33306ION     NA49115  13.745   1.050   4.741 -0.2323 -0.3269  0.0674
33307ION     NA49116  14.906   2.147   6.215 -0.0465  0.0424  0.2122
33308ION     NA49117  16.284   0.665  10.951 -0.3416  0.1920  0.1716
33309ION     NA49118   8.123   8.937   6.115  0.0938  0.0272  0.0236
33310ION     NA49119   1.658  10.866   6.099  0.0653  0.1812 -0.1075
33311ION     NA49120  15.575   5.416  12.695 -0.0910 -0.2418 -0.1279
33312ION     NA49121  10.835  13.061  10.162 -0.0404 -0.1443  0.1733
33313ION     NA49122   6.435  13.745  10.226 -0.0221  0.2328  0.0750
33314ION     NA49123   9.971   9.216  10.814  0.2137 -0.0169 -0.1625
33315ION     NA49124  12.672  15.940  10.541 -0.0401 -0.0387  0.0454
33316ION     NA49125  12.910   5.953  11.325  0.0514  0.1483 -0.2151
33317ION     NA49126  13.712   6.906  11.109  0.3515  0.1546 -0.1045
33318ION     NA49127   6.506   6.712  10.918 -0.2428  0.0452 -0.0533
33319ION     NA49128   8.554  16.903  16.476  0.1502  0.1888  0.2163
33320ION     NA49129   8.356  14.396   2.255  0.2451 -0.3208 -0.3886
33321ION     NA49130   4.986   8.678   1.646  0.1271 -0.1627 -0.1871
33322ION     NA49131  15.012   3.105  11.246  0.0303  0.2370  0.2576
33323ION     NA49132  16.049  14.910  10.626  0.1476 -0.0594 -0.0580
33324ION     NA49133  14.311   5.065   6.528 -0.1326 -0.1011  0.0262
33325ION     NA49134  14.084  17.387  10.540 -0.1227 -0.2062  0.0681
33326ION     NA49135  15.622   1.467  11.040  0.1391 -0.0321  0.1139
33327ION     NA49136  16.702   6.057  11.067  0.2076 -0.2396 -0.0175
33328ION     NA49137   4.953   6.959   6.249 -0.1475 -0.0272 -0.2420
33329ION     NA49138   2.911   4.410   5.460 -0.1809  0.0051  0.1997
33330ION     NA49139  12.762   0.482  10.719 -0.0080 -0.0001  0.0974
33331ION     NA49140  17.151   4.674   2.481 -0.0378 -0.0986 -0.1799
33332ION     NA49141   4.896   1.260  11.089  0.0206 -0.0349  0.0669
33333ION     NA49142   6.704   2.809   4.045  0.0013 -0.0995  0.1593
33334ION     NA49143   8.249  16.094  12.467  0.1312  0.0493 -0.3983
33335ION     NA49144   5.038  15.892  10.792  0.0334  0.1091  0.0014
33336ION     NA49145   7.337  12.087  10.678 -0.3733 -0.2531  0.1122
33337ION     NA49146   0.584  12.719  10.963  0.0510 -0.2086  0.0920
33338ION     NA49147   8.585  15.970   3.035  0.0840 -0.1478  0.0084
33339ION     NA49148   3.089  11.818   6.418 -0.1184 -0.1050  0.0452
33340ION     NA49149  16.222  16.925  10.518  0.1442 -0.0971 -0.0277
33341ION     NA49150  11.745   7.018   6.507 -0.3670  0.0800  0.1483
33342ION     NA49151   7.167  16.194  10.707  0.1202 -0.1795 -0.1358
33343ION     NA49152   3.747  10.866  10.754 -0.0041 -0.1304 -0.1281
33344ION     NA49153  17.085   2.992   4.296  0.1499  0.1166 -0.0147
33345ION     NA49154   1.821   0.038  11.127 -0.1171  0.2066  0.1394
33346ION     NA49155  16.767   7.095  11.052  0.3160 -0.0004  0.4734
33347ION     NA49156   1.403  16.496  10.641 -0.3832 -0.0026 -0.0231
33348ION     NA49157   0.566   2.663   5.011  0.1523  0.2160 -0.1562
33349ION     NA49158   5.434  10.952  10.718 -0.0620 -0.2884 -0.1870
33350ION     NA49159   5.764  12.487   6.016 -0.1668  0.0883  0.2709
33351ION     NA49160  11.754   5.125  11.534 -0.1182 -0.0217  0.2476
33352ION     NA49161  16.918   1.939   6.573 -0.0908 -0.0288  0.1940
33353ION     NA49162  16.170  12.570   2.333 -0.0844  0.0164  0.1489
33354ION     NA49163   8.947  14.297  10.066  0.0703 -0.2843  0.0758
33355ION     NA49164   2.435  12.466  13.464 -0.1532 -0.0686 -0.0133
33356ION     NA49165   8.425   0.618   6.255  0.2687  0.1430  0.0288
33357ION     NA49166  10.052   6.438   6.461 -0.1704 -0.0295  0.2573
33358ION     NA49167   8.948   9.566  10.787  0.4532 -0.0537 -0.0384
33359ION     NA49168  16.099   4.480  11.105 -0.0947 -0.1803 -0.4011
33360ION     NA49169  15.018   0.279  10.793 -0.0994 -0.2608  0.0987
33361ION     NA49170  17.031   2.934   1.361 -0.0758  0.4780  0.0889
33362ION     NA49171   1.031   9.648  12.885 -0.0125 -0.0316  0.0655
33363ION     NA49172  13.699   7.408  11.384 -0.1912 -0.1351  0.0013
33364ION     NA49173  10.092  14.759  12.898  0.1014  0.0038 -0.3184
33365ION     NA49174   5.323  14.353  10.521  0.2551  0.1637  0.1408
33366ION     NA49175  16.449  15.998   5.790  0.3827 -0.2128 -0.0928
33367ION     NA49176   1.592  12.735   6.197 -0.1819 -0.4232 -0.0540
33368ION     NA49177  10.274  11.312  10.613  0.3509  0.1498 -0.1339
33369ION     NA49178   6.786  14.891  10.614 -0.0874  0.0554 -0.3338
33370ION     NA49179   0.641  15.142  10.486 -0.2778  0.0323  0.0518
33371ION     NA49180  14.203   4.586  11.184 -0.1696 -0.0273 -0.0215
33372ION     NA49181  12.164   1.098  10.855  0.2219  0.1660  0.1983
33373ION     NA49182   1.965   3.004  12.926  0.2427  0.1198  0.1072
33374ION     NA49183   4.808   8.133  11.114  0.3148 -0.3025  0.0096
33375ION     NA49184  10.280  17.643  10.487 -0.2469  0.1865 -0.0589
33376ION     NA49185  14.080   9.658   5.952  0.0287  0.2242 -0.1888
33377ION     NA49186   9.635   8.364   3.025  0.0013 -0.0135  0.1545
33378ION     NA49187  14.393  13.553   5.664  0.0809 -0.1023  0.4429
33379ION     NA49188  15.488   4.156   2.757 -0.1393 -0.1293  0.0350
33380ION     NA49189   0.786   9.112   6.073  0.0923 -0.2474  0.1382
33381ION     NA49190  11.821   4.466   6.261 -0.2828  0.1162 -0.1547
33382ION     NA49191   9.469   7.962  10.765 -0.3521  0.1871 -0.0226
33383ION     NA49192   8.475  11.510  16.203 -0.1733  0.0865 -0.0400
33384ION     NA49193   7.122   4.983  11.040 -0.1569 -0.0016 -0.5525
33385ION     NA49194  15.296  12.458  10.862 -0.2352 -0.0302  0.1739
33386ION     NA49195  15.476  17.302   5.938 -0.1743 -0.1064 -0.0767
33387ION     NA49196  15.772  15.803  15.288 -0.3461  0.0167  0.0429
33388ION     NA49197  15.005  13.601   6.250 -0.2874  0.2433 -0.1426
33389ION     NA49198   6.684   5.293   1.089 -0.1684 -0.0083 -0.0321
33390ION     NA49199   1.809  15.709  10.452  0.1189  0.0557  0.0005
33391ION     NA49200   0.021  15.791  10.571  0.0790 -0.4721  0.0673
33392ION     NA49201  10.787  14.782   9.974 -0.0261 -0.1471  0.1490
33393ION     NA49202   3.842   2.017  11.120 -0.3443 -0.0040 -0.3864
33394ION     NA49203   5.539   7.650  11.035  0.0436  0.0445  0.0895
33395ION     NA49204   6.673  10.230  10.586 -0.2950 -0.3810  0.0789
33396ION     NA49205  16.961   4.219  11.169 -0.1079 -0.2410 -0.2157
33397ION     NA49206  17.614  14.858  10.695  0.1624 -0.0232 -0.0234
33398ION     NA49207  10.099   2.254  10.833  0.0927 -0.2554  0.2243
  17.73822  17.73822  17.00593
