INSANE! Membrane UpperLeaflet>loPI:POPI:DPPI:PYPI:ERGO=140.0:15.0:9.0:6.0:30.0 LowerLeaflet>PSPI:POPI:POPS:YOPS:POPE:YOPE:POPC:YOPC:ERGO=6.0:14.0:21.0:9.0:9.0:21.0:12.0:48.0:60.0
49207
    1loPI    C1    1   1.376   1.109  10.553  0.0118 -0.4315 -0.2480
    1loPI    C2    2   1.158   1.178  10.225  0.0106 -0.1515 -0.1905
    1loPI    C3    3   0.994   0.991  10.538 -0.2087  0.2197 -0.0772
    1loPI   PO4    4   1.564   0.970  10.498  0.0985  0.0619  0.2145
    1loPI   GL1    5   1.625   1.017  10.042  0.1766  0.1481 -0.0837
    1loPI   GL2    6   1.645   1.341  10.082 -0.1214  0.1999  0.1500
    1loPI   C1A    7   1.208   0.991   9.738 -0.1031 -0.0598 -0.2328
    1loPI   C2A    8   1.072   0.903   9.367 -0.0007  0.1811 -0.3132
    1loPI   C3A    9   1.028   1.004   8.863  0.0357 -0.2946  0.0264
    1loPI   C4A   10   0.917   1.033   8.555  0.1288  0.0781  0.3531
    1loPI   C5A   11   0.874   0.798   8.201  0.0105 -0.1566 -0.1701
    1loPI   C6A   12   0.905   0.735   7.664  0.1983  0.1338  0.2083
    1loPI   C1B   13   1.442   1.435   9.701 -0.3073  0.1019 -0.0515
    1loPI   C2B   14   1.333   1.265   9.288  0.0676  0.2019 -0.1827
    1loPI   C3B   15   1.276   1.423   8.873  0.1482 -0.1785 -0.0694
    1loPI   C4B   16   1.255   1.448   8.503 -0.2561  0.0411 -0.0550
    2loPI    C1   17  16.469   2.463  10.746  0.0244 -0.0077  0.0002
    2loPI    C2   18  16.800   2.663  10.850  0.0310 -0.0404  0.0430
    2loPI    C3   19  16.528   2.568  11.128 -0.0628  0.0740 -0.0086
    2loPI   PO4   20  16.538   2.386  10.493 -0.0729 -0.0676  0.2373
    2loPI   GL1   21  16.760   2.423  10.120  0.0042 -0.1091  0.1678
    2loPI   GL2   22  16.939   2.116   9.873  0.3775 -0.2889  0.4503
    2loPI   C1A   23  16.632   2.472   9.657  0.0505  0.3312 -0.0482
    2loPI   C2A   24  16.617   2.471   9.227 -0.1931  0.1865  0.0942
    2loPI   C3A   25  16.594   2.504   8.847 -0.3325 -0.2218 -0.1303
    2loPI   C4A   26  16.682   2.457   8.458 -0.1459 -0.1647 -0.0937
    2loPI   C5A   27  16.453   2.367   8.058 -0.0717 -0.2309  0.2567
    2loPI   C6A   28  16.266   2.583   7.715  0.1691 -0.2521  0.3716
    2loPI   C1B   29  16.841   1.933   9.552  0.0114  0.2737  0.2466
    2loPI   C2B   30  16.793   1.965   9.126 -0.4278  0.2256  0.0494
    2loPI   C3B   31  16.848   2.008   8.665 -0.0525  0.2070 -0.0458
    2loPI   C4B   32  17.054   2.173   8.268 -0.0638  0.0070  0.1161
    3loPI    C1   33   1.333  15.685  10.864  0.2113  0.2527 -0.1031
    3loPI    C2   34   1.614  15.474  10.673  0.0770 -0.0876  0.0672
    3loPI    C3   35   1.674  15.593  11.051  0.1444  0.1674 -0.0219
    3loPI   PO4   36   1.237  15.921  10.660  0.1141 -0.0547  0.1615
    3loPI   GL1   37   1.165  16.087  10.298  0.0396 -0.0299 -0.0216
    3loPI   GL2   38   1.364  16.254  10.273  0.1504 -0.1401  0.0978
    3loPI   C1A   39   0.827  16.171   9.960 -0.2191 -0.2303 -0.2047
    3loPI   C2A   40   0.718  16.153   9.501  0.2567 -0.3338 -0.1757
    3loPI   C3A   41   0.837  16.211   9.092 -0.0691 -0.0576  0.2294
    3loPI   C4A   42   0.739  16.161   8.736  0.0864  0.0304 -0.0350
    3loPI   C5A   43   1.027  16.105   8.363 -0.0200  0.0761  0.1125
    3loPI   C6A   44   1.353  15.863   8.327  0.0398  0.5176  0.0571
    3loPI   C1B   45   1.292  16.132   9.814 -0.1598 -0.1893 -0.0484
    3loPI   C2B   46   1.321  16.163   9.403 -0.2727  0.1665  0.1353
    3loPI   C3B   47   1.286  16.203   8.968 -0.3165  0.2798 -0.0225
    3loPI   C4B   48   1.483  16.302   8.540  0.2381  0.0801 -0.1575
    4loPI    C1   49  11.291   0.624  11.262 -0.0850 -0.2077  0.0247
    4loPI    C2   50  10.927   0.578  11.422 -0.0654 -0.1582  0.0839
    4loPI    C3   51  11.179   0.268  11.407 -0.0522 -0.1526  0.1869
    4loPI   PO4   52  11.198   0.822  10.976 -0.0333  0.2890  0.1199
    4loPI   GL1   53  11.098   0.833  10.547  0.1469 -0.1305 -0.0084
    4loPI   GL2   54  10.851   0.859  10.522 -0.1396 -0.0894 -0.3532
    4loPI   C1A   55  11.354   0.962  10.196 -0.2239  0.1334 -0.1334
    4loPI   C2A   56  11.329   1.040   9.793 -0.0753  0.0980  0.1973
    4loPI   C3A   57  11.243   0.935   9.378  0.1622  0.0543  0.0550
    4loPI   C4A   58  11.358   0.904   8.855 -0.0312  0.0921  0.0156
    4loPI   C5A   59  11.007   0.894   8.574 -0.0593  0.0267 -0.1727
    4loPI   C6A   60  10.652   1.084   8.578 -0.0978 -0.1631  0.0397
    4loPI   C1B   61  10.774   1.049  10.178 -0.2281 -0.1193 -0.0842
    4loPI   C2B   62  10.827   1.025   9.733 -0.1447  0.0330 -0.4756
    4loPI   C3B   63  10.717   1.023   9.325  0.0402 -0.2602 -0.0554
    4loPI   C4B   64  10.797   0.936   9.039 -0.0342  0.1864 -0.1373
    5loPI    C1   65   0.955   9.340  10.544  0.0606  0.1271  0.0095
    5loPI    C2   66   1.351   9.386  10.579  0.0563 -0.0077  0.2560
    5loPI    C3   67   1.104   9.681  10.690  0.0884  0.1058  0.0310
    5loPI   PO4   68   0.902   9.262  10.287 -0.0659  0.0565  0.1067
    5loPI   GL1   69   0.858   9.456   9.871  0.1474  0.0641  0.0981
    5loPI   GL2   70   1.067   9.168   9.825  0.1345  0.0744  0.3820
    5loPI   C1A   71   0.638   9.336   9.597 -0.0231  0.5142 -0.0654
    5loPI   C2A   72   0.554   9.097   9.260 -0.0602  0.2323  0.1188
    5loPI   C3A   73   0.595   9.021   8.923 -0.1320  0.0659 -0.0762
    5loPI   C4A   74   0.377   8.724   8.609  0.0469 -0.2628  0.1377
    5loPI   C5A   75   0.334   8.534   8.245  0.0462 -0.1236  0.0972
    5loPI   C6A   76   0.135   8.237   7.993 -0.1378  0.2224  0.0304
    5loPI   C1B   77   1.149   9.091   9.404 -0.0083 -0.0127  0.0469
    5loPI   C2B   78   1.126   9.040   8.871  0.1019 -0.1074  0.1167
    5loPI   C3B   79   1.180   9.221   8.480 -0.0213  0.2221 -0.2660
    5loPI   C4B   80   1.489   9.284   8.014  0.4428  0.4384 -0.0700
    6loPI    C1   81   0.900   6.769  10.668 -0.1248 -0.2691  0.0088
    6loPI    C2   82   0.763   6.993  10.970  0.0828 -0.1717  0.0327
    6loPI    C3   83   0.813   6.599  11.019 -0.0948 -0.1923  0.0537
    6loPI   PO4   84   0.832   6.816  10.425  0.0144  0.1349  0.0326
    6loPI   GL1   85   0.624   6.732   9.979  0.0398 -0.2185 -0.2115
    6loPI   GL2   86   0.498   6.996   9.697 -0.0474 -0.0573  0.0797
    6loPI   C1A   87   0.700   6.591   9.564 -0.0105 -0.1816 -0.0477
    6loPI   C2A   88   0.641   6.516   9.170  0.2049  0.0588  0.1139
    6loPI   C3A   89   0.610   6.503   8.729 -0.0604 -0.0107 -0.0879
    6loPI   C4A   90   0.614   6.479   8.307 -0.1955  0.1578  0.3315
    6loPI   C5A   91   0.563   6.238   7.922  0.1272  0.2395  0.1539
    6loPI   C6A   92   0.250   6.390   7.651  0.1879 -0.0532  0.1560
    6loPI   C1B   93   0.477   7.002   9.233  0.1606 -0.0289 -0.1278
    6loPI   C2B   94   0.386   6.999   8.818  0.2582  0.0620 -0.0030
    6loPI   C3B   95   0.399   6.968   8.434 -0.0665 -0.1946 -0.0661
    6loPI   C4B   96   0.274   7.098   8.077 -0.2121  0.0194 -0.2353
    7loPI    C1   97   7.929  12.370  10.703 -0.0623  0.0897 -0.1558
    7loPI    C2   98   8.194  12.375  11.003  0.1155  0.0101 -0.3089
    7loPI    C3   99   7.833  12.542  11.051  0.1409 -0.0051 -0.0511
    7loPI   PO4  100   8.079  12.369  10.472  0.1384  0.0662 -0.1739
    7loPI   GL1  101   8.215  12.450  10.111  0.0697 -0.0021  0.1506
    7loPI   GL2  102   8.164  12.570   9.900  0.0520 -0.5190  0.0792
    7loPI   C1A  103   8.493  12.255   9.843  0.1431  0.1550 -0.1859
    7loPI   C2A  104   8.476  12.216   9.348 -0.0878  0.0045 -0.0861
    7loPI   C3A  105   8.463  12.120   8.944 -0.2572 -0.0102 -0.0657
    7loPI   C4A  106   8.523  12.029   8.553  0.0772 -0.0144  0.2056
    7loPI   C5A  107   8.322  11.807   8.152  0.2407  0.0054  0.2070
    7loPI   C6A  108   8.600  11.678   7.823 -0.1403  0.1252 -0.0212
    7loPI   C1B  109   8.275  12.678   9.405 -0.4382  0.2520 -0.2263
    7loPI   C2B  110   8.318  12.615   8.960 -0.4619 -0.0152 -0.1940
    7loPI   C3B  111   8.295  12.638   8.635  0.3280  0.4042 -0.3800
    7loPI   C4B  112   8.178  12.460   8.272 -0.0415 -0.0332  0.2574
    8loPI    C1  113   6.844  10.677  10.733  0.3117  0.3233  0.0599
    8loPI    C2  114   7.207  10.531  10.814  0.1853 -0.0679 -0.0566
    8loPI    C3  115   6.882  10.308  10.881 -0.0138  0.1565 -0.2561
    8loPI   PO4  116   6.880  10.766  10.515  0.1641 -0.1492  0.0347
    8loPI   GL1  117   7.063  10.960  10.187 -0.0411 -0.0721 -0.0798
    8loPI   GL2  118   7.095  11.197  10.313  0.1052 -0.2106  0.2636
    8loPI   C1A  119   7.143  10.860   9.725 -0.0455 -0.1811  0.0978
    8loPI   C2A  120   7.209  10.852   9.271 -0.1117 -0.1962  0.1768
    8loPI   C3A  121   7.247  10.814   8.829  0.2277  0.2507  0.0798
    8loPI   C4A  122   7.185  10.647   8.447 -0.1559  0.4151 -0.3158
    8loPI   C5A  123   7.307  10.553   8.067 -0.0265  0.0593  0.1977
    8loPI   C6A  124   7.530  10.762   7.833  0.0106 -0.0352 -0.1781
    8loPI   C1B  125   7.327  11.255   9.887 -0.0631 -0.1737 -0.1016
    8loPI   C2B  126   7.412  11.256   9.440  0.1820  0.1785 -0.0611
    8loPI   C3B  127   7.596  11.147   9.077 -0.0179 -0.1213 -0.1254
    8loPI   C4B  128   7.543  11.183   8.707 -0.0561 -0.1386  0.1821
    9loPI    C1  129   8.032   3.795  11.493  0.3016 -0.2646 -0.3778
    9loPI    C2  130   8.297   3.599  11.719  0.0694  0.0196  0.1613
    9loPI    C3  131   8.346   3.989  11.646 -0.0120 -0.0068 -0.0412
    9loPI   PO4  132   7.934   3.623  11.252  0.1430  0.0590 -0.2141
    9loPI   GL1  133   8.094   3.569  10.851 -0.0717 -0.0605 -0.1229
    9loPI   GL2  134   8.369   3.464  10.675 -0.0143 -0.1484  0.1625
    9loPI   C1A  135   7.942   3.468  10.461 -0.2257 -0.3814 -0.0163
    9loPI   C2A  136   7.949   3.480   9.872  0.4476  0.0662 -0.0958
    9loPI   C3A  137   7.951   3.382   9.579  0.1334  0.0295 -0.2107
    9loPI   C4A  138   7.958   3.310   9.201 -0.0542  0.1119 -0.0369
    9loPI   C5A  139   8.049   3.255   8.738  0.2289  0.1336  0.1213
    9loPI   C6A  140   7.922   2.962   8.405  0.0278 -0.0390 -0.1435
    9loPI   C1B  141   8.365   3.436  10.221  0.1972  0.1235 -0.0547
    9loPI   C2B  142   8.509   3.350   9.680  0.0073 -0.0386 -0.1274
    9loPI   C3B  143   8.511   3.302   9.218 -0.5763 -0.3521  0.1137
    9loPI   C4B  144   8.522   3.348   8.840 -0.0475  0.1616  0.1898
   10loPI    C1  145   5.134   2.284  10.967 -0.2417  0.1754  0.0091
   10loPI    C2  146   5.149   2.630  11.168 -0.1468  0.0501  0.2208
   10loPI    C3  147   5.155   2.283  11.366  0.3065 -0.0831 -0.0123
   10loPI   PO4  148   5.019   2.419  10.730 -0.0703  0.1290 -0.0096
   10loPI   GL1  149   5.268   2.494  10.309 -0.0337  0.0767  0.2111
   10loPI   GL2  150   4.994   2.591  10.229  0.3081 -0.3372 -0.0189
   10loPI   C1A  151   5.297   2.629   9.801 -0.1191 -0.1181  0.0864
   10loPI   C2A  152   5.311   2.595   9.302  0.2806 -0.1766 -0.0395
   10loPI   C3A  153   5.337   2.637   8.917 -0.0077 -0.1004 -0.1993
   10loPI   C4A  154   5.382   2.590   8.463  0.1459  0.1155  0.3509
   10loPI   C5A  155   5.388   2.224   8.191 -0.0416  0.1240  0.0363
   10loPI   C6A  156   5.087   2.036   8.029 -0.2798 -0.1234 -0.2033
   10loPI   C1B  157   4.983   2.196   9.878 -0.1220 -0.1456 -0.1329
   10loPI   C2B  158   5.048   2.226   9.407 -0.0127  0.3399  0.1698
   10loPI   C3B  159   5.034   2.143   9.006 -0.4997 -0.2250  0.0030
   10loPI   C4B  160   5.035   2.195   8.608 -0.1267  0.1514  0.3011
   11loPI    C1  161   4.912   8.275   9.833  0.1788 -0.0461 -0.1252
   11loPI    C2  162   5.294   8.254   9.950  0.1472 -0.0782 -0.0272
   11loPI    C3  163   5.013   8.048  10.147  0.0759 -0.0361 -0.0847
   11loPI   PO4  164   4.867   8.162   9.596 -0.2200 -0.0960  0.3718
   11loPI   GL1  165   4.920   8.011   9.185  0.1062  0.1076 -0.1280
   11loPI   GL2  166   4.984   8.209   9.124  0.0938  0.0658  0.0401
   11loPI   C1A  167   5.010   7.692   8.860  0.0853 -0.0208  0.2482
   11loPI   C2A  168   4.675   7.548   8.550 -0.0795  0.2414  0.2042
   11loPI   C3A  169   4.666   7.537   8.144  0.0912 -0.0964 -0.0270
   11loPI   C4A  170   4.452   7.661   7.784  0.2162  0.0102 -0.1551
   11loPI   C5A  171   4.369   7.773   7.463 -0.3249 -0.5115  0.0066
   11loPI   C6A  172   4.182   7.745   6.960 -0.0940  0.3480 -0.4417
   11loPI   C1B  173   4.907   8.270   8.704  0.1594  0.0387  0.3116
   11loPI   C2B  174   4.859   8.473   8.286 -0.0068 -0.1376 -0.0566
   11loPI   C3B  175   5.033   8.604   7.950  0.1470  0.2148  0.0886
   11loPI   C4B  176   5.038   8.859   7.588  0.2626  0.0122 -0.0225
   12loPI    C1  177  13.492   8.285  10.927  0.0508 -0.0532 -0.0133
   12loPI    C2  178  13.827   8.270  10.708  0.0642 -0.0510  0.0069
   12loPI    C3  179  13.847   8.237  11.106  0.0709  0.2484  0.0332
   12loPI   PO4  180  13.374   8.137  10.807  0.0057  0.4286 -0.0004
   12loPI   GL1  181  13.248   7.993  10.404 -0.1660 -0.1801 -0.1017
   12loPI   GL2  182  13.035   7.750  10.355  0.2745 -0.2412  0.1091
   12loPI   C1A  183  13.407   7.861   9.982 -0.1810 -0.0184  0.0366
   12loPI   C2A  184  13.435   7.758   9.579  0.2058 -0.1494  0.2322
   12loPI   C3A  185  13.469   7.680   9.166 -0.0159  0.0901 -0.1275
   12loPI   C4A  186  13.525   7.763   8.727  0.2738 -0.1063  0.1583
   12loPI   C5A  187  13.406   7.808   8.312  0.1582  0.0489  0.1275
   12loPI   C6A  188  13.390   7.939   7.924  0.1266  0.0926 -0.1676
   12loPI   C1B  189  12.920   7.806   9.993 -0.2575  0.0890  0.0541
   12loPI   C2B  190  12.946   7.810   9.575 -0.4870  0.2871  0.0399
   12loPI   C3B  191  12.986   7.808   9.142 -0.0617 -0.4318 -0.0768
   12loPI   C4B  192  12.990   7.769   8.686 -0.0129 -0.0313  0.2136
   13loPI    C1  193  16.676  11.427  10.844 -0.0350 -0.0296  0.0421
   13loPI    C2  194  16.556  11.645  11.157  0.0184 -0.0508  0.0776
   13loPI    C3  195  16.321  11.355  11.013 -0.1979  0.2437 -0.1754
   13loPI   PO4  196  16.959  11.449  10.875  0.4226 -0.0529 -0.4291
   13loPI   GL1  197  17.099  11.513  10.468  0.1980 -0.0916 -0.2074
   13loPI   GL2  198  16.764  11.458  10.349 -0.2907 -0.1380  0.0364
   13loPI   C1A  199  17.304  11.350  10.075 -0.1045 -0.2486 -0.3217
   13loPI   C2A  200  17.290  11.337   9.667  0.0233  0.2123  0.0507
   13loPI   C3A  201  17.184  11.379   9.343  0.2485  0.2033  0.4173
   13loPI   C4A  202  17.230  11.406   9.034 -0.0630 -0.2231 -0.3299
   13loPI   C5A  203  17.017  11.329   8.646 -0.0008 -0.6665 -0.2562
   13loPI   C6A  204  16.849  11.019   8.323 -0.1236  0.2273  0.1359
   13loPI   C1B  205  16.792  11.325   9.990 -0.0762  0.0702 -0.0447
   13loPI   C2B  206  16.668  11.284   9.630 -0.0873 -0.4642 -0.4529
   13loPI   C3B  207  16.700  11.372   9.185 -0.3561  0.0350  0.1654
   13loPI   C4B  208  16.581  11.331   8.788  0.0504 -0.0857  0.0242
   14loPI    C1  209   3.681  11.245  10.191 -0.3674 -0.1119 -0.2331
   14loPI    C2  210   3.310  11.270  10.340 -0.2324  0.1776  0.0702
   14loPI    C3  211   3.625  11.328  10.579  0.0034  0.2181 -0.2442
   14loPI   PO4  212   3.638  11.015  10.002  0.0721 -0.4861 -0.0168
   14loPI   GL1  213   3.734  10.939   9.558 -0.1577  0.4952  0.1884
   14loPI   GL2  214   3.765  10.704   9.589 -0.0405  0.0304  0.0515
   14loPI   C1A  215   3.601  10.969   9.099  0.1042  0.0818 -0.0129
   14loPI   C2A  216   3.526  10.989   8.761 -0.1405  0.0614 -0.1289
   14loPI   C3A  217   3.593  11.026   8.375  0.1573 -0.0566 -0.0604
   14loPI   C4A  218   3.759  10.839   8.028 -0.0906  0.0407  0.1238
   14loPI   C5A  219   3.948  10.486   7.939  0.3220 -0.1161 -0.2915
   14loPI   C6A  220   4.117  10.225   8.169 -0.1907 -0.0876  0.0644
   14loPI   C1B  221   4.023  10.711   9.168 -0.2108 -0.1332 -0.3952
   14loPI   C2B  222   3.997  10.689   8.839 -0.1638  0.0538 -0.0016
   14loPI   C3B  223   3.815  10.569   8.470 -0.1287 -0.0125  0.0719
   14loPI   C4B  224   3.538  10.318   8.251 -0.0674 -0.0586 -0.0840
   15loPI    C1  225  16.911   0.900  10.644  0.0856  0.1374 -0.0398
   15loPI    C2  226  16.695   1.112  10.905  0.0461  0.1791 -0.1059
   15loPI    C3  227  17.012   0.903  11.031  0.0189  0.1876 -0.0225
   15loPI   PO4  228  16.763   0.816  10.527  0.0719  0.0508 -0.0321
   15loPI   GL1  229  16.640   0.592  10.222 -0.0017  0.2158 -0.2068
   15loPI   GL2  230  16.753   0.290  10.087  0.0388  0.0300  0.0442
   15loPI   C1A  231  16.475   0.769   9.864  0.3037 -0.0426 -0.2213
   15loPI   C2A  232  16.468   0.759   9.449  0.2949 -0.3383  0.2282
   15loPI   C3A  233  16.567   0.656   9.089  0.2054 -0.0850 -0.0569
   15loPI   C4A  234  16.489   0.678   8.654  0.0716  0.1204 -0.0590
   15loPI   C5A  235  16.672   0.626   8.273  0.3192 -0.4463 -0.2741
   15loPI   C6A  236  16.627   0.574   7.805  0.0784  0.1214  0.1097
   15loPI   C1B  237  16.688   0.283   9.685  0.1822  0.0301  0.0701
   15loPI   C2B  238  16.704   0.236   9.283 -0.0854  0.2031  0.0249
   15loPI   C3B  239  16.739   0.256   8.884 -0.0377 -0.0924  0.0281
   15loPI   C4B  240  16.711   0.120   8.417  0.0726 -0.1958  0.0505
   16loPI    C1  241   1.159  12.625  10.316  0.0713  0.1986  0.1268
   16loPI    C2  242   1.267  12.328  10.561  0.1642  0.0553 -0.0846
   16loPI    C3  243   1.540  12.591  10.432  0.1342  0.0743 -0.1097
   16loPI   PO4  244   1.045  12.537  10.178  0.2650  0.2039 -0.0255
   16loPI   GL1  245   1.115  12.608   9.803 -0.4692  0.0710  0.1364
   16loPI   GL2  246   1.068  12.322   9.727 -0.1009  0.3641 -0.1437
   16loPI   C1A  247   0.803  12.778   9.529 -0.1011  0.1475  0.0623
   16loPI   C2A  248   0.798  12.819   9.138 -0.2027  0.1972  0.0743
   16loPI   C3A  249   0.557  12.667   8.754  0.2320 -0.0296 -0.3544
   16loPI   C4A  250   0.490  12.471   8.421 -0.1108 -0.1865 -0.0932
   16loPI   C5A  251   0.211  12.470   8.076 -0.0003  0.0306  0.2401
   16loPI   C6A  252  -0.181  12.425   8.090 -0.2222  0.2700 -0.2331
   16loPI   C1B  253   0.944  12.344   9.344  0.1484 -0.0419  0.1785
   16loPI   C2B  254   0.905  12.377   8.895 -0.3202 -0.1427  0.1752
   16loPI   C3B  255   0.924  12.139   8.625  0.0805  0.1791 -0.1568
   16loPI   C4B  256   0.848  11.971   8.176 -0.0750 -0.2424  0.1120
   17loPI    C1  257   5.435   9.592  10.286 -0.0256 -0.1426  0.2063
   17loPI    C2  258   5.707   9.391  10.501 -0.0764 -0.1244  0.2880
   17loPI    C3  259   5.323   9.393  10.615 -0.0766  0.0177  0.2874
   17loPI   PO4  260   5.593   9.648  10.079  0.1461  0.0312 -0.0080
   17loPI   GL1  261   5.886   9.617   9.753  0.0332 -0.1922  0.0710
   17loPI   GL2  262   5.629   9.418   9.562  0.0570 -0.1830 -0.2847
   17loPI   C1A  263   6.152   9.429   9.430 -0.2531 -0.0591 -0.0682
   17loPI   C2A  264   6.269   9.361   9.027  0.2660 -0.1393  0.2384
   17loPI   C3A  265   6.392   9.390   8.535  0.0477  0.1220 -0.1065
   17loPI   C4A  266   6.508   9.396   8.118  0.2631  0.0838 -0.0526
   17loPI   C5A  267   6.387   9.603   7.736 -0.2173  0.0581 -0.1552
   17loPI   C6A  268   5.882   9.588   7.585 -0.2657  0.0854  0.0020
   17loPI   C1B  269   5.728   9.332   9.148  0.1760 -0.0748  0.0838
   17loPI   C2B  270   5.867   9.436   8.772  0.0918  0.0459  0.0747
   17loPI   C3B  271   5.951   9.407   8.447 -0.1656  0.3183 -0.1631
   17loPI   C4B  272   6.025   9.381   8.001 -0.1403 -0.2634  0.0275
   18loPI    C1  273   5.468  12.708  10.590 -0.0442 -0.0777 -0.0287
   18loPI    C2  274   5.455  12.316  10.511  0.0119 -0.0579 -0.1386
   18loPI    C3  275   5.370  12.449  10.879  0.1093 -0.1833 -0.0699
   18loPI   PO4  276   5.404  12.825  10.369 -0.3232  0.1487 -0.1575
   18loPI   GL1  277   5.161  12.879  10.025 -0.2614 -0.1908  0.0107
   18loPI   GL2  278   4.921  12.775   9.894  0.0671 -0.2489  0.1126
   18loPI   C1A  279   5.354  13.146   9.716  0.0053 -0.2146 -0.0037
   18loPI   C2A  280   5.509  13.169   9.318  0.1012 -0.1883  0.0155
   18loPI   C3A  281   5.418  13.277   8.950 -0.1670 -0.0980  0.2798
   18loPI   C4A  282   5.448  13.249   8.474  0.0131  0.1693 -0.0236
   18loPI   C5A  283   5.604  13.370   8.184  0.2230  0.0691 -0.1331
   18loPI   C6A  284   5.503  13.646   7.852  0.1894  0.2422  0.1114
   18loPI   C1B  285   5.094  12.793   9.546  0.2363 -0.0916 -0.0189
   18loPI   C2B  286   5.167  12.793   9.141  0.4560 -0.0260  0.4261
   18loPI   C3B  287   5.204  12.865   8.703 -0.3441  0.0865 -0.1391
   18loPI   C4B  288   5.194  12.874   8.293 -0.1747  0.1872  0.0915
   19loPI    C1  289   3.508   2.698  10.712 -0.0515  0.0346  0.1223
   19loPI    C2  290   3.795   2.504  10.913 -0.1993 -0.4674 -0.1330
   19loPI    C3  291   3.432   2.548  11.075 -0.0030  0.1328  0.1732
   19loPI   PO4  292   3.532   2.585  10.502  0.2871 -0.0917 -0.0525
   19loPI   GL1  293   3.516   2.846  10.030 -0.4653 -0.0987  0.0861
   19loPI   GL2  294   3.853   2.751   9.900  0.0278  0.0129 -0.3493
   19loPI   C1A  295   3.347   2.811   9.654 -0.2692  0.1677 -0.0143
   19loPI   C2A  296   3.220   2.738   9.239  0.1372  0.0360  0.0675
   19loPI   C3A  297   3.169   2.614   8.873 -0.0314 -0.0014 -0.0640
   19loPI   C4A  298   3.177   2.700   8.380  0.0084  0.2071 -0.0106
   19loPI   C5A  299   2.917   2.784   7.979  0.2196 -0.1671 -0.1754
   19loPI   C6A  300   2.606   3.132   7.894  0.0365  0.1347 -0.0371
   19loPI   C1B  301   3.769   2.717   9.473  0.0719  0.1076  0.0613
   19loPI   C2B  302   3.765   2.698   8.984  0.0888 -0.0860 -0.1077
   19loPI   C3B  303   3.740   2.620   8.623  0.3504 -0.1906 -0.0519
   19loPI   C4B  304   3.723   2.609   8.179 -0.2955  0.0098  0.1087
   20loPI    C1  305   4.414  15.230  10.856  0.0790  0.1311 -0.0760
   20loPI    C2  306   4.533  14.859  10.944 -0.0694  0.1271  0.1160
   20loPI    C3  307   4.804  15.144  10.872  0.0455 -0.0110 -0.0056
   20loPI   PO4  308   4.189  15.173  10.641  0.1179 -0.0617 -0.0347
   20loPI   GL1  309   3.992  15.363  10.319  0.3214 -0.1622 -0.0721
   20loPI   GL2  310   4.288  15.326  10.189  0.2523 -0.1134  0.1641
   20loPI   C1A  311   3.712  15.514  10.061 -0.1035 -0.0175 -0.1078
   20loPI   C2A  312   3.780  15.535   9.625 -0.1345 -0.1258 -0.0496
   20loPI   C3A  313   3.768  15.558   9.222 -0.0790  0.0790 -0.1752
   20loPI   C4A  314   3.903  15.497   8.874 -0.1979 -0.0485 -0.0236
   20loPI   C5A  315   3.802  15.762   8.518 -0.0100  0.4862 -0.2517
   20loPI   C6A  316   3.943  15.753   8.044 -0.0938 -0.0513 -0.3227
   20loPI   C1B  317   4.240  15.582   9.827  0.1821 -0.2337  0.1334
   20loPI   C2B  318   4.309  15.597   9.453  0.1392 -0.1026  0.2352
   20loPI   C3B  319   4.358  15.594   8.998  0.0444 -0.1349 -0.1126
   20loPI   C4B  320   4.325  15.730   8.539  0.0107  0.0196 -0.1708
   21loPI    C1  321   0.522   8.975  10.603  0.0550 -0.0797  0.0575
   21loPI    C2  322   0.888   8.887  10.739  0.0823 -0.0834 -0.0183
   21loPI    C3  323   0.591   8.958  10.997  0.1845  0.1220  0.0452
   21loPI   PO4  324   0.516   8.804  10.397  0.1650  0.0870  0.3504
   21loPI   GL1  325   0.189   8.924  10.082  0.0108  0.3096  0.1649
   21loPI   GL2  326   0.109   8.717  10.041  0.1773  0.3937  0.1234
   21loPI   C1A  327   0.186   9.006   9.608  0.3460 -0.1334 -0.0886
   21loPI   C2A  328   0.107   9.005   9.149  0.0659  0.2222  0.0814
   21loPI   C3A  329  -0.037   8.808   8.830  0.2083 -0.1855 -0.1731
   21loPI   C4A  330  -0.101   8.766   8.421 -0.3334 -0.0184 -0.0674
   21loPI   C5A  331  -0.163   8.710   8.016 -0.1417  0.0675 -0.0245
   21loPI   C6A  332  -0.281   8.304   7.731 -0.2181  0.1009  0.2311
   21loPI   C1B  333  -0.035   8.613   9.631  0.0684  0.0053  0.0513
   21loPI   C2B  334  -0.240   8.609   9.288 -0.0588 -0.1929  0.0307
   21loPI   C3B  335  -0.392   8.448   8.831 -0.0028  0.1734 -0.0894
   21loPI   C4B  336  -0.459   8.431   8.338 -0.2426  0.0567 -0.1166
   22loPI    C1  337  10.002  11.118  11.361  0.0502 -0.1373 -0.1791
   22loPI    C2  338  10.322  11.032  11.585  0.0755 -0.0343 -0.1752
   22loPI    C3  339   9.988  10.815  11.621  0.1069 -0.0700 -0.0973
   22loPI   PO4  340  10.107  11.140  11.105  0.1163  0.0831 -0.0662
   22loPI   GL1  341  10.188  11.350  10.695  0.0263 -0.1089 -0.3782
   22loPI   GL2  342   9.994  11.194  10.381  0.0145  0.0723  0.0519
   22loPI   C1A  343  10.334  11.525  10.267  0.0245 -0.4194  0.2824
   22loPI   C2A  344  10.371  11.507   9.776 -0.2495  0.0251  0.0608
   22loPI   C3A  345  10.280  11.715   9.350 -0.3798 -0.0005 -0.1557
   22loPI   C4A  346  10.439  11.598   8.785  0.0089  0.0646 -0.0558
   22loPI   C5A  347  10.560  11.376   8.340  0.2267  0.2287 -0.1912
   22loPI   C6A  348  10.965  11.258   8.121  0.1082 -0.3683 -0.1150
   22loPI   C1B  349  10.061  11.195   9.972 -0.0002 -0.0884  0.3035
   22loPI   C2B  350  10.130  11.184   9.425 -0.0016  0.1357 -0.1073
   22loPI   C3B  351  10.142  11.269   9.032  0.0791  0.2664  0.0421
   22loPI   C4B  352  10.152  11.143   8.602  0.1839  0.2812 -0.0969
   23loPI    C1  353   1.845  10.790  10.220  0.1246  0.1413  0.0152
   23loPI    C2  354   1.606  10.745  10.537  0.0338 -0.0474 -0.0786
   23loPI    C3  355   1.969  10.907  10.582 -0.0649  0.1333  0.0836
   23loPI   PO4  356   1.662  10.841  10.081  0.2513  0.0193 -0.1132
   23loPI   GL1  357   1.809  10.801   9.638  0.0935  0.3204 -0.1560
   23loPI   GL2  358   1.835  10.418   9.810  0.0286 -0.1499 -0.0654
   23loPI   C1A  359   1.685  10.879   9.307 -0.2299 -0.1348 -0.1760
   23loPI   C2A  360   1.712  10.933   8.906 -0.2019  0.0370 -0.1374
   23loPI   C3A  361   1.890  11.008   8.488  0.2816  0.2566 -0.2243
   23loPI   C4A  362   1.858  11.026   8.032  0.2185 -0.1536  0.0749
   23loPI   C5A  363   2.061  11.352   7.699 -0.0992  0.0302  0.0841
   23loPI   C6A  364   2.345  11.507   7.419 -0.2066  0.0963 -0.0330
   23loPI   C1B  365   1.719  10.398   9.377 -0.3212  0.2030  0.2049
   23loPI   C2B  366   1.717  10.386   8.995 -0.0155 -0.3071  0.1741
   23loPI   C3B  367   1.704  10.507   8.615  0.1500  0.0426  0.1196
   23loPI   C4B  368   1.481  10.680   8.304 -0.1060  0.3602  0.2388
   24loPI    C1  369  14.196   6.609  11.062 -0.3049 -0.2798  0.2527
   24loPI    C2  370  14.142   6.574  11.457  0.1375  0.2110  0.3680
   24loPI    C3  371  14.511   6.549  11.303  0.0081  0.3538  0.0259
   24loPI   PO4  372  13.935   6.616  10.959  0.1847  0.3584 -0.0992
   24loPI   GL1  373  13.842   6.454  10.622 -0.1349 -0.0683 -0.1647
   24loPI   GL2  374  14.151   6.338  10.588  0.0417 -0.1186 -0.0662
   24loPI   C1A  375  13.639   6.491  10.318  0.1488 -0.3315 -0.1251
   24loPI   C2A  376  13.676   6.405   9.963  0.2550 -0.0922 -0.3805
   24loPI   C3A  377  13.604   6.476   9.487 -0.3060 -0.0360  0.1956
   24loPI   C4A  378  13.566   6.321   9.034  0.2499 -0.2636 -0.0663
   24loPI   C5A  379  13.619   6.497   8.650  0.0060  0.1143  0.0972
   24loPI   C6A  380  13.722   6.519   8.269  0.0048 -0.1130  0.1653
   24loPI   C1B  381  14.188   6.300  10.084  0.0898 -0.2432 -0.2170
   24loPI   C2B  382  14.142   6.337   9.717  0.0356 -0.0448  0.2710
   24loPI   C3B  383  14.064   6.362   9.289  0.0028 -0.0997  0.2379
   24loPI   C4B  384  14.064   6.323   8.903  0.2695  0.0476  0.3850
   25loPI    C1  385   3.013   1.772  10.612 -0.0192 -0.0505  0.1800
   25loPI    C2  386   2.718   1.837  10.874 -0.1245 -0.1166  0.0794
   25loPI    C3  387   3.100   1.871  10.989 -0.1709  0.1505  0.1640
   25loPI   PO4  388   2.921   1.859  10.419  0.0163 -0.0579  0.0546
   25loPI   GL1  389   2.905   2.081   9.981 -0.1297 -0.2417  0.1240
   25loPI   GL2  390   3.119   1.907   9.855 -0.2197  0.2028 -0.0491
   25loPI   C1A  391   2.589   2.105   9.686  0.1057  0.0595  0.2391
   25loPI   C2A  392   2.539   1.956   9.227  0.2642 -0.1126 -0.3277
   25loPI   C3A  393   2.634   1.849   8.811 -0.3324 -0.3227  0.4214
   25loPI   C4A  394   2.510   1.892   8.355 -0.0209  0.4131 -0.3415
   25loPI   C5A  395   2.711   1.739   7.997  0.0943  0.2589  0.0806
   25loPI   C6A  396   3.036   1.856   7.657 -0.1357  0.1071  0.3035
   25loPI   C1B  397   2.981   1.882   9.518 -0.3131  0.0005 -0.0977
   25loPI   C2B  398   3.083   1.967   9.128 -0.0999 -0.2520 -0.3018
   25loPI   C3B  399   3.125   1.789   8.675  0.0081  0.1416  0.1560
   25loPI   C4B  400   3.083   1.825   8.260 -0.0844 -0.3819  0.1915
   26loPI    C1  401  15.555  13.657  11.043 -0.0955  0.1281 -0.0236
   26loPI    C2  402  15.530  13.829  11.403  0.1561 -0.0433  0.0785
   26loPI    C3  403  15.466  13.436  11.364  0.1979 -0.0375 -0.0520
   26loPI   PO4  404  15.755  13.669  10.906 -0.0248 -0.2299  0.0305
   26loPI   GL1  405  15.882  13.442  10.556  0.1001 -0.0062 -0.0924
   26loPI   GL2  406  16.040  13.203  10.697  0.0608 -0.2171 -0.0561
   26loPI   C1A  407  16.044  13.623  10.254 -0.0954 -0.0136  0.1431
   26loPI   C2A  408  16.130  13.605   9.827  0.0843 -0.2051  0.0708
   26loPI   C3A  409  16.045  13.647   9.315 -0.4023  0.5235 -0.3340
   26loPI   C4A  410  16.058  13.611   8.933  0.1454 -0.2715 -0.1132
   26loPI   C5A  411  15.710  13.606   8.586  0.0998 -0.3111  0.0480
   26loPI   C6A  412  15.340  13.721   8.386  0.0479 -0.4140  0.2474
   26loPI   C1B  413  16.240  13.186  10.336  0.0469  0.0454 -0.0705
   26loPI   C2B  414  16.294  13.131   9.976 -0.0583  0.1467 -0.1504
   26loPI   C3B  415  16.292  13.189   9.496 -0.3798  0.0413  0.0286
   26loPI   C4B  416  16.281  13.187   9.048  0.0608  0.0831  0.1692
   27loPI    C1  417  10.641  17.553  11.121 -0.0319  0.0517  0.0841
   27loPI    C2  418  10.813  17.308  11.386 -0.0722  0.1335  0.1864
   27loPI    C3  419  10.998  17.645  11.275  0.0430 -0.0059 -0.0527
   27loPI   PO4  420  10.536  17.457  10.915 -0.0286 -0.0760 -0.5174
   27loPI   GL1  421  10.562  17.571  10.495 -0.0669 -0.1319 -0.0996
   27loPI   GL2  422  10.842  17.674  10.329 -0.0975 -0.2121  0.0906
   27loPI   C1A  423  10.375  17.670  10.163  0.1161  0.2514  0.1809
   27loPI   C2A  424  10.357  17.664   9.659 -0.1980  0.1722 -0.3843
   27loPI   C3A  425  10.505  17.514   9.330 -0.1261  0.1381  0.1351
   27loPI   C4A  426  10.531  17.586   8.944 -0.1965 -0.1416  0.1798
   27loPI   C5A  427  10.390  17.580   8.490 -0.0522  0.1000  0.0474
   27loPI   C6A  428  10.403  17.260   8.085 -0.0933  0.1036  0.1266
   27loPI   C1B  429  10.942  17.612   9.908 -0.0102  0.2382 -0.1680
   27loPI   C2B  430  10.941  17.610   9.478 -0.1642 -0.1712  0.2024
   27loPI   C3B  431  11.054  17.538   9.076  0.0992  0.1939 -0.0420
   27loPI   C4B  432  10.994  17.350   8.741 -0.0560 -0.1969 -0.1167
   28loPI    C1  433  11.982  13.355  11.114 -0.2838  0.1078  0.0052
   28loPI    C2  434  11.919  13.153  11.453  0.0882  0.0865  0.0667
   28loPI    C3  435  11.952  13.552  11.461 -0.0935  0.1034  0.0254
   28loPI   PO4  436  11.740  13.226  10.981  0.0319  0.2999 -0.0971
   28loPI   GL1  437  11.652  13.095  10.586  0.1453  0.1501  0.0289
   28loPI   GL2  438  11.715  12.832  10.325  0.0750 -0.1393  0.2754
   28loPI   C1A  439  11.988  13.224  10.225  0.1557  0.1102  0.1929
   28loPI   C2A  440  11.965  13.415   9.837 -0.0555 -0.2121  0.0782
   28loPI   C3A  441  12.062  13.443   9.525  0.0165 -0.1083 -0.3728
   28loPI   C4A  442  12.173  13.406   9.075  0.1656 -0.2494  0.1806
   28loPI   C5A  443  12.136  13.429   8.670  0.1153  0.2670  0.1931
   28loPI   C6A  444  11.887  13.840   8.569  0.0455  0.2706  0.1026
   28loPI   C1B  445  11.727  12.827   9.894  0.0051  0.1458  0.0755
   28loPI   C2B  446  11.765  12.982   9.522  0.0382 -0.2854  0.2500
   28loPI   C3B  447  11.774  13.030   9.065 -0.1955  0.0402 -0.0859
   28loPI   C4B  448  11.826  12.933   8.626  0.3437 -0.2571  0.0585
   29loPI    C1  449  16.289   0.831  10.758 -0.1133  0.0808 -0.0010
   29loPI    C2  450  16.141   0.553  11.004  0.1202 -0.1258 -0.0894
   29loPI    C3  451  16.360   0.853  11.151 -0.1920  0.0559  0.0148
   29loPI   PO4  452  16.219   0.696  10.516 -0.1038  0.1373 -0.0668
   29loPI   GL1  453  16.021   0.826  10.160 -0.0471  0.1562 -0.0574
   29loPI   GL2  454  16.222   1.191  10.021 -0.2392 -0.1732  0.0657
   29loPI   C1A  455  15.965   0.676   9.748  0.0204 -0.2200 -0.0764
   29loPI   C2A  456  16.009   0.661   9.326 -0.1629  0.3181  0.1531
   29loPI   C3A  457  16.019   0.607   8.893  0.0628  0.0502  0.2105
   29loPI   C4A  458  15.979   0.694   8.548  0.0217  0.3575 -0.0447
   29loPI   C5A  459  15.794   0.577   8.269 -0.3598 -0.0281  0.0253
   29loPI   C6A  460  15.431   0.266   8.340 -0.3704 -0.1514 -0.0231
   29loPI   C1B  461  16.216   1.167   9.622  0.1797  0.1026 -0.0081
   29loPI   C2B  462  16.291   1.143   9.209  0.0510  0.0476 -0.0174
   29loPI   C3B  463  16.283   1.073   8.833  0.0048 -0.0213 -0.2585
   29loPI   C4B  464  16.289   1.097   8.436 -0.0412  0.3318 -0.1356
   30loPI    C1  465   2.578   6.337  10.480  0.0651  0.0177 -0.1348
   30loPI    C2  466   2.856   6.609  10.570  0.1351 -0.1138  0.0521
   30loPI    C3  467   2.503   6.615  10.757  0.0735 -0.0486 -0.0656
   30loPI   PO4  468   2.504   6.381  10.219 -0.1270  0.0583  0.0965
   30loPI   GL1  469   2.507   6.330   9.822 -0.0282  0.0497 -0.1484
   30loPI   GL2  470   2.773   6.410   9.687 -0.0284  0.0343 -0.1161
   30loPI   C1A  471   2.264   6.436   9.485 -0.1323 -0.2406 -0.0388
   30loPI   C2A  472   2.246   6.491   9.060  0.0597 -0.1171  0.1119
   30loPI   C3A  473   2.153   6.486   8.623 -0.0547  0.1386 -0.1877
   30loPI   C4A  474   2.215   6.472   8.190 -0.0361  0.0952  0.1631
   30loPI   C5A  475   1.969   6.352   7.884 -0.1412 -0.0558  0.1586
   30loPI   C6A  476   1.668   6.237   7.582  0.2604 -0.2776 -0.5073
   30loPI   C1B  477   2.766   6.474   9.240  0.0528  0.1059 -0.3430
   30loPI   C2B  478   2.705   6.488   8.792  0.1013 -0.0533 -0.0910
   30loPI   C3B  479   2.654   6.472   8.402  0.2797  0.0316  0.0732
   30loPI   C4B  480   2.769   6.259   8.111  0.1356  0.1847 -0.0475
   31loPI    C1  481  12.613  15.015  11.304 -0.3065 -0.3827  0.2237
   31loPI    C2  482  12.918  14.902  11.536 -0.0990 -0.2427  0.0235
   31loPI    C3  483  12.624  14.644  11.453  0.0845 -0.4559  0.0258
   31loPI   PO4  484  12.722  15.160  11.124 -0.1042  0.0592 -0.0556
   31loPI   GL1  485  12.818  15.196  10.700  0.4913 -0.3479  0.0033
   31loPI   GL2  486  12.442  15.209  10.664 -0.2194 -0.0896 -0.1716
   31loPI   C1A  487  12.907  15.411  10.287  0.0787 -0.2748  0.0449
   31loPI   C2A  488  12.973  15.530   9.919 -0.0726 -0.0211  0.2040
   31loPI   C3A  489  12.937  15.618   9.491 -0.0399  0.4643  0.0784
   31loPI   C4A  490  12.915  15.545   9.111 -0.0334  0.1354 -0.1026
   31loPI   C5A  491  12.914  15.366   8.719  0.2647  0.0484  0.0199
   31loPI   C6A  492  13.273  15.091   8.447 -0.0443 -0.0682 -0.3460
   31loPI   C1B  493  12.600  15.026  10.292  0.2952  0.1064  0.0480
   31loPI   C2B  494  12.673  15.120   9.911 -0.0296  0.1998  0.0292
   31loPI   C3B  495  12.641  15.207   9.491  0.3757  0.2629  0.0080
   31loPI   C4B  496  12.629  15.108   9.112 -0.0190  0.2443 -0.3702
   32loPI    C1  497  11.782   2.147  11.026 -0.2465 -0.3083 -0.1086
   32loPI    C2  498  11.585   2.212  11.368  0.2306  0.1926  0.0863
   32loPI    C3  499  11.799   1.878  11.321 -0.2017 -0.0921  0.0898
   32loPI   PO4  500  11.669   2.137  10.861  0.3479  0.0255  0.0644
   32loPI   GL1  501  11.856   2.417  10.567  0.3336 -0.1401  0.2250
   32loPI   GL2  502  12.093   2.227  10.346  0.2340  0.1617 -0.2634
   32loPI   C1A  503  11.833   2.745  10.258  0.0257  0.1602  0.1681
   32loPI   C2A  504  11.918   2.816   9.847 -0.1469 -0.1326 -0.1725
   32loPI   C3A  505  11.816   2.783   9.469 -0.4109  0.0306  0.1452
   32loPI   C4A  506  11.866   2.614   9.135 -0.0604 -0.0319  0.1336
   32loPI   C5A  507  11.889   2.388   8.756  0.1040  0.0871  0.4489
   32loPI   C6A  508  11.507   2.374   8.487  0.0856  0.1209  0.2581
   32loPI   C1B  509  12.108   2.277   9.830 -0.0436 -0.1764  0.0630
   32loPI   C2B  510  12.067   2.193   9.434  0.2377 -0.0981 -0.0694
   32loPI   C3B  511  12.123   2.118   9.032 -0.2326  0.1869  0.1218
   32loPI   C4B  512  12.259   2.083   8.653  0.0020 -0.3392  0.2428
   33loPI    C1  513   5.937  15.325  10.403 -0.0467  0.2580  0.1794
   33loPI    C2  514   5.608  15.136  10.530 -0.0285 -0.0013 -0.1460
   33loPI    C3  515   5.954  15.089  10.726 -0.0308 -0.2867 -0.2057
   33loPI   PO4  516   5.825  15.588  10.176 -0.0677  0.0425 -0.0206
   33loPI   GL1  517   5.805  15.861   9.819 -0.1937 -0.0455  0.0745
   33loPI   GL2  518   5.575  16.011   9.794 -0.0816 -0.3566  0.0186
   33loPI   C1A  519   5.901  15.534   9.468 -0.0450 -0.2214  0.2137
   33loPI   C2A  520   5.954  15.632   9.061 -0.4747  0.1377 -0.0288
   33loPI   C3A  521   5.932  15.609   8.686  0.0976 -0.0140  0.0386
   33loPI   C4A  522   5.907  15.823   8.291 -0.0488 -0.0450 -0.1062
   33loPI   C5A  523   5.623  15.848   8.011  0.1581 -0.0805  0.2294
   33loPI   C6A  524   5.577  15.893   7.593 -0.0334 -0.0516 -0.0312
   33loPI   C1B  525   5.726  16.012   9.338 -0.0703 -0.3455  0.1708
   33loPI   C2B  526   5.691  16.079   8.970  0.1035 -0.2523  0.1096
   33loPI   C3B  527   5.683  16.165   8.604 -0.1628 -0.1392 -0.0048
   33loPI   C4B  528   5.461  16.214   8.284  0.0573 -0.3219  0.1046
   34loPI    C1  529   2.621   2.309  10.705 -0.0302 -0.1182  0.0399
   34loPI    C2  530   2.419   2.602  10.888 -0.0519 -0.0591 -0.0771
   34loPI    C3  531   2.360   2.220  10.994 -0.1291 -0.0321 -0.0222
   34loPI   PO4  532   2.547   2.370  10.371  0.1181  0.3779  0.4048
   34loPI   GL1  533   2.764   2.660  10.084 -0.0809  0.0303 -0.1974
   34loPI   GL2  534   2.567   2.870   9.939 -0.1874  0.2528  0.0099
   34loPI   C1A  535   3.009   2.539   9.759  0.2048  0.3580 -0.1252
   34loPI   C2A  536   2.896   2.417   9.371  0.0999  0.0385 -0.0728
   34loPI   C3A  537   2.795   2.301   8.916  0.0287  0.0184  0.2717
   34loPI   C4A  538   2.922   2.199   8.553 -0.0445 -0.0378  0.1909
   34loPI   C5A  539   2.720   2.309   8.153 -0.3523  0.1794 -0.0753
   34loPI   C6A  540   2.435   2.656   7.907  0.1621 -0.2134 -0.0720
   34loPI   C1B  541   2.514   2.577   9.653 -0.1611 -0.2733  0.3135
   34loPI   C2B  542   2.298   2.383   9.347 -0.0624 -0.0210  0.1040
   34loPI   C3B  543   2.327   2.250   8.934  0.2125  0.0919 -0.0076
   34loPI   C4B  544   2.313   2.310   8.562 -0.1163  0.0394 -0.0558
   35loPI    C1  545  11.996   4.898  11.128  0.1372 -0.0982  0.1773
   35loPI    C2  546  11.769   4.899  11.458 -0.1241  0.0108  0.0006
   35loPI    C3  547  11.898   4.552  11.305  0.1381 -0.0325  0.3077
   35loPI   PO4  548  11.912   4.970  10.972  0.0188 -0.0975  0.0017
   35loPI   GL1  549  11.946   4.886  10.507 -0.3008 -0.1096 -0.1860
   35loPI   GL2  550  11.733   5.103  10.542  0.0778 -0.0947  0.0309
   35loPI   C1A  551  11.929   4.756  10.152  0.1149 -0.4346  0.1525
   35loPI   C2A  552  12.131   4.651   9.908  0.0122  0.1196  0.4066
   35loPI   C3A  553  12.008   4.608   9.447 -0.0997 -0.3054  0.0443
   35loPI   C4A  554  12.001   4.579   9.063 -0.0475  0.0007 -0.2282
   35loPI   C5A  555  11.883   4.503   8.627 -0.1640  0.0442  0.1101
   35loPI   C6A  556  11.546   4.675   8.381 -0.1571  0.1872  0.0805
   35loPI   C1B  557  11.630   5.193  10.193  0.1306 -0.0574 -0.3672
   35loPI   C2B  558  11.748   5.074   9.801 -0.3338 -0.0045  0.0069
   35loPI   C3B  559  11.748   5.066   9.389 -0.1312 -0.2122  0.1486
   35loPI   C4B  560  11.835   5.033   8.928  0.3320 -0.1666  0.0785
   36loPI    C1  561   7.119  15.779  10.887  0.2592 -0.0894 -0.0557
   36loPI    C2  562   6.764  15.596  10.909  0.1028  0.2401  0.2486
   36loPI    C3  563   7.089  15.420  11.062 -0.0057  0.1207  0.3442
   36loPI   PO4  564   7.146  15.910  10.681  0.0032  0.3515 -0.1777
   36loPI   GL1  565   7.193  15.919  10.314  0.3136  0.1660 -0.1994
   36loPI   GL2  566   6.959  16.141  10.261  0.3254 -0.0597  0.1566
   36loPI   C1A  567   7.205  15.938   9.874  0.0733 -0.0485  0.0624
   36loPI   C2A  568   7.212  16.004   9.441 -0.2129 -0.0124  0.1755
   36loPI   C3A  569   7.279  15.966   8.951 -0.1032 -0.0718 -0.0503
   36loPI   C4A  570   7.106  15.731   8.533  0.2935  0.0194  0.1619
   36loPI   C5A  571   7.317  15.357   8.397  0.0612  0.0110  0.1264
   36loPI   C6A  572   7.473  14.959   8.400  0.2235  0.1355 -0.0034
   36loPI   C1B  573   7.021  16.441   9.868  0.1002 -0.1098  0.0939
   36loPI   C2B  574   7.014  16.469   9.404  0.2059  0.1365  0.1327
   36loPI   C3B  575   7.044  16.462   9.008  0.0410  0.0167 -0.3163
   36loPI   C4B  576   7.066  16.626   8.620  0.0568  0.2982 -0.0359
   37loPI    C1  577   3.213  10.824  10.289 -0.1462  0.2744  0.0209
   37loPI    C2  578   3.255  10.835  10.687  0.0854 -0.1177  0.0123
   37loPI    C3  579   3.563  10.726  10.456 -0.0175  0.2014 -0.2846
   37loPI   PO4  580   3.020  10.625  10.183  0.1671  0.1176 -0.2378
   37loPI   GL1  581   2.884  10.425   9.821  0.1489 -0.0236 -0.0672
   37loPI   GL2  582   2.622  10.687   9.871  0.1587 -0.1291  0.0487
   37loPI   C1A  583   2.715  10.601   9.399  0.0636 -0.2049  0.2447
   37loPI   C2A  584   2.626  10.558   8.981 -0.0577  0.0135 -0.1470
   37loPI   C3A  585   2.648  10.582   8.600 -0.0993 -0.0772 -0.3241
   37loPI   C4A  586   2.699  10.697   8.202  0.0563 -0.1646 -0.1558
   37loPI   C5A  587   2.758  11.084   7.864  0.0747  0.0099 -0.0211
   37loPI   C6A  588   3.073  11.197   7.586  0.1180 -0.3034 -0.1070
   37loPI   C1B  589   2.604  11.037   9.508  0.0028  0.0136 -0.0321
   37loPI   C2B  590   2.510  11.033   9.045 -0.0479  0.2649 -0.1881
   37loPI   C3B  591   2.490  11.093   8.569 -0.0190 -0.1532 -0.0159
   37loPI   C4B  592   2.329  11.198   8.123 -0.0106 -0.1038  0.1981
   38loPI    C1  593   5.341  13.850  10.696 -0.0032  0.1103  0.0891
   38loPI    C2  594   5.589  14.107  10.877 -0.0319  0.1756  0.0360
   38loPI    C3  595   5.227  14.228  10.758  0.0675  0.1918 -0.2585
   38loPI   PO4  596   5.384  13.787  10.566 -0.4928  0.0036  0.3057
   38loPI   GL1  597   5.500  13.834  10.113 -0.3248 -0.3727 -0.3011
   38loPI   GL2  598   5.252  13.974   9.976 -0.1895  0.1116  0.1703
   38loPI   C1A  599   5.557  13.602   9.749 -0.0389 -0.0079  0.1749
   38loPI   C2A  600   5.673  13.657   9.305 -0.0749 -0.0168  0.1999
   38loPI   C3A  601   5.748  13.759   8.910 -0.0685  0.2679  0.3574
   38loPI   C4A  602   5.963  13.730   8.444  0.1355 -0.1493 -0.0358
   38loPI   C5A  603   5.969  13.713   8.001 -0.2890  0.0412 -0.0221
   38loPI   C6A  604   6.246  13.680   7.733  0.0340 -0.2001  0.1848
   38loPI   C1B  605   5.446  14.094   9.618 -0.1342 -0.0554  0.2225
   38loPI   C2B  606   5.471  14.126   9.118 -0.1371  0.1090 -0.1090
   38loPI   C3B  607   5.545  14.184   8.645 -0.0899  0.2307 -0.2486
   38loPI   C4B  608   5.611  14.102   8.192 -0.1881  0.0081 -0.3800
   39loPI    C1  609   6.178  15.796  10.610  0.1142 -0.3444  0.1111
   39loPI    C2  610   5.951  15.567  10.846 -0.0472 -0.1195  0.1774
   39loPI    C3  611   6.216  15.819  11.008  0.1831 -0.3105  0.1027
   39loPI   PO4  612   6.052  15.941  10.471  0.0710  0.4328  0.0079
   39loPI   GL1  613   6.056  16.256  10.176 -0.3030  0.3416  0.0256
   39loPI   GL2  614   6.370  15.974  10.124 -0.0746 -0.1881  0.1724
   39loPI   C1A  615   6.197  16.097   9.667  0.1021 -0.0569 -0.0783
   39loPI   C2A  616   6.227  16.123   9.219  0.0969  0.3092 -0.1297
   39loPI   C3A  617   6.218  16.032   8.834 -0.2195  0.1650  0.3474
   39loPI   C4A  618   6.238  16.137   8.459  0.0726  0.0931 -0.1289
   39loPI   C5A  619   6.459  16.304   8.114  0.2732 -0.2875 -0.1332
   39loPI   C6A  620   6.901  16.557   8.096 -0.2447 -0.0994  0.1972
   39loPI   C1B  621   6.684  15.986   9.861  0.2463 -0.1945 -0.1013
   39loPI   C2B  622   6.712  16.081   9.491 -0.2659  0.1492  0.2308
   39loPI   C3B  623   6.803  16.034   9.024  0.1637 -0.2261 -0.3112
   39loPI   C4B  624   6.782  16.181   8.554  0.0972 -0.2208 -0.2764
   40loPI    C1  625  11.224  16.024  11.229  0.0517 -0.1382  0.0676
   40loPI    C2  626  11.531  15.872  11.022 -0.0051 -0.1480 -0.0100
   40loPI    C3  627  11.577  15.968  11.407  0.0867 -0.1775 -0.0135
   40loPI   PO4  628  11.134  16.182  10.998  0.0328 -0.0424  0.2277
   40loPI   GL1  629  11.117  16.395  10.535  0.1069 -0.0123 -0.0157
   40loPI   GL2  630  10.931  16.607  10.499 -0.0490  0.1352  0.2290
   40loPI   C1A  631  11.325  16.554  10.116  0.0483 -0.1183  0.0680
   40loPI   C2A  632  11.340  16.477   9.730  0.0599  0.1197  0.0386
   40loPI   C3A  633  11.470  16.559   9.268 -0.1073  0.0043  0.2397
   40loPI   C4A  634  11.447  16.574   8.793  0.3289  0.0358  0.1163
   40loPI   C5A  635  11.195  16.369   8.390  0.2468  0.1186 -0.1678
   40loPI   C6A  636  10.933  15.981   8.247  0.0245 -0.1372 -0.3922
   40loPI   C1B  637  10.775  16.589  10.125  0.2080 -0.1922  0.1905
   40loPI   C2B  638  10.830  16.609   9.680  0.0900  0.0530 -0.2236
   40loPI   C3B  639  10.936  16.591   9.262 -0.3078  0.3494 -0.0999
   40loPI   C4B  640  10.919  16.630   8.868 -0.0382 -0.0133  0.1182
   41loPI    C1  641   8.960  16.106  10.780 -0.1810 -0.0107  0.0215
   41loPI    C2  642   8.940  16.254  11.151 -0.0035  0.0088  0.0239
   41loPI    C3  643   9.263  16.049  11.034 -0.1102 -0.1003 -0.0823
   41loPI   PO4  644   8.714  15.986  10.751 -0.1519  0.0944  0.0598
   41loPI   GL1  645   8.749  16.102  10.277 -0.0058  0.1725  0.1412
   41loPI   GL2  646   8.518  16.305  10.428 -0.1130  0.3284 -0.0762
   41loPI   C1A  647   8.682  15.947   9.875 -0.0858 -0.0022 -0.0329
   41loPI   C2A  648   8.799  15.933   9.464 -0.1636  0.0955 -0.0339
   41loPI   C3A  649   8.727  15.947   9.043 -0.1495 -0.1354 -0.4146
   41loPI   C4A  650   8.721  16.242   8.678  0.1078 -0.2435 -0.0871
   41loPI   C5A  651   8.585  16.281   8.252 -0.0348  0.2062  0.0389
   41loPI   C6A  652   8.265  16.248   7.951 -0.2761  0.2435  0.2017
   41loPI   C1B  653   8.485  16.417  10.003 -0.1143 -0.1631  0.2393
   41loPI   C2B  654   8.570  16.369   9.634 -0.0499 -0.4037 -0.1427
   41loPI   C3B  655   8.452  16.408   9.172 -0.2457 -0.1114 -0.0342
   41loPI   C4B  656   8.355  16.513   8.699  0.0490 -0.3657  0.1472
   42loPI    C1  657  16.947   5.874  10.786  0.0446  0.1116 -0.2789
   42loPI    C2  658  16.991   6.136  11.085 -0.0140  0.0172 -0.1867
   42loPI    C3  659  17.131   5.763  11.124  0.0874  0.0401 -0.3253
   42loPI   PO4  660  16.737   5.943  10.652  0.2325 -0.2544 -0.2895
   42loPI   GL1  661  16.602   5.790  10.195 -0.0707 -0.0786  0.1909
   42loPI   GL2  662  16.318   5.792  10.184  0.1695 -0.2397  0.0880
   42loPI   C1A  663  16.504   5.743   9.697 -0.2001  0.0297  0.2296
   42loPI   C2A  664  16.371   5.700   9.299 -0.1539 -0.7999 -0.2002
   42loPI   C3A  665  16.434   5.734   8.913  0.4682 -0.0478  0.0009
   42loPI   C4A  666  16.363   5.691   8.549 -0.0580  0.3279 -0.1925
   42loPI   C5A  667  16.314   5.216   8.343  0.4157 -0.2050 -0.0935
   42loPI   C6A  668  16.111   4.829   8.203  0.0956  0.1719  0.2563
   42loPI   C1B  669  16.024   5.821   9.743  0.1510 -0.1250  0.1362
   42loPI   C2B  670  15.778   5.831   9.324  0.1384  0.1513 -0.0537
   42loPI   C3B  671  15.870   5.807   8.945  0.0403  0.3082  0.1689
   42loPI   C4B  672  15.907   5.665   8.551 -0.1212  0.0816  0.2815
   43loPI    C1  673  16.715   3.793  10.828  0.0834 -0.0060 -0.1142
   43loPI    C2  674  17.083   3.656  10.905  0.0539 -0.0698 -0.0859
   43loPI    C3  675  16.774   3.537  11.130  0.0763  0.2919  0.1447
   43loPI   PO4  676  16.735   3.759  10.513 -0.1908 -0.0840  0.3286
   43loPI   GL1  677  16.702   3.974  10.090  0.3462  0.1738  0.1626
   43loPI   GL2  678  16.454   3.857  10.106 -0.4711  0.1282  0.2688
   43loPI   C1A  679  16.893   3.949   9.667  0.1573 -0.0030  0.0631
   43loPI   C2A  680  16.975   3.848   9.210  0.0613 -0.0395  0.3329
   43loPI   C3A  681  17.021   3.779   8.887  0.3215  0.1806 -0.2133
   43loPI   C4A  682  16.880   3.796   8.441  0.1210 -0.1658 -0.0619
   43loPI   C5A  683  16.879   3.943   8.004  0.1379 -0.5638 -0.0847
   43loPI   C6A  684  16.597   4.243   7.918 -0.4330 -0.0030 -0.0305
   43loPI   C1B  685  16.342   3.989   9.699  0.0331 -0.1141 -0.0190
   43loPI   C2B  686  16.352   3.987   9.288  0.0872 -0.3481 -0.1009
   43loPI   C3B  687  16.289   3.859   8.904 -0.1527 -0.2811 -0.1438
   43loPI   C4B  688  16.346   3.802   8.473 -0.1238  0.1318  0.0981
   44loPI    C1  689  10.354  15.710  11.199  0.0261 -0.0502  0.0738
   44loPI    C2  690  10.014  15.758  10.993 -0.0210 -0.2111  0.1125
   44loPI    C3  691  10.004  15.605  11.363  0.0428  0.2531  0.3127
   44loPI   PO4  692  10.468  15.629  11.065  0.2147 -0.2573 -0.1438
   44loPI   GL1  693  10.409  15.583  10.616 -0.1471 -0.2932 -0.3074
   44loPI   GL2  694  10.241  15.799  10.532 -0.2008 -0.1567  0.1163
   44loPI   C1A  695  10.684  15.687  10.312  0.1285 -0.1273 -0.0594
   44loPI   C2A  696  10.698  15.677   9.871  0.0399 -0.1112 -0.2946
   44loPI   C3A  697  10.800  15.651   9.466  0.1912 -0.0187 -0.1610
   44loPI   C4A  698  10.899  15.745   9.121 -0.0903  0.3260 -0.2360
   44loPI   C5A  699  10.707  15.611   8.693 -0.0712 -0.1641  0.1188
   44loPI   C6A  700  10.528  15.235   8.404  0.2037 -0.0684 -0.4749
   44loPI   C1B  701  10.224  15.751  10.085 -0.0585  0.1124 -0.1610
   44loPI   C2B  702  10.287  15.783   9.589 -0.1973  0.1231  0.1350
   44loPI   C3B  703  10.379  15.722   9.118  0.3158 -0.1865  0.1699
   44loPI   C4B  704  10.234  15.521   8.802  0.0922 -0.0249 -0.2147
   45loPI    C1  705   7.700   7.978  11.158 -0.3074  0.1910  0.0046
   45loPI    C2  706   7.940   8.284  11.252  0.1506 -0.1577  0.0036
   45loPI    C3  707   7.635   8.188  11.492 -0.0127  0.3086 -0.0087
   45loPI   PO4  708   7.730   7.892  10.870 -0.2886 -0.2186  0.0542
   45loPI   GL1  709   7.705   7.816  10.478 -0.1111 -0.2267 -0.0369
   45loPI   GL2  710   7.488   7.902  10.228  0.3424 -0.2100  0.2923
   45loPI   C1A  711   7.969   8.052  10.222 -0.1858 -0.2727 -0.1835
   45loPI   C2A  712   8.103   8.024   9.738  0.1307 -0.0825  0.2591
   45loPI   C3A  713   8.178   7.945   9.285  0.0188 -0.1756 -0.0420
   45loPI   C4A  714   8.274   7.856   8.821 -0.1706  0.2320 -0.0692
   45loPI   C5A  715   8.414   7.671   8.385 -0.2890 -0.0481  0.2249
   45loPI   C6A  716   8.388   7.346   8.299 -0.0858  0.0131  0.1220
   45loPI   C1B  717   7.807   7.675   9.963 -0.2165 -0.2114  0.2210
   45loPI   C2B  718   7.785   7.508   9.548 -0.2599  0.0027 -0.1910
   45loPI   C3B  719   7.884   7.530   9.193 -0.1227  0.1457  0.3413
   45loPI   C4B  720   7.845   7.422   8.715  0.1635 -0.1433 -0.2593
   46loPI    C1  721   0.908   8.495  10.331 -0.0910  0.0745 -0.0294
   46loPI    C2  722   1.164   8.499  10.639 -0.2546  0.1933  0.1068
   46loPI    C3  723   0.982   8.158  10.534  0.0601  0.0776 -0.0777
   46loPI   PO4  724   1.010   8.700  10.110 -0.0946 -0.0411 -0.1057
   46loPI   GL1  725   1.000   8.605   9.662  0.1915  0.0234  0.0659
   46loPI   GL2  726   1.331   8.552   9.747  0.0865  0.2299  0.0761
   46loPI   C1A  727   0.887   8.722   9.171  0.2682  0.2103 -0.0409
   46loPI   C2A  728   0.861   8.649   8.704 -0.2329 -0.0430 -0.0766
   46loPI   C3A  729   0.794   8.785   8.182 -0.0687 -0.2419  0.1165
   46loPI   C4A  730   0.564   9.019   7.851 -0.0620 -0.0856 -0.1685
   46loPI   C5A  731   0.692   9.206   7.418 -0.0049  0.0716 -0.1626
   46loPI   C6A  732   0.730   9.480   7.037 -0.1054 -0.3330  0.2868
   46loPI   C1B  733   1.356   8.529   9.346  0.1483 -0.0316  0.0387
   46loPI   C2B  734   1.301   8.499   8.915 -0.2036  0.0372 -0.0925
   46loPI   C3B  735   1.183   8.388   8.451  0.0128  0.1355  0.2083
   46loPI   C4B  736   1.060   8.433   7.959  0.2369  0.0713 -0.3837
   47loPI    C1  737  11.964   7.391  11.024 -0.1395 -0.3293  0.0511
   47loPI    C2  738  12.314   7.276  10.870 -0.0218  0.1127 -0.0269
   47loPI    C3  739  12.244   7.234  11.261  0.1666  0.1360  0.0102
   47loPI   PO4  740  11.947   7.641  10.900 -0.1196  0.0913  0.1432
   47loPI   GL1  741  12.059   7.640  10.526 -0.1409 -0.1326  0.1519
   47loPI   GL2  742  12.124   7.431  10.446 -0.0525 -0.0463  0.2864
   47loPI   C1A  743  11.881   7.816  10.095 -0.0268 -0.0087  0.1340
   47loPI   C2A  744  11.876   7.917   9.704  0.1705 -0.2666 -0.1066
   47loPI   C3A  745  11.846   7.945   9.330  0.2650 -0.0124 -0.0166
   47loPI   C4A  746  11.712   8.058   8.891 -0.0318  0.2331 -0.2449
   47loPI   C5A  747  11.516   8.394   8.707  0.2889 -0.0010  0.3367
   47loPI   C6A  748  11.281   8.388   8.390 -0.3736  0.2456  0.2927
   47loPI   C1B  749  12.094   7.420   9.965 -0.0380 -0.1150  0.1369
   47loPI   C2B  750  12.034   7.442   9.622  0.0645  0.0332 -0.1056
   47loPI   C3B  751  12.126   7.487   9.165  0.2390 -0.0630  0.1129
   47loPI   C4B  752  11.949   7.641   8.660 -0.1006 -0.0573 -0.2690
   48loPI    C1  753  16.604   5.098  10.803 -0.0413  0.3972  0.0080
   48loPI    C2  754  16.775   4.925  11.120 -0.0783 -0.0961 -0.2329
   48loPI    C3  755  16.376   4.948  11.096 -0.0719  0.0972 -0.1656
   48loPI   PO4  756  16.721   4.946  10.635  0.0649  0.0277  0.0767
   48loPI   GL1  757  16.761   4.994  10.181 -0.3131  0.0509 -0.0164
   48loPI   GL2  758  16.932   4.835   9.924  0.1066 -0.0658 -0.2610
   48loPI   C1A  759  16.591   5.296   9.924  0.1627  0.0777 -0.1550
   48loPI   C2A  760  16.669   5.316   9.534 -0.0047  0.0997  0.2132
   48loPI   C3A  761  16.640   5.269   9.086  0.1156 -0.3142 -0.3993
   48loPI   C4A  762  16.651   5.225   8.700 -0.1637  0.0935 -0.1024
   48loPI   C5A  763  16.797   5.215   8.273 -0.1800  0.0843  0.3566
   48loPI   C6A  764  17.187   4.932   8.155  0.1019 -0.0115 -0.1400
   48loPI   C1B  765  16.997   4.778   9.466  0.0267  0.0872  0.2649
   48loPI   C2B  766  16.898   4.791   8.979 -0.1310 -0.1585 -0.1706
   48loPI   C3B  767  16.879   4.747   8.511 -0.1651  0.0023 -0.0837
   48loPI   C4B  768  16.599   4.749   8.212  0.1937  0.2224 -0.2558
   49loPI    C1  769   3.691  16.179  10.692 -0.0829  0.1022  0.0397
   49loPI    C2  770   3.853  15.868  10.884 -0.0831  0.0566 -0.0339
   49loPI    C3  771   3.796  16.214  11.076 -0.0429  0.0245  0.0360
   49loPI   PO4  772   3.487  16.068  10.581  0.0510 -0.0302 -0.0365
   49loPI   GL1  773   3.136  16.052  10.293  0.1006  0.1139  0.2350
   49loPI   GL2  774   3.129  16.206  10.047 -0.0286 -0.1329  0.4880
   49loPI   C1A  775   3.462  15.947   9.882 -0.2558 -0.1551 -0.1339
   49loPI   C2A  776   3.632  15.973   9.438  0.0823 -0.1402 -0.1100
   49loPI   C3A  777   3.624  16.010   8.983  0.1759  0.1379 -0.0874
   49loPI   C4A  778   3.438  16.020   8.676 -0.4042 -0.0507 -0.0709
   49loPI   C5A  779   3.372  15.891   8.244 -0.0725 -0.2673  0.1778
   49loPI   C6A  780   3.517  15.982   7.753  0.1034  0.1312 -0.3915
   49loPI   C1B  781   3.225  16.265   9.648  0.0151 -0.0451 -0.1506
   49loPI   C2B  782   3.260  16.292   9.231 -0.1335 -0.2156 -0.0930
   49loPI   C3B  783   3.358  16.498   8.874  0.0810  0.0751 -0.1926
   49loPI   C4B  784   3.289  16.778   8.563 -0.1871 -0.0247 -0.1698
   50loPI    C1  785  17.812  14.770  10.756 -0.0059 -0.1710  0.1021
   50loPI    C2  786  17.555  15.070  10.812 -0.0029 -0.1675  0.0972
   50loPI    C3  787  17.861  15.020  11.065  0.0621 -0.0983  0.0330
   50loPI   PO4  788  17.741  14.613  10.668  0.0690  0.2761  0.1493
   50loPI   GL1  789  17.598  14.441  10.267 -0.2393  0.0751 -0.1841
   50loPI   GL2  790  17.853  14.295  10.060 -0.1475  0.1525 -0.2674
   50loPI   C1A  791  17.411  14.618  10.011  0.0139  0.1060  0.0432
   50loPI   C2A  792  17.410  14.896   9.601 -0.1581 -0.2413  0.0759
   50loPI   C3A  793  17.330  14.938   9.125  0.1611 -0.0038 -0.0111
   50loPI   C4A  794  17.440  15.126   8.893 -0.0685 -0.0742  0.2141
   50loPI   C5A  795  17.563  15.035   8.564  0.0531  0.0960  0.4350
   50loPI   C6A  796  17.693  15.216   8.106 -0.0272  0.3934  0.2305
   50loPI   C1B  797  17.703  14.363   9.592  0.0958 -0.1238 -0.1394
   50loPI   C2B  798  17.649  14.385   9.139  0.1607  0.0514  0.1034
   50loPI   C3B  799  17.695  14.554   8.743  0.0320  0.0135 -0.0008
   50loPI   C4B  800  17.870  14.660   8.346  0.0098  0.0163  0.1421
   51loPI    C1  801   0.667   0.642  10.690  0.0130  0.1752  0.1334
   51loPI    C2  802   0.830   0.349  10.909  0.0095  0.0247 -0.0623
   51loPI    C3  803   0.456   0.469  10.983  0.0342  0.0257  0.0619
   51loPI   PO4  804   0.781   0.522  10.354 -0.1200 -0.2451  0.1645
   51loPI   GL1  805   0.790   0.774  10.009 -0.0490  0.3513 -0.2947
   51loPI   GL2  806   0.496   0.496   9.950 -0.4938 -0.0868  0.1768
   51loPI   C1A  807   0.554   0.948   9.610  0.1104 -0.2302  0.3508
   51loPI   C2A  808   0.526   0.925   9.240 -0.0545 -0.2786 -0.0556
   51loPI   C3A  809   0.507   0.985   8.848 -0.3692  0.1974  0.3129
   51loPI   C4A  810   0.397   1.057   8.343  0.0510  0.2179  0.2873
   51loPI   C5A  811   0.455   0.875   7.994 -0.1205 -0.0787 -0.1772
   51loPI   C6A  812   0.457   0.773   7.520  0.1839 -0.2941  0.1389
   51loPI   C1B  813   0.683   0.453   9.558 -0.1355 -0.3412  0.1688
   51loPI   C2B  814   0.775   0.519   9.073  0.1281 -0.0512  0.1072
   51loPI   C3B  815   0.625   0.501   8.627  0.1886  0.0377  0.1749
   51loPI   C4B  816   0.600   0.401   8.138 -0.3141  0.0675 -0.1794
   52loPI    C1  817  12.744   3.701  10.711  0.1381  0.0456  0.0240
   52loPI    C2  818  12.840   3.389  10.943  0.1095 -0.0036 -0.0303
   52loPI    C3  819  12.842   3.759  11.094  0.0211 -0.0428  0.0682
   52loPI   PO4  820  12.954   3.732  10.534 -0.0994 -0.1459  0.2883
   52loPI   GL1  821  13.076   3.615  10.141  0.4468 -0.2185 -0.2943
   52loPI   GL2  822  13.214   3.405  10.106 -0.2526  0.1049 -0.1233
   52loPI   C1A  823  13.040   3.641   9.681  0.0194  0.0122  0.1721
   52loPI   C2A  824  13.001   3.708   9.271  0.2352  0.1388 -0.0279
   52loPI   C3A  825  12.865   3.472   8.833  0.1307  0.1905 -0.1618
   52loPI   C4A  826  12.991   3.315   8.433  0.0549 -0.0026 -0.0513
   52loPI   C5A  827  12.990   2.878   8.247 -0.1499  0.1348 -0.0326
   52loPI   C6A  828  13.246   2.564   7.855  0.0025 -0.1265 -0.0411
   52loPI   C1B  829  13.352   3.239   9.801  0.1052  0.1339  0.0262
   52loPI   C2B  830  13.278   3.277   9.367 -0.1279  0.1348 -0.1297
   52loPI   C3B  831  13.234   2.998   9.016  0.0988  0.0944  0.0475
   52loPI   C4B  832  13.349   2.919   8.576 -0.0427  0.2601  0.1459
   53loPI    C1  833  14.533  15.185  11.122 -0.3776  0.1961  0.0302
   53loPI    C2  834  14.628  15.432  11.422  0.0195 -0.0254  0.0938
   53loPI    C3  835  14.435  15.091  11.498 -0.1293  0.0508  0.0609
   53loPI   PO4  836  14.520  15.307  10.828 -0.0417 -0.0818  0.0523
   53loPI   GL1  837  14.794  15.169  10.384  0.0305  0.0115 -0.0869
   53loPI   GL2  838  14.614  14.872  10.431  0.1117 -0.0206 -0.3833
   53loPI   C1A  839  14.774  15.034   9.967 -0.2998 -0.0718  0.0042
   53loPI   C2A  840  14.772  15.078   9.546  0.0664 -0.0425 -0.0478
   53loPI   C3A  841  14.876  15.052   9.158  0.0929  0.3190 -0.0347
   53loPI   C4A  842  14.817  15.150   8.719 -0.1402 -0.0264 -0.2516
   53loPI   C5A  843  14.708  15.486   8.469  0.0943  0.0642 -0.0830
   53loPI   C6A  844  14.180  15.517   8.350 -0.1955  0.0995 -0.2846
   53loPI   C1B  845  14.520  14.611  10.081  0.0609 -0.1279 -0.2809
   53loPI   C2B  846  14.639  14.574   9.686  0.0913 -0.2722 -0.2735
   53loPI   C3B  847  14.612  14.662   9.300  0.2205 -0.0052  0.0842
   53loPI   C4B  848  14.581  14.734   8.934 -0.0972 -0.0235  0.1580
   54loPI    C1  849  10.557   3.288  11.313  0.0965  0.3116  0.0097
   54loPI    C2  850  10.494   2.923  11.465 -0.1142  0.1881 -0.3604
   54loPI    C3  851  10.399   3.248  11.678 -0.1161  0.0256 -0.1096
   54loPI   PO4  852  10.486   3.196  11.045 -0.0573 -0.3026  0.0440
   54loPI   GL1  853  10.441   3.419  10.773 -0.0831 -0.0420 -0.1317
   54loPI   GL2  854  10.693   3.413  10.527  0.0834 -0.1060 -0.3440
   54loPI   C1A  855  10.210   3.390  10.378 -0.3111  0.1879 -0.1705
   54loPI   C2A  856  10.042   3.423   9.991  0.1011  0.0410  0.4555
   54loPI   C3A  857   9.943   3.360   9.538  0.0280  0.3460  0.0148
   54loPI   C4A  858  10.057   3.327   9.152  0.0861  0.1310  0.1284
   54loPI   C5A  859   9.834   3.305   8.797  0.1338 -0.2508 -0.3981
   54loPI   C6A  860   9.422   3.243   8.739  0.0484 -0.3119  0.1265
   54loPI   C1B  861  10.593   3.367   9.973 -0.0374  0.2117  0.0632
   54loPI   C2B  862  10.567   3.269   9.513  0.2554 -0.1280  0.0524
   54loPI   C3B  863  10.564   3.331   9.120 -0.0583  0.2475 -0.2457
   54loPI   C4B  864  10.579   3.514   8.734  0.2672 -0.0412  0.1157
   55loPI    C1  865   7.236   4.403  11.128  0.0307  0.0279  0.0606
   55loPI    C2  866   7.362   4.775  11.207  0.0665  0.0456 -0.0766
   55loPI    C3  867   7.348   4.502  11.499  0.3971  0.0511 -0.0520
   55loPI   PO4  868   7.385   4.412  10.865  0.3924  0.0516  0.1100
   55loPI   GL1  869   7.435   4.451  10.443 -0.2101 -0.2023  0.2158
   55loPI   GL2  870   7.255   4.452  10.266  0.0038  0.0144 -0.1401
   55loPI   C1A  871   7.765   4.279  10.159  0.3019 -0.1713 -0.3410
   55loPI   C2A  872   8.016   4.324   9.824 -0.0088  0.0126 -0.1422
   55loPI   C3A  873   8.107   4.404   9.328 -0.2910 -0.0207  0.2110
   55loPI   C4A  874   8.071   4.254   8.983 -0.1485  0.1390  0.0240
   55loPI   C5A  875   8.233   4.224   8.565  0.1517  0.0050  0.1443
   55loPI   C6A  876   8.465   4.497   8.337  0.0638  0.2592 -0.3360
   55loPI   C1B  877   7.294   4.351   9.903 -0.0908  0.0965  0.3324
   55loPI   C2B  878   7.384   4.362   9.551  0.0318  0.3979  0.1098
   55loPI   C3B  879   7.600   4.313   9.207 -0.2727 -0.3414  0.1103
   55loPI   C4B  880   7.633   4.254   8.749 -0.2221 -0.0489 -0.0876
   56loPI    C1  881  12.268   9.536  11.141  0.2080  0.2570 -0.0303
   56loPI    C2  882  12.089   9.255  11.361  0.2057 -0.0043 -0.3579
   56loPI    C3  883  12.378   9.481  11.521  0.0218 -0.0073 -0.0123
   56loPI   PO4  884  12.283   9.474  10.949 -0.0365  0.3951 -0.0967
   56loPI   GL1  885  12.714   9.380  10.732  0.2249 -0.0570 -0.0280
   56loPI   GL2  886  12.532   9.671  10.525 -0.1401 -0.0544 -0.2109
   56loPI   C1A  887  12.726   9.168  10.373 -0.0727  0.0462 -0.0641
   56loPI   C2A  888  12.754   9.268  10.017 -0.1468  0.0842 -0.1733
   56loPI   C3A  889  12.695   9.144   9.575 -0.1104  0.1163  0.1272
   56loPI   C4A  890  12.661   9.152   9.169 -0.1220  0.1316  0.1167
   56loPI   C5A  891  12.645   9.181   8.682 -0.0739  0.0793 -0.0123
   56loPI   C6A  892  12.565   9.055   8.230 -0.2766  0.0569 -0.0495
   56loPI   C1B  893  12.458   9.619  10.094 -0.1363  0.2227 -0.2462
   56loPI   C2B  894  12.310   9.622   9.779  0.1622  0.0143  0.1340
   56loPI   C3B  895  12.415   9.729   9.254 -0.3391  0.0078  0.0956
   56loPI   C4B  896  12.360   9.665   8.782 -0.1338  0.2470 -0.1056
   57loPI    C1  897   8.393  16.818  11.367  0.1425 -0.0451 -0.2159
   57loPI    C2  898   8.526  16.464  11.497  0.1514  0.0176 -0.0525
   57loPI    C3  899   8.515  16.777  11.745 -0.2851  0.0192 -0.0660
   57loPI   PO4  900   8.291  16.737  11.098 -0.2397  0.1253 -0.1789
   57loPI   GL1  901   8.238  16.861  10.671 -0.0113  0.1635  0.1273
   57loPI   GL2  902   8.103  16.547  10.643 -0.0847 -0.2506  0.1812
   57loPI   C1A  903   8.225  16.814  10.216  0.0772  0.0954  0.0207
   57loPI   C2A  904   8.293  16.790   9.757 -0.0628 -0.1044 -0.1855
   57loPI   C3A  905   8.226  16.839   9.233 -0.2813  0.1227 -0.0500
   57loPI   C4A  906   8.488  16.974   8.869 -0.0515  0.1546  0.3408
   57loPI   C5A  907   8.379  17.167   8.520 -0.1948  0.2793 -0.0495
   57loPI   C6A  908   8.127  17.196   8.252 -0.0683  0.0351 -0.0262
   57loPI   C1B  909   7.980  16.341  10.235  0.0570 -0.1002  0.5225
   57loPI   C2B  910   8.008  16.379   9.749 -0.0952 -0.1415 -0.1234
   57loPI   C3B  911   7.928  16.469   9.408  0.0295 -0.0570  0.0281
   57loPI   C4B  912   8.008  16.396   8.985 -0.1977  0.0226 -0.2093
   58loPI    C1  913   9.861   0.817  11.393  0.1297 -0.1422 -0.0512
   58loPI    C2  914   9.982   0.486  11.583  0.2098 -0.0115  0.1285
   58loPI    C3  915   9.987   0.838  11.772  0.0194  0.0759 -0.0254
   58loPI   PO4  916   9.760   0.753  11.086 -0.2629  0.0346  0.0021
   58loPI   GL1  917   9.791   1.064  10.682 -0.1572  0.0467  0.3296
   58loPI   GL2  918   9.912   1.375  10.681 -0.1277  0.0219 -0.4323
   58loPI   C1A  919   9.779   1.097  10.282  0.0220  0.0793 -0.1377
   58loPI   C2A  920   9.767   1.039   9.828  0.0188 -0.1398 -0.0065
   58loPI   C3A  921   9.718   1.072   9.403 -0.2759  0.0705 -0.2295
   58loPI   C4A  922   9.704   1.029   8.995 -0.1333 -0.1550  0.2872
   58loPI   C5A  923   9.349   1.016   8.616  0.0952 -0.1623  0.0149
   58loPI   C6A  924   9.237   0.901   8.168 -0.2500  0.0653 -0.0634
   58loPI   C1B  925   9.968   1.585  10.303 -0.1700 -0.1250  0.2456
   58loPI   C2B  926  10.068   1.559   9.929 -0.0064  0.1442  0.1385
   58loPI   C3B  927  10.008   1.557   9.514  0.0497 -0.1448  0.0892
   58loPI   C4B  928  10.010   1.409   9.135  0.2277 -0.0566  0.2173
   59loPI    C1  929  15.424  16.949  10.954  0.1471 -0.0056  0.0539
   59loPI    C2  930  15.454  17.023  11.346 -0.1585 -0.1046  0.0993
   59loPI    C3  931  15.375  16.652  11.218 -0.0491 -0.0746 -0.0573
   59loPI   PO4  932  15.676  17.108  10.795 -0.1278  0.3823  0.4598
   59loPI   GL1  933  15.953  17.194  10.464  0.0579  0.1093  0.1921
   59loPI   GL2  934  16.152  16.896  10.440  0.0091  0.0251 -0.0100
   59loPI   C1A  935  15.827  17.365  10.142 -0.0081 -0.1920 -0.0956
   59loPI   C2A  936  15.750  17.307   9.732 -0.4432  0.1383 -0.3300
   59loPI   C3A  937  15.659  17.206   9.372  0.0286 -0.1285  0.0373
   59loPI   C4A  938  15.578  17.222   8.883 -0.1762  0.3750 -0.3301
   59loPI   C5A  939  15.838  17.323   8.583  0.1451 -0.2414 -0.0531
   59loPI   C6A  940  16.250  17.341   8.429 -0.0795  0.1360  0.1912
   59loPI   C1B  941  16.036  16.805  10.150  0.0931  0.0135  0.1404
   59loPI   C2B  942  16.003  16.880   9.731 -0.2170 -0.0655 -0.0163
   59loPI   C3B  943  15.947  16.813   9.319  0.0804 -0.0070  0.0288
   59loPI   C4B  944  15.900  16.758   8.946 -0.0250 -0.1921 -0.2638
   60loPI    C1  945   0.049   6.083  10.470 -0.1609  0.1389  0.2504
   60loPI    C2  946   0.375   6.029  10.695  0.0065  0.1730  0.0195
   60loPI    C3  947   0.048   6.195  10.854  0.0962  0.1277  0.2559
   60loPI   PO4  948   0.230   5.896  10.241  0.4394 -0.1244  0.1402
   60loPI   GL1  949   0.503   5.576  10.035 -0.2019 -0.0932  0.2010
   60loPI   GL2  950   0.791   5.409  10.003  0.2841 -0.1043 -0.0607
   60loPI   C1A  951   0.596   5.641   9.578 -0.0636 -0.1432  0.1866
   60loPI   C2A  952   0.547   5.683   9.140  0.3699 -0.1315  0.1431
   60loPI   C3A  953   0.714   5.652   8.781 -0.1200 -0.1187  0.0150
   60loPI   C4A  954   0.620   5.771   8.365  0.1137  0.2755 -0.1591
   60loPI   C5A  955   0.746   5.682   7.965 -0.2526  0.1252  0.1652
   60loPI   C6A  956   1.031   5.647   7.607 -0.0519  0.4484  0.2007
   60loPI   C1B  957   0.887   5.173   9.626 -0.2594  0.1265 -0.0544
   60loPI   C2B  958   0.749   5.215   9.244 -0.0175  0.0742  0.0997
   60loPI   C3B  959   1.005   5.232   8.864  0.1380  0.0418 -0.3237
   60loPI   C4B  960   0.833   5.298   8.377  0.2415  0.1506  0.0306
   61loPI    C1  961  12.270  14.091  11.088 -0.2748  0.0040 -0.0769
   61loPI    C2  962  12.007  14.391  11.057  0.0019  0.2449 -0.1329
   61loPI    C3  963  12.389  14.448  10.952  0.0660 -0.1185 -0.1092
   61loPI   PO4  964  12.163  13.818  11.011 -0.2730 -0.0596 -0.0976
   61loPI   GL1  965  11.964  13.596  10.651  0.3413  0.2529 -0.3545
   61loPI   GL2  966  12.284  13.476  10.658 -0.1084  0.1295 -0.1787
   61loPI   C1A  967  11.682  13.603  10.398  0.0523 -0.1833 -0.2308
   61loPI   C2A  968  11.645  13.761   9.945 -0.0671 -0.2463  0.0979
   61loPI   C3A  969  11.669  13.961   9.573 -0.0556 -0.1212 -0.0394
   61loPI   C4A  970  11.829  13.871   9.143 -0.2834  0.0498  0.2014
   61loPI   C5A  971  11.677  13.473   8.897 -0.2059  0.2379  0.0316
   61loPI   C6A  972  11.677  13.424   8.364  0.1206 -0.0133 -0.0147
   61loPI   C1B  973  12.186  13.668  10.210 -0.0719 -0.4496 -0.1586
   61loPI   C2B  974  12.149  13.882   9.818 -0.1505 -0.2348 -0.1215
   61loPI   C3B  975  12.294  13.845   9.387  0.0817  0.1120  0.1507
   61loPI   C4B  976  12.390  13.817   8.930 -0.0647  0.3023 -0.0187
   62loPI    C1  977  12.501   8.577  11.187  0.1364 -0.0561 -0.1096
   62loPI    C2  978  12.209   8.361  11.355  0.1793  0.0668  0.1266
   62loPI    C3  979  12.146   8.745  11.264  0.2179  0.0517  0.0356
   62loPI   PO4  980  12.570   8.453  10.925  0.2629 -0.1710  0.3226
   62loPI   GL1  981  12.419   8.188  10.623 -0.3249  0.1576  0.5434
   62loPI   GL2  982  12.176   8.144  10.511 -0.1293  0.0154 -0.0106
   62loPI   C1A  983  12.594   8.267  10.264 -0.0235 -0.1901  0.0873
   62loPI   C2A  984  12.626   8.228   9.748 -0.2927  0.0640 -0.1166
   62loPI   C3A  985  12.557   8.245   9.268  0.2039  0.1532  0.1255
   62loPI   C4A  986  12.677   8.185   8.910 -0.2253 -0.2296  0.1040
   62loPI   C5A  987  12.711   8.316   8.505 -0.2905  0.2878  0.2462
   62loPI   C6A  988  12.447   8.297   8.267  0.2783 -0.0123 -0.1982
   62loPI   C1B  989  12.152   8.298  10.061 -0.0130 -0.1576 -0.0275
   62loPI   C2B  990  12.092   8.328   9.554  0.0520 -0.1425 -0.0257
   62loPI   C3B  991  12.077   8.403   9.124  0.0414  0.1433  0.1349
   62loPI   C4B  992  11.992   8.382   8.571 -0.1914  0.0006  0.0533
   63loPI    C1  993   8.438   3.090  11.338 -0.0809 -0.4318 -0.1293
   63loPI    C2  994   8.099   3.206  11.518 -0.0672 -0.6582  0.0471
   63loPI    C3  995   8.419   3.108  11.737  0.2007 -0.1968 -0.1239
   63loPI   PO4  996   8.390   3.193  11.069 -0.0965  0.0251 -0.1516
   63loPI   GL1  997   8.277   2.912  10.828  0.1385 -0.1925 -0.0265
   63loPI   GL2  998   8.262   2.579  10.747 -0.0347 -0.0831  0.1512
   63loPI   C1A  999   8.104   2.993  10.449  0.0711 -0.1565  0.4378
   63loPI   C2A 1000   8.114   3.022   9.937  0.0650  0.1133  0.0401
   63loPI   C3A 1001   8.179   2.926   9.514 -0.1384 -0.1443  0.1416
   63loPI   C4A 1002   8.252   2.906   9.016  0.1666 -0.1933 -0.1724
   63loPI   C5A 1003   8.414   2.933   8.558  0.2081  0.1703  0.1904
   63loPI   C6A 1004   8.258   3.028   8.028 -0.3692 -0.3194  0.2581
   63loPI   C1B 1005   8.416   2.560  10.413  0.0624  0.0523  0.2208
   63loPI   C2B 1006   8.401   2.388   9.950 -0.1330  0.0100  0.1115
   63loPI   C3B 1007   8.415   2.460   9.586 -0.0523 -0.2063 -0.0683
   63loPI   C4B 1008   8.506   2.370   9.110  0.1118 -0.1899  0.2461
   64loPI    C1 1009   1.081   1.486  10.642  0.0512 -0.0854 -0.0372
   64loPI    C2 1010   1.336   1.634  10.372 -0.0076  0.1331  0.0253
   64loPI    C3 1011   1.467   1.529  10.735  0.0401  0.0001 -0.0299
   64loPI   PO4 1012   0.850   1.542  10.475 -0.0492  0.1715  0.1832
   64loPI   GL1 1013   0.876   1.685  10.032 -0.1266 -0.1714  0.1993
   64loPI   GL2 1014   1.157   1.732   9.922  0.2374 -0.0649  0.2138
   64loPI   C1A 1015   0.889   1.372   9.651  0.0445 -0.2397 -0.0315
   64loPI   C2A 1016   0.852   1.439   9.167  0.0319 -0.1284  0.2957
   64loPI   C3A 1017   0.709   1.497   8.784 -0.4918 -0.0020 -0.0812
   64loPI   C4A 1018   0.730   1.520   8.453 -0.1043  0.1558  0.1179
   64loPI   C5A 1019   0.696   1.358   8.067  0.1239 -0.1771 -0.1385
   64loPI   C6A 1020   0.452   1.330   7.688 -0.0915 -0.2548  0.1096
   64loPI   C1B 1021   1.151   1.792   9.498  0.0705 -0.0358 -0.0362
   64loPI   C2B 1022   1.124   1.837   9.097  0.3876 -0.0688 -0.2830
   64loPI   C3B 1023   1.051   1.954   8.760 -0.0875  0.2825 -0.0673
   64loPI   C4B 1024   1.000   1.909   8.294  0.2134 -0.1073  0.4824
   65loPI    C1 1025  12.346  16.031  11.234 -0.0873  0.3051 -0.0714
   65loPI    C2 1026  12.021  15.803  11.276 -0.0477  0.2297 -0.1695
   65loPI    C3 1027  12.028  16.171  11.432 -0.0277  0.0821  0.1881
   65loPI   PO4 1028  12.445  16.012  11.052 -0.0817 -0.1275 -0.0200
   65loPI   GL1 1029  12.404  16.236  10.670 -0.1430  0.0829  0.0815
   65loPI   GL2 1030  12.383  16.556  10.593  0.1277  0.0172 -0.1137
   65loPI   C1A 1031  12.232  16.042  10.317 -0.0658  0.1097  0.0143
   65loPI   C2A 1032  12.232  16.099   9.859 -0.3316 -0.0911  0.1409
   65loPI   C3A 1033  12.201  16.064   9.386  0.2745 -0.3725  0.1362
   65loPI   C4A 1034  12.256  15.986   8.945  0.0715  0.3847  0.3185
   65loPI   C5A 1035  12.242  15.992   8.441 -0.0868  0.2759 -0.0767
   65loPI   C6A 1036  12.531  15.680   8.324 -0.3188 -0.3106 -0.0367
   65loPI   C1B 1037  12.430  16.493  10.192 -0.0369  0.3645  0.0288
   65loPI   C2B 1038  12.458  16.549   9.823  0.1467  0.0268 -0.2983
   65loPI   C3B 1039  12.455  16.554   9.398 -0.0952 -0.1780  0.0447
   65loPI   C4B 1040  12.447  16.499   8.934 -0.1365 -0.1529 -0.1657
   66loPI    C1 1041   9.751   9.888  10.938 -0.1140  0.0740  0.0170
   66loPI    C2 1042   9.849   9.682  11.266 -0.0422  0.2850  0.1299
   66loPI    C3 1043   9.632  10.017  11.298 -0.2481  0.1722 -0.0616
   66loPI   PO4 1044  10.005   9.933  10.779  0.3187  0.0579 -0.0239
   66loPI   GL1 1045  10.229   9.824  10.419 -0.1916 -0.2523  0.1086
   66loPI   GL2 1046  10.388   9.561  10.438  0.1892 -0.0612 -0.3535
   66loPI   C1A 1047  10.248   9.813   9.946  0.0782  0.2291 -0.0931
   66loPI   C2A 1048  10.271   9.658   9.490  0.1573  0.0003 -0.0823
   66loPI   C3A 1049  10.252   9.799   9.067  0.2196 -0.0970 -0.1600
   66loPI   C4A 1050  10.357   9.809   8.694  0.0782  0.2987 -0.0549
   66loPI   C5A 1051  10.194   9.682   8.308  0.2592  0.0251 -0.1071
   66loPI   C6A 1052  10.058   9.737   7.973  0.1210 -0.0404 -0.0093
   66loPI   C1B 1053  10.437   9.301  10.076  0.0410  0.2148  0.1653
   66loPI   C2B 1054  10.620   9.184   9.804 -0.3212  0.0546  0.2289
   66loPI   C3B 1055  10.620   9.234   9.362  0.0010 -0.0371  0.4385
   66loPI   C4B 1056  10.568   9.407   8.983 -0.0973  0.2704 -0.2679
   67loPI    C1 1057  11.133   4.960  11.311 -0.1506  0.0785  0.0137
   67loPI    C2 1058  10.906   4.978  11.640  0.0239  0.0910  0.1344
   67loPI    C3 1059  11.304   4.958  11.672  0.0438  0.1248 -0.0771
   67loPI   PO4 1060  10.974   4.854  11.136 -0.0742  0.0119  0.0512
   67loPI   GL1 1061  10.512   4.850  10.923 -0.0491  0.1169  0.0457
   67loPI   GL2 1062  10.530   5.173  10.738 -0.3403  0.0428 -0.1906
   67loPI   C1A 1063  10.342   4.735  10.561  0.0265 -0.1843  0.0616
   67loPI   C2A 1064  10.248   4.687  10.158 -0.1896  0.1366 -0.0513
   67loPI   C3A 1065  10.315   4.677   9.767  0.0312 -0.2181  0.1975
   67loPI   C4A 1066  10.379   4.584   9.377 -0.1231  0.1639 -0.3572
   67loPI   C5A 1067  10.395   4.725   8.961  0.1688 -0.1296 -0.3920
   67loPI   C6A 1068  10.579   4.887   8.670  0.0585  0.0065 -0.2579
   67loPI   C1B 1069  10.596   5.128  10.248 -0.2490  0.1152 -0.0316
   67loPI   C2B 1070  10.622   5.050   9.845 -0.0638 -0.0096 -0.0377
   67loPI   C3B 1071  10.626   5.076   9.415  0.1525 -0.2079  0.0393
   67loPI   C4B 1072  10.800   5.126   9.043 -0.2748  0.0369  0.1242
   68loPI    C1 1073  11.794  16.590  11.236  0.0730 -0.0757  0.1232
   68loPI    C2 1074  11.415  16.478  11.299 -0.0028  0.0955 -0.0194
   68loPI    C3 1075  11.682  16.456  11.596 -0.1648  0.1371  0.1313
   68loPI   PO4 1076  11.765  16.636  10.978  0.1893 -0.1214  0.1233
   68loPI   GL1 1077  11.734  16.690  10.480  0.2625  0.1269 -0.0463
   68loPI   GL2 1078  11.936  16.415  10.496  0.2915 -0.3419 -0.1550
   68loPI   C1A 1079  11.849  16.590  10.044 -0.1360 -0.1365  0.1093
   68loPI   C2A 1080  11.962  16.470   9.699  0.0233 -0.1258 -0.0713
   68loPI   C3A 1081  11.967  16.476   9.259 -0.0026  0.0848 -0.3372
   68loPI   C4A 1082  11.968  16.552   8.795 -0.2308 -0.2159  0.0076
   68loPI   C5A 1083  11.764  16.906   8.570 -0.0607  0.1457  0.2671
   68loPI   C6A 1084  11.319  16.985   8.461 -0.1202  0.2580  0.0640
   68loPI   C1B 1085  11.643  16.171  10.274  0.0108 -0.0763 -0.1569
   68loPI   C2B 1086  11.680  16.057   9.852 -0.1587 -0.2025  0.2207
   68loPI   C3B 1087  11.686  16.080   9.515 -0.1743 -0.1260  0.1218
   68loPI   C4B 1088  11.685  16.139   9.032 -0.4412  0.1099 -0.2632
   69loPI    C1 1089  13.903   2.070  11.056  0.0645  0.1716  0.1701
   69loPI    C2 1090  13.509   2.128  11.094  0.0464  0.1988 -0.0477
   69loPI    C3 1091  13.719   1.973  11.398 -0.2104 -0.2422 -0.0877
   69loPI   PO4 1092  13.957   1.895  10.793 -0.2331 -0.0997  0.0780
   69loPI   GL1 1093  14.007   1.848  10.430  0.2604  0.2432  0.1795
   69loPI   GL2 1094  13.807   1.918  10.253 -0.0377  0.0792 -0.0277
   69loPI   C1A 1095  14.226   1.805   9.952  0.1658 -0.2130  0.3387
   69loPI   C2A 1096  14.379   1.642   9.605  0.4067 -0.0567 -0.1572
   69loPI   C3A 1097  14.449   1.685   9.057  0.0507 -0.1046 -0.0236
   69loPI   C4A 1098  14.442   1.520   8.654  0.3530 -0.2050 -0.1332
   69loPI   C5A 1099  14.698   1.627   8.280  0.2693  0.4165 -0.2185
   69loPI   C6A 1100  15.114   1.659   8.324 -0.1428 -0.3495 -0.0968
   69loPI   C1B 1101  13.781   1.878   9.791 -0.1212 -0.4269 -0.2292
   69loPI   C2B 1102  13.904   1.715   9.321  0.0464  0.1811 -0.1231
   69loPI   C3B 1103  13.989   1.691   8.833  0.0496  0.1242  0.0231
   69loPI   C4B 1104  13.962   1.635   8.385 -0.0056  0.2459  0.1063
   70loPI    C1 1105   6.785   4.091  11.077 -0.3489 -0.0004  0.0127
   70loPI    C2 1106   6.578   4.027  11.414 -0.1479 -0.0282  0.1322
   70loPI    C3 1107   6.744   4.385  11.346 -0.2304 -0.0074  0.0391
   70loPI   PO4 1108   6.648   3.891  10.911  0.3881  0.1800 -0.1608
   70loPI   GL1 1109   6.541   3.675  10.517  0.0419  0.1723  0.0376
   70loPI   GL2 1110   6.799   3.683  10.433  0.0769  0.2098  0.1843
   70loPI   C1A 1111   6.373   3.642  10.021 -0.0114 -0.0890  0.1757
   70loPI   C2A 1112   6.347   3.514   9.678  0.0632  0.1366 -0.2295
   70loPI   C3A 1113   6.367   3.483   9.282 -0.1958 -0.1422 -0.2076
   70loPI   C4A 1114   6.522   3.466   8.770 -0.1164  0.1932  0.0556
   70loPI   C5A 1115   6.328   3.199   8.462  0.1142  0.0112 -0.0086
   70loPI   C6A 1116   6.278   2.766   8.472 -0.1396  0.0120  0.3690
   70loPI   C1B 1117   6.838   3.560  10.017  0.0653  0.2822 -0.1504
   70loPI   C2B 1118   6.881   3.559   9.557 -0.3805 -0.0945 -0.0202
   70loPI   C3B 1119   6.878   3.516   9.166 -0.0349  0.0935  0.0965
   70loPI   C4B 1120   7.058   3.349   8.732 -0.0542  0.0278  0.1815
   71loPI    C1 1121   1.981  13.562  10.702 -0.0903 -0.0226  0.1719
   71loPI    C2 1122   1.758  13.806  10.927  0.1170  0.1474  0.1967
   71loPI    C3 1123   1.938  13.491  11.094 -0.1863 -0.0516  0.1564
   71loPI   PO4 1124   1.872  13.699  10.439 -0.2773 -0.1357  0.0078
   71loPI   GL1 1125   2.274  13.846  10.249 -0.0274  0.3506  0.0225
   71loPI   GL2 1126   2.076  13.663   9.971 -0.2446 -0.0497  0.1093
   71loPI   C1A 1127   2.306  14.235   9.934 -0.0884 -0.3614  0.0526
   71loPI   C2A 1128   2.304  14.291   9.410 -0.0916 -0.2422  0.0710
   71loPI   C3A 1129   2.384  14.331   9.028 -0.1536  0.0284 -0.1050
   71loPI   C4A 1130   2.389  14.385   8.562  0.0906  0.1324  0.0514
   71loPI   C5A 1131   2.354  14.489   8.180 -0.3060  0.2134  0.2804
   71loPI   C6A 1132   2.103  14.276   7.847  0.0618 -0.1084  0.3284
   71loPI   C1B 1133   2.056  13.833   9.568  0.1082 -0.1879  0.0130
   71loPI   C2B 1134   2.074  13.952   9.115  0.1842 -0.1276 -0.0730
   71loPI   C3B 1135   2.165  13.984   8.750  0.0007 -0.0787 -0.1125
   71loPI   C4B 1136   2.176  13.939   8.283  0.2899  0.0847  0.0321
   72loPI    C1 1137  14.162  16.357  10.783 -0.1719  0.0031 -0.0858
   72loPI    C2 1138  13.771  16.436  10.750 -0.2137 -0.0921  0.1651
   72loPI    C3 1139  13.941  16.412  11.112  0.0719  0.1735  0.0524
   72loPI   PO4 1140  14.208  16.106  10.731  0.1337 -0.0379 -0.1453
   72loPI   GL1 1141  14.443  16.051  10.435 -0.2521 -0.0443 -0.0371
   72loPI   GL2 1142  14.619  15.756  10.503  0.3152  0.0582 -0.0574
   72loPI   C1A 1143  14.313  16.000   9.923  0.0660  0.1220  0.1760
   72loPI   C2A 1144  14.266  15.971   9.457 -0.1910 -0.0754  0.2452
   72loPI   C3A 1145  14.271  15.998   9.079 -0.0178 -0.0560 -0.1629
   72loPI   C4A 1146  14.304  15.943   8.692 -0.2065 -0.0792  0.1308
   72loPI   C5A 1147  14.265  16.284   8.299  0.3912  0.2687 -0.1817
   72loPI   C6A 1148  14.214  16.634   7.875  0.0960 -0.1279  0.0133
   72loPI   C1B 1149  14.594  15.581  10.139  0.1995 -0.0805  0.0111
   72loPI   C2B 1150  14.567  15.547   9.728 -0.1230  0.4050 -0.0588
   72loPI   C3B 1151  14.520  15.554   9.331  0.1000  0.3749 -0.2573
   72loPI   C4B 1152  14.542  15.636   8.948 -0.0819 -0.1170 -0.4029
   73loPI    C1 1153  14.953   2.034  10.887 -0.0534  0.1223  0.1473
   73loPI    C2 1154  15.300   2.200  10.776  0.0760 -0.3552 -0.1948
   73loPI    C3 1155  15.268   2.024  11.134  0.1207 -0.1321 -0.0792
   73loPI   PO4 1156  14.816   2.028  10.650  0.1318  0.1727  0.0292
   73loPI   GL1 1157  14.542   2.068  10.238  0.1719 -0.0490 -0.2058
   73loPI   GL2 1158  14.485   1.727  10.379 -0.2008 -0.1084  0.2418
   73loPI   C1A 1159  14.601   2.119   9.835  0.0349 -0.1141  0.2013
   73loPI   C2A 1160  14.660   1.991   9.369 -0.0369 -0.0490  0.3106
   73loPI   C3A 1161  14.762   2.124   8.953 -0.1565  0.0302  0.2684
   73loPI   C4A 1162  14.852   2.178   8.578 -0.2668 -0.1415  0.0286
   73loPI   C5A 1163  14.939   2.151   8.234 -0.0999 -0.0771 -0.2999
   73loPI   C6A 1164  14.750   1.960   7.869  0.0587  0.0660 -0.0014
   73loPI   C1B 1165  14.683   1.662  10.042 -0.7816 -0.0708 -0.0296
   73loPI   C2B 1166  14.895   1.664   9.614  0.0673 -0.1939  0.2675
   73loPI   C3B 1167  14.954   1.547   9.175 -0.1441 -0.1725 -0.2538
   73loPI   C4B 1168  14.909   1.613   8.750 -0.1633  0.0174 -0.0700
   74loPI    C1 1169   6.449  12.529  10.939  0.0611 -0.0201 -0.1195
   74loPI    C2 1170   6.785  12.314  10.968  0.1159  0.0654 -0.1172
   74loPI    C3 1171   6.715  12.610  11.227  0.0070  0.0046 -0.0763
   74loPI   PO4 1172   6.381  12.488  10.588  0.4864  0.0156 -0.1729
   74loPI   GL1 1173   6.556  12.469  10.208 -0.0117  0.2101 -0.4261
   74loPI   GL2 1174   6.319  12.309   9.988  0.0864  0.1295 -0.1739
   74loPI   C1A 1175   6.706  12.590   9.870 -0.2451  0.2037  0.0328
   74loPI   C2A 1176   6.758  12.638   9.446  0.1651  0.0342  0.0595
   74loPI   C3A 1177   6.792  12.674   9.062 -0.1951  0.2062 -0.0657
   74loPI   C4A 1178   6.733  12.778   8.604  0.0969 -0.0858  0.1249
   74loPI   C5A 1179   6.599  13.074   8.153 -0.0364  0.0011 -0.2240
   74loPI   C6A 1180   6.548  13.506   8.054 -0.0507  0.0018  0.0600
   74loPI   C1B 1181   6.479  12.246   9.509 -0.2205  0.2677  0.1763
   74loPI   C2B 1182   6.511  12.226   9.078 -0.0511  0.2022 -0.0737
   74loPI   C3B 1183   6.520  12.292   8.703 -0.0701 -0.1698  0.3814
   74loPI   C4B 1184   6.505  12.400   8.262 -0.1798 -0.2746  0.0727
   75loPI    C1 1185   5.502   8.546  10.314  0.1700  0.0148 -0.0100
   75loPI    C2 1186   5.517   8.932  10.418  0.0123  0.0139  0.0189
   75loPI    C3 1187   5.636   8.650  10.676  0.0385  0.0378  0.0328
   75loPI   PO4 1188   5.584   8.671  10.019  0.2569 -0.1310 -0.0141
   75loPI   GL1 1189   5.454   8.546   9.622  0.2926  0.1801  0.1144
   75loPI   GL2 1190   5.166   8.616   9.566  0.2054 -0.0578 -0.0448
   75loPI   C1A 1191   5.780   8.468   9.325  0.0092 -0.0812  0.0619
   75loPI   C2A 1192   5.862   8.447   8.965 -0.1426  0.1035  0.2706
   75loPI   C3A 1193   5.782   8.543   8.656 -0.0838 -0.1496 -0.1969
   75loPI   C4A 1194   5.811   8.453   8.191  0.0289 -0.2802 -0.0896
   75loPI   C5A 1195   5.681   8.352   7.813  0.0239 -0.0687  0.0464
   75loPI   C6A 1196   5.668   8.026   7.446  0.1230  0.3333 -0.0268
   75loPI   C1B 1197   5.324   8.517   9.149  0.1644 -0.2468  0.0280
   75loPI   C2B 1198   5.293   8.521   8.710  0.0824  0.1307 -0.0310
   75loPI   C3B 1199   5.336   8.685   8.330 -0.2093  0.0929 -0.1418
   75loPI   C4B 1200   5.125   9.025   8.132 -0.1925 -0.2380  0.2303
   76loPI    C1 1201  17.935   8.946  10.624 -0.0247  0.0203 -0.0193
   76loPI    C2 1202  17.717   8.702  10.393 -0.0714 -0.1672  0.2188
   76loPI    C3 1203  18.058   8.571  10.556 -0.0081 -0.0169  0.2091
   76loPI   PO4 1204  17.931   9.152  10.480 -0.0616 -0.0866 -0.3811
   76loPI   GL1 1205  17.901   9.334  10.082  0.0719 -0.0518  0.0422
   76loPI   GL2 1206  18.145   9.456   9.896  0.0371  0.2897 -0.1547
   76loPI   C1A 1207  17.656   9.576   9.678 -0.0822  0.1677 -0.1488
   76loPI   C2A 1208  17.603   9.555   9.245  0.1486 -0.2161 -0.0599
   76loPI   C3A 1209  17.695   9.494   8.762  0.0525 -0.1963  0.1447
   76loPI   C4A 1210  17.609   9.455   8.332  0.1888  0.0327  0.1068
   76loPI   C5A 1211  17.463   9.067   8.228 -0.0509  0.4179  0.1147
   76loPI   C6A 1212  17.322   8.835   8.036 -0.2762  0.2095  0.1135
   76loPI   C1B 1213  18.081   9.498   9.420  0.3894 -0.1046  0.0558
   76loPI   C2B 1214  18.251   9.497   8.993 -0.1067  0.0015 -0.1799
   76loPI   C3B 1215  18.255   9.287   8.595  0.1535 -0.0056  0.0452
   76loPI   C4B 1216  18.219   9.025   8.192 -0.1499  0.1434  0.1133
   77loPI    C1 1217  15.545   4.878  10.892  0.1808  0.1097 -0.1250
   77loPI    C2 1218  15.506   4.732  11.263 -0.0864  0.0538 -0.1732
   77loPI    C3 1219  15.699   5.077  11.203 -0.0232  0.0522  0.0154
   77loPI   PO4 1220  15.679   4.722  10.757  0.1846  0.0827 -0.0544
   77loPI   GL1 1221  15.606   4.642  10.315  0.2535 -0.0302  0.1332
   77loPI   GL2 1222  15.368   4.438  10.134 -0.1878  0.2015  0.1975
   77loPI   C1A 1223  15.634   4.998  10.051 -0.1212  0.2384  0.2593
   77loPI   C2A 1224  15.748   4.988   9.666  0.0787 -0.0049  0.2265
   77loPI   C3A 1225  15.758   5.002   9.150  0.0643  0.0940 -0.0453
   77loPI   C4A 1226  15.801   4.967   8.763  0.1403 -0.1639 -0.0111
   77loPI   C5A 1227  15.822   5.202   8.398  0.0468 -0.1620  0.1903
   77loPI   C6A 1228  15.974   5.484   8.074  0.0092  0.0173  0.1741
   77loPI   C1B 1229  15.342   4.252   9.716  0.4405  0.1682 -0.0636
   77loPI   C2B 1230  15.218   4.230   9.323  0.1536  0.0759 -0.1523
   77loPI   C3B 1231  15.094   4.409   8.934  0.1158 -0.0359  0.0103
   77loPI   C4B 1232  15.218   4.430   8.603 -0.2230 -0.3045  0.0266
   78loPI    C1 1233  15.154  14.641  10.896 -0.0929  0.1981  0.0967
   78loPI    C2 1234  15.306  14.862  10.599 -0.2454  0.0495 -0.0949
   78loPI    C3 1235  14.989  14.994  10.804 -0.0733  0.2021  0.0773
   78loPI   PO4 1236  15.073  14.456  10.828  0.2485  0.2573  0.0407
   78loPI   GL1 1237  15.130  14.228  10.467 -0.3802 -0.0972 -0.1044
   78loPI   GL2 1238  15.025  14.550  10.337 -0.1924  0.1027 -0.1429
   78loPI   C1A 1239  15.107  14.115  10.034 -0.0468  0.2699 -0.1435
   78loPI   C2A 1240  15.185  14.138   9.591 -0.1395 -0.2547  0.0428
   78loPI   C3A 1241  15.316  14.152   9.235 -0.0150  0.0251  0.1449
   78loPI   C4A 1242  15.323  14.131   8.779  0.1205  0.1651  0.0948
   78loPI   C5A 1243  15.118  14.190   8.412  0.1857 -0.0755  0.1241
   78loPI   C6A 1244  14.943  14.474   8.065 -0.1134 -0.3184 -0.2172
   78loPI   C1B 1245  15.087  14.655   9.954  0.0155 -0.2559 -0.0154
   78loPI   C2B 1246  15.083  14.596   9.447 -0.0079 -0.2082 -0.3274
   78loPI   C3B 1247  15.052  14.510   9.018  0.0956 -0.0124  0.0037
   78loPI   C4B 1248  15.053  14.603   8.643  0.2411 -0.1569 -0.0098
   79loPI    C1 1249   2.454  12.474  10.294  0.2083 -0.3158 -0.0905
   79loPI    C2 1250   2.761  12.386  10.535  0.2077 -0.2684 -0.0724
   79loPI    C3 1251   2.467  12.625  10.664  0.2742 -0.1354 -0.1657
   79loPI   PO4 1252   2.463  12.346  10.130 -0.1682 -0.1487  0.0337
   79loPI   GL1 1253   2.704  12.408   9.745  0.1639 -0.2104 -0.1487
   79loPI   GL2 1254   2.795  12.179   9.578 -0.1226 -0.1360 -0.1054
   79loPI   C1A 1255   2.965  12.707   9.495 -0.4131  0.1598 -0.1104
   79loPI   C2A 1256   3.024  12.730   9.005  0.2887  0.1519  0.0267
   79loPI   C3A 1257   3.068  12.860   8.605  0.1690  0.1965 -0.1208
   79loPI   C4A 1258   3.144  12.842   8.219 -0.2206 -0.1688  0.4297
   79loPI   C5A 1259   3.003  13.087   7.834 -0.0573 -0.0609  0.2057
   79loPI   C6A 1260   3.137  13.334   7.521 -0.3182 -0.3594  0.2167
   79loPI   C1B 1261   2.813  12.277   9.149 -0.3380 -0.2031  0.0578
   79loPI   C2B 1262   2.782  12.326   8.699  0.5435  0.0200  0.0278
   79loPI   C3B 1263   2.833  12.462   8.376 -0.3510 -0.0426 -0.3258
   79loPI   C4B 1264   2.678  12.662   7.969  0.0611  0.2573  0.2350
   80loPI    C1 1265   6.121  14.110  10.883 -0.0738  0.1420  0.1423
   80loPI    C2 1266   6.152  13.932  11.240 -0.0593 -0.0301  0.0562
   80loPI    C3 1267   6.364  14.262  11.162 -0.1122  0.0455  0.2290
   80loPI   PO4 1268   6.074  13.887  10.671  0.2008  0.2044  0.1258
   80loPI   GL1 1269   6.084  13.972  10.213  0.1059 -0.0040  0.1889
   80loPI   GL2 1270   6.053  13.622  10.040 -0.3545  0.2660  0.1104
   80loPI   C1A 1271   5.886  14.049   9.812 -0.1438 -0.0090  0.1605
   80loPI   C2A 1272   5.945  14.107   9.417  0.0822 -0.0121  0.1145
   80loPI   C3A 1273   6.012  14.209   8.998 -0.0423 -0.1147  0.1201
   80loPI   C4A 1274   6.049  14.255   8.551  0.2365  0.0754  0.4621
   80loPI   C5A 1275   6.205  14.101   8.130  0.1171 -0.3167 -0.2096
   80loPI   C6A 1276   6.685  14.026   8.038 -0.2409 -0.0842  0.1654
   80loPI   C1B 1277   6.207  13.566   9.589  0.1909 -0.2480  0.0212
   80loPI   C2B 1278   6.176  13.763   9.169 -0.3817  0.2059  0.0542
   80loPI   C3B 1279   6.274  13.799   8.840 -0.1685  0.3547 -0.0549
   80loPI   C4B 1280   6.518  13.809   8.474  0.0319 -0.1483 -0.0432
   81loPI    C1 1281   9.593  14.027  11.404  0.1157  0.0624 -0.1222
   81loPI    C2 1282   9.610  13.686  11.612  0.1239  0.1204 -0.0273
   81loPI    C3 1283   9.600  14.037  11.804  0.0634  0.1716 -0.1233
   81loPI   PO4 1284   9.695  13.895  11.095 -0.0118  0.1178  0.2013
   81loPI   GL1 1285   9.835  13.616  10.762  0.1215  0.2137 -0.1923
   81loPI   GL2 1286  10.117  13.442  10.738 -0.2052 -0.0788  0.1917
   81loPI   C1A 1287   9.706  13.540  10.344  0.4315 -0.0921 -0.0517
   81loPI   C2A 1288   9.557  13.767   9.991  0.2778 -0.3809  0.1691
   81loPI   C3A 1289   9.623  13.862   9.558 -0.2207 -0.2277  0.2422
   81loPI   C4A 1290   9.640  13.819   9.142  0.2543 -0.3147 -0.5880
   81loPI   C5A 1291   9.841  13.789   8.733  0.2550  0.0207  0.1513
   81loPI   C6A 1292  10.078  13.416   8.593  0.0768 -0.1704  0.1712
   81loPI   C1B 1293  10.194  13.407  10.385  0.0951  0.0097 -0.0863
   81loPI   C2B 1294  10.315  13.397  10.002 -0.0903 -0.2062  0.1676
   81loPI   C3B 1295  10.414  13.351   9.524  0.1764 -0.1896 -0.1416
   81loPI   C4B 1296  10.495  13.383   9.035 -0.0082  0.4155  0.0384
   82loPI    C1 1297   9.510   9.462  10.958  0.0934 -0.2883  0.1301
   82loPI    C2 1298   9.275   9.692  11.186  0.2493 -0.0648  0.0679
   82loPI    C3 1299   9.440   9.361  11.338 -0.0373 -0.1784  0.1360
   82loPI   PO4 1300   9.379   9.516  10.680  0.0975  0.0826  0.1565
   82loPI   GL1 1301   9.349   9.316  10.360  0.1859  0.1153 -0.1416
   82loPI   GL2 1302   9.403   9.228  10.056  0.0606  0.1771 -0.0462
   82loPI   C1A 1303   8.902   9.337  10.119  0.1362  0.1612  0.0361
   82loPI   C2A 1304   8.936   9.288   9.722  0.0186  0.0122  0.0169
   82loPI   C3A 1305   9.022   9.198   9.352 -0.0911  0.4099 -0.0764
   82loPI   C4A 1306   9.016   9.353   8.964 -0.0019  0.0633  0.1931
   82loPI   C5A 1307   8.748   9.343   8.535 -0.0827 -0.0608 -0.1588
   82loPI   C6A 1308   8.651   9.149   8.116  0.1844 -0.3063 -0.0917
   82loPI   C1B 1309   9.551   9.246   9.744  0.0868 -0.2520  0.0437
   82loPI   C2B 1310   9.529   9.232   9.255  0.2537  0.0492 -0.5070
   82loPI   C3B 1311   9.561   9.340   8.849  0.1198 -0.4238  0.1064
   82loPI   C4B 1312   9.289   9.490   8.450  0.4044  0.0237 -0.2062
   83loPI    C1 1313   9.972   2.925  11.462 -0.1945  0.0347 -0.3432
   83loPI    C2 1314  10.101   2.549  11.414  0.1084  0.0986 -0.0617
   83loPI    C3 1315   9.861   2.640  11.720  0.1635  0.1650 -0.0380
   83loPI   PO4 1316  10.053   3.063  11.242 -0.2321 -0.2094 -0.0474
   83loPI   GL1 1317  10.036   3.089  10.832  0.0486  0.1054 -0.0467
   83loPI   GL2 1318   9.823   3.455  10.838  0.2629 -0.1108  0.0269
   83loPI   C1A 1319   9.859   2.958  10.442 -0.3618  0.2207 -0.0425
   83loPI   C2A 1320   9.797   2.882   9.973 -0.2383  0.0946  0.1028
   83loPI   C3A 1321   9.738   2.865   9.500  0.3469 -0.0404 -0.2199
   83loPI   C4A 1322   9.798   2.860   9.058 -0.3343 -0.2093 -0.1193
   83loPI   C5A 1323   9.873   2.878   8.581 -0.5074  0.2475 -0.3832
   83loPI   C6A 1324   9.675   3.092   8.287  0.0651 -0.1713  0.1359
   83loPI   C1B 1325   9.614   3.399  10.485 -0.1095  0.0199 -0.2134
   83loPI   C2B 1326   9.534   3.304  10.084 -0.0550  0.0285  0.2550
   83loPI   C3B 1327   9.469   3.276   9.659 -0.0081  0.3078 -0.1776
   83loPI   C4B 1328   9.530   3.268   9.206  0.1522 -0.0327  0.1964
   84loPI    C1 1329   5.617   4.013  10.771 -0.0856  0.1327 -0.0524
   84loPI    C2 1330   5.503   4.327  10.991  0.1299 -0.0092  0.2689
   84loPI    C3 1331   5.791   4.083  11.124  0.2649 -0.0999 -0.1730
   84loPI   PO4 1332   5.648   4.108  10.555  0.2850  0.0503 -0.0426
   84loPI   GL1 1333   5.762   4.174  10.124 -0.0065  0.2145 -0.0789
   84loPI   GL2 1334   6.035   4.109  10.268  0.2003 -0.1416  0.1671
   84loPI   C1A 1335   5.683   4.012   9.581  0.0838  0.1357 -0.1231
   84loPI   C2A 1336   5.697   3.898   9.156  0.3063 -0.0828 -0.2751
   84loPI   C3A 1337   5.711   3.975   8.755  0.1190 -0.3288 -0.0301
   84loPI   C4A 1338   5.643   3.783   8.284  0.1306 -0.3894  0.1674
   84loPI   C5A 1339   5.794   3.315   8.244  0.2100 -0.1971 -0.3666
   84loPI   C6A 1340   5.993   3.048   8.014  0.0183 -0.0339 -0.3272
   84loPI   C1B 1341   6.176   4.050   9.856 -0.1316 -0.0922  0.0591
   84loPI   C2B 1342   6.182   3.918   9.395  0.1161 -0.0080  0.0859
   84loPI   C3B 1343   6.222   3.846   8.915  0.3278  0.1978  0.2047
   84loPI   C4B 1344   6.131   3.719   8.518 -0.1775  0.0284  0.4889
   85loPI    C1 1345   7.797   4.464  11.193 -0.0825  0.0951  0.0064
   85loPI    C2 1346   7.628   4.142  11.360  0.0198  0.1236  0.1669
   85loPI    C3 1347   7.894   4.358  11.566  0.0947  0.2008 -0.0084
   85loPI   PO4 1348   7.887   4.380  10.935 -0.1737  0.2036 -0.0475
   85loPI   GL1 1349   8.110   4.463  10.575 -0.0389  0.0101  0.0091
   85loPI   GL2 1350   8.097   4.687  10.427  0.5262 -0.1193  0.2862
   85loPI   C1A 1351   8.368   4.295  10.183 -0.0839  0.0589 -0.5337
   85loPI   C2A 1352   8.483   4.264   9.746 -0.0895 -0.2836 -0.0608
   85loPI   C3A 1353   8.544   4.292   9.339 -0.1527 -0.0147  0.1385
   85loPI   C4A 1354   8.550   4.311   8.972  0.2899  0.2208  0.1288
   85loPI   C5A 1355   8.728   4.159   8.582  0.2574 -0.2922 -0.1986
   85loPI   C6A 1356   8.468   3.848   8.339 -0.0127 -0.0927 -0.1390
   85loPI   C1B 1357   8.226   4.721   9.996  0.0408 -0.2618  0.1767
   85loPI   C2B 1358   8.340   4.718   9.654 -0.1956 -0.3045 -0.0929
   85loPI   C3B 1359   8.316   4.839   9.192  0.1617 -0.2948 -0.0730
   85loPI   C4B 1360   8.403   4.729   8.745 -0.0550  0.1324  0.2715
   86loPI    C1 1361   6.753   2.161  11.224  0.0487  0.0063 -0.1024
   86loPI    C2 1362   7.020   1.978  11.459 -0.2323 -0.1763  0.0807
   86loPI    C3 1363   6.850   2.320  11.578  0.0822  0.0610 -0.1361
   86loPI   PO4 1364   6.857   2.168  10.984  0.0790  0.1213 -0.1786
   86loPI   GL1 1365   7.132   2.092  10.625 -0.0693 -0.4294  0.1531
   86loPI   GL2 1366   7.297   1.865  10.557 -0.1018 -0.2419  0.2678
   86loPI   C1A 1367   7.017   2.248  10.262  0.2368  0.0970 -0.0880
   86loPI   C2A 1368   7.149   2.199   9.879  0.1792 -0.1434  0.0295
   86loPI   C3A 1369   7.033   2.116   9.438 -0.0802  0.0444  0.0984
   86loPI   C4A 1370   7.110   2.151   8.960 -0.0555  0.0944  0.1978
   86loPI   C5A 1371   7.487   2.364   8.717 -0.2544 -0.0413 -0.1060
   86loPI   C6A 1372   7.720   2.526   8.471 -0.0987 -0.1456  0.0017
   86loPI   C1B 1373   7.241   1.694  10.070 -0.1741 -0.1013  0.3616
   86loPI   C2B 1374   7.352   1.716   9.679 -0.0701 -0.1318 -0.1942
   86loPI   C3B 1375   7.380   1.624   9.296 -0.2873  0.1446  0.2590
   86loPI   C4B 1376   7.575   1.526   8.938  0.0130  0.1702 -0.2459
   87loPI    C1 1377   9.836  10.370  10.909  0.1024 -0.0533  0.1702
   87loPI    C2 1378   9.796  10.717  11.104  0.2218  0.1087 -0.0886
   87loPI    C3 1379   9.941  10.397  11.294 -0.0127  0.1626  0.1882
   87loPI   PO4 1380   9.609  10.347  10.768 -0.2768  0.2599  0.1654
   87loPI   GL1 1381   9.674  10.486  10.377 -0.1321  0.1092  0.0662
   87loPI   GL2 1382  10.022  10.271  10.406 -0.2339  0.3318 -0.0396
   87loPI   C1A 1383   9.697  10.740  10.035  0.0307 -0.4223  0.0791
   87loPI   C2A 1384   9.793  10.719   9.581 -0.1185 -0.1865 -0.2857
   87loPI   C3A 1385   9.852  10.664   9.181  0.0899  0.0984 -0.1173
   87loPI   C4A 1386   9.836  10.751   8.779 -0.1185 -0.0162  0.0074
   87loPI   C5A 1387   9.759  10.924   8.397 -0.0231  0.1397 -0.0445
   87loPI   C6A 1388   9.350  10.882   8.080  0.2776  0.2227 -0.4252
   87loPI   C1B 1389  10.009  10.233   9.874  0.0393  0.1075 -0.0080
   87loPI   C2B 1390  10.032  10.218   9.373  0.0769 -0.1957 -0.1046
   87loPI   C3B 1391  10.002  10.229   8.942  0.1081 -0.0287 -0.2642
   87loPI   C4B 1392   9.974  10.183   8.520  0.1690 -0.0011  0.3582
   88loPI    C1 1393   9.884   6.700  10.953 -0.0427  0.0161  0.1377
   88loPI    C2 1394   9.866   6.549  11.323  0.0432  0.1456  0.1956
   88loPI    C3 1395  10.074   6.883  11.253 -0.1622  0.2504  0.0733
   88loPI   PO4 1396   9.662   6.623  10.838  0.1315 -0.1157 -0.0653
   88loPI   GL1 1397   9.521   6.623  10.398 -0.2100  0.2595  0.1856
   88loPI   GL2 1398   9.102   6.540  10.360  0.0145  0.1293 -0.0856
   88loPI   C1A 1399   9.610   6.897  10.042 -0.1485  0.0638 -0.0702
   88loPI   C2A 1400   9.705   6.919   9.642  0.0272 -0.0925  0.0866
   88loPI   C3A 1401   9.624   6.910   9.270 -0.1718  0.0450  0.0440
   88loPI   C4A 1402   9.686   6.996   8.916 -0.0836  0.0578 -0.2851
   88loPI   C5A 1403   9.542   6.989   8.527 -0.1590  0.2100  0.0599
   88loPI   C6A 1404   9.515   6.927   8.115 -0.0541 -0.4450  0.0578
   88loPI   C1B 1405   9.391   6.462   9.967  0.2470 -0.2023 -0.0690
   88loPI   C2B 1406   9.407   6.496   9.483 -0.2823  0.1332 -0.1727
   88loPI   C3B 1407   9.419   6.551   9.111  0.0149 -0.1063 -0.0745
   88loPI   C4B 1408   9.408   6.474   8.708  0.0859  0.0305  0.1409
   89loPI    C1 1409   8.058  17.259  11.531 -0.2370 -0.1183  0.3309
   89loPI    C2 1410   8.447  17.257  11.622 -0.2047 -0.1408  0.1944
   89loPI    C3 1411   8.203  17.525  11.792 -0.1012 -0.0267  0.1641
   89loPI   PO4 1412   8.055  17.210  11.230 -0.3246 -0.0186  0.2428
   89loPI   GL1 1413   8.211  17.348  10.793 -0.2448 -0.2287 -0.1442
   89loPI   GL2 1414   7.923  17.338  10.592 -0.2463 -0.0038  0.0727
   89loPI   C1A 1415   8.411  17.271  10.503 -0.0635 -0.3081  0.0806
   89loPI   C2A 1416   8.502  17.331  10.127 -0.0650 -0.1281  0.1392
   89loPI   C3A 1417   8.544  17.283   9.596 -0.2807  0.3277 -0.0385
   89loPI   C4A 1418   8.742  17.238   9.193 -0.0712 -0.0113 -0.1802
   89loPI   C5A 1419   8.668  17.507   8.755  0.0107  0.0568  0.0386
   89loPI   C6A 1420   8.641  17.545   8.361  0.2064 -0.0849 -0.3177
   89loPI   C1B 1421   7.995  17.245  10.169 -0.2763 -0.3755 -0.1264
   89loPI   C2B 1422   7.990  17.236   9.786  0.0655  0.2156  0.1518
   89loPI   C3B 1423   7.911  17.282   9.380  0.4185  0.0827  0.0676
   89loPI   C4B 1424   8.175  17.271   9.052 -0.3908 -0.1252 -0.0605
   90loPI    C1 1425  15.809  11.157  11.219  0.0867  0.1086  0.0359
   90loPI    C2 1426  15.438  11.236  11.345  0.0005 -0.2747  0.0366
   90loPI    C3 1427  15.708  11.087  11.599  0.0773 -0.2476 -0.0282
   90loPI   PO4 1428  15.836  11.081  11.034 -0.3672 -0.1517  0.2875
   90loPI   GL1 1429  15.830  11.054  10.638  0.2166  0.0184  0.1835
   90loPI   GL2 1430  15.891  10.790  10.524  0.1943  0.0346  0.3666
   90loPI   C1A 1431  15.677  11.341  10.332 -0.3469 -0.0019  0.1931
   90loPI   C2A 1432  15.722  11.405   9.859 -0.0619 -0.0120  0.0330
   90loPI   C3A 1433  15.751  11.353   9.402  0.0207 -0.3602 -0.1644
   90loPI   C4A 1434  15.618  11.307   8.976 -0.1113 -0.0332  0.2284
   90loPI   C5A 1435  15.698  11.304   8.475  0.1926 -0.2178 -0.1668
   90loPI   C6A 1436  15.775  10.926   8.236  0.2230 -0.0652  0.3231
   90loPI   C1B 1437  15.949  10.949  10.111 -0.0182 -0.0477  0.2046
   90loPI   C2B 1438  15.922  10.958   9.617  0.1421  0.1048  0.0799
   90loPI   C3B 1439  15.858  10.891   9.151 -0.0133  0.2449 -0.0114
   90loPI   C4B 1440  15.928  10.854   8.698 -0.2516 -0.0336  0.0536
   91loPI    C1 1441  11.230  12.979  11.063 -0.2648  0.0842  0.2028
   91loPI    C2 1442  11.529  12.867  11.304 -0.0169 -0.0724 -0.1689
   91loPI    C3 1443  11.187  13.003  11.460  0.1605 -0.1096  0.2663
   91loPI   PO4 1444  11.199  12.660  10.954  0.0645  0.1249 -0.0874
   91loPI   GL1 1445  11.249  12.632  10.555  0.3066 -0.2517  0.0671
   91loPI   GL2 1446  11.488  12.349  10.439 -0.1251  0.1006 -0.2766
   91loPI   C1A 1447  11.287  12.831  10.115  0.2456 -0.1876  0.1177
   91loPI   C2A 1448  11.271  12.893   9.621  0.1297  0.1697  0.1208
   91loPI   C3A 1449  11.332  13.093   9.247 -0.0661 -0.1449  0.0916
   91loPI   C4A 1450  11.189  12.926   8.857  0.0338  0.0550 -0.0508
   91loPI   C5A 1451  10.840  13.016   8.635  0.0638  0.0862 -0.0558
   91loPI   C6A 1452  10.534  13.318   8.505 -0.0471  0.0167  0.2869
   91loPI   C1B 1453  11.419  12.315  10.100 -0.1444 -0.4297 -0.4501
   91loPI   C2B 1454  11.261  12.409   9.689 -0.1433  0.1039 -0.0572
   91loPI   C3B 1455  11.342  12.492   9.218 -0.0465 -0.1968 -0.0915
   91loPI   C4B 1456  11.592  12.606   8.880 -0.1788 -0.0038 -0.2592
   92loPI    C1 1457   1.986   2.430  10.671  0.0616  0.0272 -0.0766
   92loPI    C2 1458   1.631   2.535  10.519  0.0944  0.2406 -0.0101
   92loPI    C3 1459   1.661   2.431  10.904  0.0604 -0.0289 -0.0781
   92loPI   PO4 1460   2.056   2.265  10.417 -0.1303 -0.3125 -0.2425
   92loPI   GL1 1461   1.808   2.136  10.083 -0.0644 -0.0383 -0.0399
   92loPI   GL2 1462   1.669   1.826   9.912 -0.0756  0.1526 -0.1687
   92loPI   C1A 1463   1.802   2.338   9.716  0.0786  0.0170 -0.0208
   92loPI   C2A 1464   1.833   2.315   9.246 -0.0728  0.0630  0.1101
   92loPI   C3A 1465   1.744   2.276   8.836  0.4463  0.4842 -0.0321
   92loPI   C4A 1466   1.844   2.338   8.470 -0.3063 -0.3442  0.0842
   92loPI   C5A 1467   2.042   2.453   8.067  0.0236  0.2190  0.2769
   92loPI   C6A 1468   1.913   2.584   7.695 -0.0560 -0.0647  0.0061
   92loPI   C1B 1469   1.613   1.924   9.450 -0.1393 -0.4157 -0.0503
   92loPI   C2B 1470   1.575   1.806   9.009 -0.0170 -0.1974 -0.0392
   92loPI   C3B 1471   1.534   1.875   8.569 -0.1710 -0.0443  0.4231
   92loPI   C4B 1472   1.525   1.690   8.168 -0.1221  0.0296 -0.0034
   93loPI    C1 1473   9.619   8.489  11.051  0.1035  0.1520  0.2643
   93loPI    C2 1474   9.353   8.444  11.347 -0.0401 -0.2071  0.0859
   93loPI    C3 1475   9.710   8.264  11.369  0.0526 -0.0176  0.1595
   93loPI   PO4 1476   9.450   8.480  10.796  0.1206 -0.1291  0.0570
   93loPI   GL1 1477   9.513   8.733  10.452 -0.1276 -0.2936 -0.0501
   93loPI   GL2 1478   9.127   8.838  10.484 -0.0478 -0.3350  0.1062
   93loPI   C1A 1479   9.653   8.780   9.960 -0.2601 -0.0380  0.1102
   93loPI   C2A 1480   9.735   8.824   9.578  0.1443 -0.0753 -0.0230
   93loPI   C3A 1481   9.811   8.811   9.207  0.2818 -0.0574  0.0969
   93loPI   C4A 1482   9.788   8.814   8.776  0.0295  0.0267 -0.0252
   93loPI   C5A 1483   9.572   8.644   8.490  0.3422 -0.0736  0.0309
   93loPI   C6A 1484   9.540   8.699   8.083 -0.0924  0.0702 -0.0821
   93loPI   C1B 1485   9.060   8.814  10.008  0.0276  0.0061  0.0705
   93loPI   C2B 1486   9.255   8.793   9.589  0.1993 -0.0466 -0.3160
   93loPI   C3B 1487   9.257   8.762   9.106  0.1017  0.1285 -0.1576
   93loPI   C4B 1488   9.246   8.976   8.673 -0.4023 -0.0649 -0.0571
   94loPI    C1 1489   6.025   7.288  10.457  0.0283  0.0061 -0.1962
   94loPI    C2 1490   6.347   7.283  10.693 -0.0679 -0.2365 -0.0662
   94loPI    C3 1491   6.081   7.580  10.724  0.0227 -0.1604 -0.0104
   94loPI   PO4 1492   6.115   7.121  10.239 -0.0552 -0.2016  0.1926
   94loPI   GL1 1493   6.300   7.209   9.857  0.0105  0.0104  0.1655
   94loPI   GL2 1494   6.119   7.363   9.668  0.1745  0.1171  0.3449
   94loPI   C1A 1495   6.499   7.145   9.405 -0.3060  0.0143 -0.3784
   94loPI   C2A 1496   6.659   7.070   8.960 -0.1355  0.1928 -0.2826
   94loPI   C3A 1497   6.607   6.938   8.555  0.1954 -0.5230 -0.0796
   94loPI   C4A 1498   6.538   6.935   8.134  0.0747 -0.2128  0.2129
   94loPI   C5A 1499   6.814   6.672   7.795  0.0976  0.2599  0.1243
   94loPI   C6A 1500   7.274   6.631   7.758  0.1670 -0.3357 -0.1502
   94loPI   C1B 1501   6.016   7.234   9.350  0.2093  0.1986  0.0967
   94loPI   C2B 1502   6.113   7.088   8.875 -0.2989 -0.0309 -0.0482
   94loPI   C3B 1503   6.143   6.889   8.400 -0.1502 -0.0329  0.4013
   94loPI   C4B 1504   6.225   6.623   7.962  0.1827  0.1053  0.0353
   95loPI    C1 1505  12.200   5.873  11.142  0.1135 -0.0738  0.0199
   95loPI    C2 1506  12.538   5.986  11.324  0.0758 -0.0885  0.0994
   95loPI    C3 1507  12.223   5.869  11.541 -0.0125  0.0155  0.0286
   95loPI   PO4 1508  12.173   5.932  10.895 -0.2620 -0.0749  0.0708
   95loPI   GL1 1509  12.291   5.776  10.522  0.0160  0.0569 -0.1529
   95loPI   GL2 1510  12.275   5.483  10.390 -0.0133  0.1815  0.1491
   95loPI   C1A 1511  12.370   5.948  10.117 -0.0693  0.2101  0.0427
   95loPI   C2A 1512  12.394   6.078   9.715 -0.1566  0.3406 -0.0448
   95loPI   C3A 1513  12.247   5.928   9.414  0.1650 -0.2688 -0.1950
   95loPI   C4A 1514  12.317   5.948   8.937 -0.3350  0.3518  0.0477
   95loPI   C5A 1515  12.519   6.041   8.532  0.2180 -0.2625 -0.0392
   95loPI   C6A 1516  12.725   6.071   8.117  0.2004 -0.0351 -0.0904
   95loPI   C1B 1517  11.993   5.578  10.133  0.0949 -0.1509  0.1624
   95loPI   C2B 1518  12.002   5.494   9.693  0.0461  0.0986  0.2782
   95loPI   C3B 1519  12.086   5.485   9.298  0.1564 -0.2108 -0.1160
   95loPI   C4B 1520  12.042   5.539   8.823  0.0789 -0.0927  0.3659
   96loPI    C1 1521   3.804  14.424  10.737  0.0775 -0.1591 -0.1588
   96loPI    C2 1522   3.739  14.042  10.639 -0.1596 -0.1686  0.0267
   96loPI    C3 1523   3.937  14.132  10.975 -0.1909 -0.1281  0.0344
   96loPI   PO4 1524   3.788  14.515  10.427  0.1605 -0.1867 -0.1637
   96loPI   GL1 1525   3.386  14.628  10.163  0.1739 -0.2207  0.0865
   96loPI   GL2 1526   3.584  14.631   9.950 -0.0136 -0.0867 -0.0389
   96loPI   C1A 1527   3.097  14.647   9.759  0.0340  0.1210 -0.0365
   96loPI   C2A 1528   3.139  14.734   9.305 -0.0799 -0.2025  0.1708
   96loPI   C3A 1529   3.157  14.683   8.942 -0.0066 -0.2917  0.0232
   96loPI   C4A 1530   3.282  14.767   8.514 -0.0547 -0.1002 -0.3327
   96loPI   C5A 1531   3.390  14.664   8.171  0.2142 -0.2626 -0.1108
   96loPI   C6A 1532   3.720  14.448   8.094  0.2257 -0.3024  0.1582
   96loPI   C1B 1533   3.591  14.590   9.512  0.0594 -0.0366  0.1781
   96loPI   C2B 1534   3.663  14.582   9.177 -0.1242 -0.0560  0.1850
   96loPI   C3B 1535   3.785  14.605   8.736  0.0924  0.1111 -0.2614
   96loPI   C4B 1536   3.802  14.838   8.369 -0.2155  0.0902  0.1198
   97loPI    C1 1537  17.706  16.977  11.024  0.3902  0.0863 -0.1080
   97loPI    C2 1538  17.854  17.237  11.289  0.1180  0.0977  0.0365
   97loPI    C3 1539  17.806  16.854  11.391  0.3172  0.0331 -0.1058
   97loPI   PO4 1540  17.456  17.222  10.890  0.0727 -0.2748 -0.4589
   97loPI   GL1 1541  17.552  17.361  10.465  0.0589  0.0624  0.1364
   97loPI   GL2 1542  17.733  17.049  10.476 -0.2140 -0.0259  0.0858
   97loPI   C1A 1543  17.298  17.383  10.174  0.0178  0.1550  0.0101
   97loPI   C2A 1544  17.362  17.178   9.831 -0.0389  0.1830 -0.0673
   97loPI   C3A 1545  17.384  17.113   9.457  0.1254  0.0576  0.3483
   97loPI   C4A 1546  17.319  17.152   9.077 -0.3195 -0.2656 -0.1705
   97loPI   C5A 1547  17.254  17.313   8.847  0.1533  0.4072 -0.3477
   97loPI   C6A 1548  17.227  17.428   8.419  0.1829 -0.0167  0.1378
   97loPI   C1B 1549  17.797  17.183  10.086  0.0978 -0.2359 -0.3884
   97loPI   C2B 1550  17.824  17.252   9.653 -0.0953 -0.0056 -0.3134
   97loPI   C3B 1551  17.806  17.114   9.231 -0.0382 -0.1034  0.0207
   97loPI   C4B 1552  17.726  17.224   8.735  0.0113  0.2358 -0.0439
   98loPI    C1 1553   4.732   4.642  10.933  0.0725 -0.1197  0.1847
   98loPI    C2 1554   4.479   4.951  10.915  0.1846 -0.0357  0.0159
   98loPI    C3 1555   4.709   4.899  11.238  0.1518  0.0466  0.0527
   98loPI   PO4 1556   4.798   4.585  10.584  0.0504 -0.2802 -0.0487
   98loPI   GL1 1557   4.977   4.867  10.183  0.1509  0.1219 -0.3183
   98loPI   GL2 1558   5.045   4.564  10.040  0.0912 -0.2529 -0.0840
   98loPI   C1A 1559   5.101   5.040   9.865  0.0542 -0.1550  0.0623
   98loPI   C2A 1560   5.245   4.935   9.422 -0.1891 -0.0503  0.2345
   98loPI   C3A 1561   5.111   4.929   8.968 -0.1582  0.0893 -0.0728
   98loPI   C4A 1562   5.075   4.846   8.576 -0.2621 -0.2685 -0.4314
   98loPI   C5A 1563   4.882   4.889   8.214  0.1601 -0.0812 -0.0980
   98loPI   C6A 1564   4.430   5.011   8.071  0.0282 -0.0651 -0.1408
   98loPI   C1B 1565   4.927   4.510   9.611 -0.1204  0.1612 -0.2204
   98loPI   C2B 1566   4.970   4.523   9.238  0.2346 -0.0558 -0.1196
   98loPI   C3B 1567   4.917   4.449   8.880 -0.2998 -0.0405 -0.1077
   98loPI   C4B 1568   4.924   4.350   8.410 -0.1879 -0.1877 -0.0809
   99loPI    C1 1569   7.357   3.449  11.118 -0.0840  0.1701  0.1213
   99loPI    C2 1570   7.577   3.275  11.404 -0.2184 -0.0793  0.0760
   99loPI    C3 1571   7.403   3.629  11.472 -0.3816 -0.2109  0.3616
   99loPI   PO4 1572   7.487   3.472  10.935  0.2279  0.1295  0.1857
   99loPI   GL1 1573   7.410   3.641  10.619 -0.0986  0.2685  0.0069
   99loPI   GL2 1574   7.436   3.906  10.517 -0.0683 -0.0101 -0.1292
   99loPI   C1A 1575   7.270   3.505  10.196 -0.0699 -0.1863  0.0550
   99loPI   C2A 1576   7.357   3.462   9.773  0.0452  0.0839  0.2020
   99loPI   C3A 1577   7.392   3.483   9.352 -0.2671  0.1027 -0.1060
   99loPI   C4A 1578   7.496   3.403   8.889  0.1113  0.0773  0.0608
   99loPI   C5A 1579   7.635   3.389   8.506  0.3739  0.3371 -0.0645
   99loPI   C6A 1580   7.904   3.379   8.133 -0.0336  0.0242  0.0033
   99loPI   C1B 1581   7.612   3.861  10.049 -0.1432 -0.1304 -0.0014
   99loPI   C2B 1582   7.652   3.836   9.569 -0.2591 -0.2695  0.2356
   99loPI   C3B 1583   7.790   3.763   9.107  0.1461 -0.0098  0.0227
   99loPI   C4B 1584   7.922   3.766   8.678 -0.1336  0.0327 -0.2045
  100loPI    C1 1585  12.098  14.859  11.295 -0.3133 -0.1027  0.1685
  100loPI    C2 1586  12.187  15.200  11.484  0.0161 -0.0266 -0.1136
  100loPI    C3 1587  11.856  14.998  11.581 -0.0989  0.2877  0.1670
  100loPI   PO4 1588  12.224  14.901  11.017  0.2235  0.1688  0.4981
  100loPI   GL1 1589  12.162  14.712  10.558  0.1064 -0.0742 -0.2284
  100loPI   GL2 1590  11.784  14.695  10.456 -0.2842  0.1012 -0.3095
  100loPI   C1A 1591  12.270  14.624  10.251  0.1293  0.1919 -0.2362
  100loPI   C2A 1592  12.402  14.675   9.803  0.3035 -0.2868  0.1416
  100loPI   C3A 1593  12.319  14.778   9.391 -0.0426  0.1462  0.1160
  100loPI   C4A 1594  12.337  14.740   8.962 -0.0045 -0.0768 -0.2144
  100loPI   C5A 1595  12.475  14.476   8.575 -0.1481 -0.2610 -0.0791
  100loPI   C6A 1596  12.665  14.106   8.573  0.0293  0.0946  0.2195
  100loPI   C1B 1597  11.790  14.750  10.015 -0.2484  0.0624  0.0846
  100loPI   C2B 1598  11.868  14.793   9.667 -0.5526  0.1894  0.0714
  100loPI   C3B 1599  11.792  14.780   9.221  0.0156 -0.0195  0.1614
  100loPI   C4B 1600  11.813  14.580   8.824 -0.0407 -0.0613  0.3168
  101loPI    C1 1601   4.377  16.103  11.015  0.2832  0.2290  0.1894
  101loPI    C2 1602   4.168  16.091  11.356  0.0353 -0.1341  0.0308
  101loPI    C3 1603   4.506  16.305  11.336  0.0146 -0.0493  0.4793
  101loPI   PO4 1604   4.215  16.155  10.746 -0.2926 -0.0509 -0.0289
  101loPI   GL1 1605   4.096  16.304  10.284 -0.1501  0.0224 -0.0181
  101loPI   GL2 1606   4.431  16.270  10.333  0.0437 -0.0921  0.2580
  101loPI   C1A 1607   3.962  16.007   9.880 -0.1061 -0.2367  0.1139
  101loPI   C2A 1608   4.149  16.023   9.488 -0.0992 -0.1507  0.0889
  101loPI   C3A 1609   4.099  16.029   9.031  0.2907  0.1374 -0.1279
  101loPI   C4A 1610   4.147  16.180   8.649 -0.1859 -0.1297  0.1779
  101loPI   C5A 1611   3.773  16.251   8.316  0.0251 -0.1556 -0.0004
  101loPI   C6A 1612   3.317  16.353   8.331 -0.2195  0.1093  0.3260
  101loPI   C1B 1613   4.294  16.500   9.856 -0.1134 -0.0114 -0.1356
  101loPI   C2B 1614   4.313  16.576   9.488  0.1746 -0.1989 -0.1587
  101loPI   C3B 1615   4.345  16.465   9.089  0.0639 -0.1161 -0.0812
  101loPI   C4B 1616   4.487  16.525   8.649  0.0737  0.1735  0.1870
  102loPI    C1 1617   0.664  10.550  10.449 -0.2184  0.0043 -0.1333
  102loPI    C2 1618   0.613  10.932  10.341 -0.0239  0.1194  0.1682
  102loPI    C3 1619   0.371  10.767  10.613 -0.2144 -0.0270 -0.0849
  102loPI   PO4 1620   0.675  10.393  10.295 -0.1339  0.3999  0.4551
  102loPI   GL1 1621   0.839  10.195   9.837  0.1784  0.2174 -0.1577
  102loPI   GL2 1622   0.977   9.940   9.814  0.2813  0.0813 -0.2838
  102loPI   C1A 1623   0.918  10.242   9.400  0.0007 -0.1472  0.3140
  102loPI   C2A 1624   0.852  10.378   9.038  0.3517 -0.0602  0.1690
  102loPI   C3A 1625   0.718  10.410   8.674  0.0575  0.3175 -0.2342
  102loPI   C4A 1626   0.685  10.353   8.294  0.2241  0.1049  0.2542
  102loPI   C5A 1627   0.436  10.026   8.102  0.1974 -0.1512 -0.1974
  102loPI   C6A 1628   0.393   9.523   8.032 -0.0656  0.1614  0.1293
  102loPI   C1B 1629   1.037   9.693   9.471  0.0492 -0.2197  0.0241
  102loPI   C2B 1630   0.891   9.469   9.146  0.1364  0.1619  0.2509
  102loPI   C3B 1631   0.752   9.488   8.795  0.0356  0.0052 -0.2183
  102loPI   C4B 1632   0.725   9.279   8.421 -0.0133 -0.1157 -0.0280
  103loPI    C1 1633  10.388   6.416  11.477 -0.1239  0.0603  0.0749
  103loPI    C2 1634  10.504   6.042  11.556 -0.3258 -0.0072  0.0583
  103loPI    C3 1635  10.284   6.244  11.822 -0.1575  0.1261  0.0978
  103loPI   PO4 1636  10.276   6.332  11.113 -0.1496 -0.0903 -0.1995
  103loPI   GL1 1637  10.477   6.244  10.676  0.0076 -0.2370 -0.0657
  103loPI   GL2 1638  10.278   6.040  10.718  0.0113  0.0018 -0.2053
  103loPI   C1A 1639  10.495   6.473  10.314  0.0240  0.1926  0.1133
  103loPI   C2A 1640  10.459   6.472   9.918 -0.2147  0.0285  0.3118
  103loPI   C3A 1641  10.499   6.515   9.430  0.1526 -0.1051 -0.2276
  103loPI   C4A 1642  10.461   6.639   8.991 -0.2360  0.0240  0.0300
  103loPI   C5A 1643  10.297   6.422   8.592 -0.0585  0.0356 -0.3066
  103loPI   C6A 1644  10.279   5.911   8.509 -0.1759  0.0519 -0.0781
  103loPI   C1B 1645  10.140   5.971  10.286 -0.1557  0.0125 -0.2908
  103loPI   C2B 1646  10.185   5.966   9.887  0.0745  0.1145  0.0196
  103loPI   C3B 1647  10.178   6.065   9.446  0.0923 -0.0953 -0.0504
  103loPI   C4B 1648  10.223   6.184   9.000 -0.0200  0.1443  0.1884
  104loPI    C1 1649   7.633  10.357  10.594  0.0669 -0.1882 -0.0599
  104loPI    C2 1650   7.903  10.453  10.873 -0.0152  0.2820 -0.1346
  104loPI    C3 1651   7.747  10.085  10.865  0.0093  0.2508  0.4206
  104loPI   PO4 1652   7.722  10.446  10.411  0.0102 -0.1218 -0.0775
  104loPI   GL1 1653   7.973  10.600   9.978  0.0067  0.1683 -0.0107
  104loPI   GL2 1654   8.069  10.245   9.965 -0.1296  0.5343  0.0988
  104loPI   C1A 1655   8.300  10.688   9.651 -0.4090  0.4070 -0.0832
  104loPI   C2A 1656   8.291  10.774   9.115 -0.0434  0.2284 -0.3406
  104loPI   C3A 1657   8.296  10.703   8.763 -0.1414  0.3350 -0.1318
  104loPI   C4A 1658   8.255  10.701   8.354 -0.1772  0.2856 -0.1320
  104loPI   C5A 1659   8.069  10.697   7.911 -0.0488  0.0150 -0.4357
  104loPI   C6A 1660   7.893  11.124   7.703  0.1796  0.1069  0.0178
  104loPI   C1B 1661   7.927  10.238   9.517  0.0290  0.2943  0.0204
  104loPI   C2B 1662   7.909  10.226   9.036  0.0819 -0.0148 -0.1060
  104loPI   C3B 1663   8.040  10.313   8.610  0.1565 -0.2570  0.2164
  104loPI   C4B 1664   8.243  10.165   8.169 -0.2686 -0.1825  0.1099
  105loPI    C1 1665   7.732   0.167  11.235 -0.0241 -0.0478 -0.1721
  105loPI    C2 1666   7.673   0.562  11.265 -0.1381 -0.0663 -0.1509
  105loPI    C3 1667   7.465   0.310  11.496  0.1511 -0.1240  0.0523
  105loPI   PO4 1668   7.827   0.207  10.940  0.4820 -0.0200 -0.1701
  105loPI   GL1 1669   7.868  -0.036  10.635  0.0590  0.0472 -0.3797
  105loPI   GL2 1670   8.198  -0.045  10.695 -0.2429  0.3338 -0.0682
  105loPI   C1A 1671   7.782  -0.276  10.201  0.2637 -0.1758  0.1483
  105loPI   C2A 1672   7.774  -0.230   9.735 -0.0888 -0.1234  0.2105
  105loPI   C3A 1673   7.852  -0.221   9.270  0.2836 -0.0337  0.0196
  105loPI   C4A 1674   7.970  -0.225   8.813  0.2693  0.0265 -0.3253
  105loPI   C5A 1675   8.055  -0.304   8.351 -0.1223 -0.3114 -0.0776
  105loPI   C6A 1676   7.794  -0.261   7.968  0.1346 -0.1883 -0.2966
  105loPI   C1B 1677   8.254  -0.235  10.349  0.0114 -0.1485  0.0680
  105loPI   C2B 1678   8.228  -0.193   9.940 -0.1183  0.3970 -0.0033
  105loPI   C3B 1679   8.272  -0.261   9.521  0.0281  0.3012 -0.1165
  105loPI   C4B 1680   8.444  -0.250   9.212  0.2070  0.0283  0.1385
  106loPI    C1 1681   6.792  13.040  11.020 -0.1124 -0.0232 -0.0673
  106loPI    C2 1682   6.806  13.064  11.420 -0.3480  0.1290 -0.0661
  106loPI    C3 1683   7.136  13.133  11.203 -0.2726  0.2708  0.0915
  106loPI   PO4 1684   6.623  13.222  10.846 -0.1648  0.1027 -0.1070
  106loPI   GL1 1685   6.740  13.143  10.420 -0.2186  0.1813 -0.2749
  106loPI   GL2 1686   6.438  12.997  10.275 -0.0349  0.2821 -0.0209
  106loPI   C1A 1687   6.819  13.056   9.988 -0.1770  0.0100  0.1883
  106loPI   C2A 1688   6.961  13.065   9.596  0.2832  0.1663 -0.1114
  106loPI   C3A 1689   6.975  13.113   9.271 -0.0189 -0.1911 -0.1852
  106loPI   C4A 1690   7.085  13.080   8.831  0.2570 -0.4176 -0.2518
  106loPI   C5A 1691   7.162  13.041   8.361 -0.0945 -0.2910 -0.1068
  106loPI   C6A 1692   7.368  13.290   8.118 -0.0547  0.2064  0.1420
  106loPI   C1B 1693   6.404  13.298   9.929  0.1725 -0.0447 -0.1874
  106loPI   C2B 1694   6.554  13.266   9.468 -0.0356 -0.0797  0.1487
  106loPI   C3B 1695   6.486  13.314   9.051  0.1457  0.1103 -0.3885
  106loPI   C4B 1696   6.535  13.278   8.690  0.0972 -0.0685 -0.0495
  107loPI    C1 1697   8.861  16.818  11.189 -0.0062 -0.0335 -0.0032
  107loPI    C2 1698   8.913  17.074  11.493  0.0176 -0.0649  0.0190
  107loPI    C3 1699   8.960  16.681  11.551  0.1284 -0.0621 -0.0504
  107loPI   PO4 1700   8.982  16.972  10.952  0.1570 -0.2593  0.2778
  107loPI   GL1 1701   9.052  16.966  10.532 -0.0433  0.0464  0.0166
  107loPI   GL2 1702   8.863  16.854  10.368 -0.0904  0.1142  0.2407
  107loPI   C1A 1703   9.284  16.865  10.148 -0.0380  0.1307  0.0001
  107loPI   C2A 1704   9.374  16.788   9.757 -0.1320 -0.2359  0.1998
  107loPI   C3A 1705   9.335  16.771   9.328 -0.2558  0.3026  0.2791
  107loPI   C4A 1706   9.436  16.898   8.866 -0.1642 -0.0955 -0.2687
  107loPI   C5A 1707   9.305  16.880   8.456 -0.2018 -0.0290 -0.2605
  107loPI   C6A 1708   9.184  17.038   8.097  0.0337  0.2058  0.0456
  107loPI   C1B 1709   8.782  16.901   9.992 -0.3103  0.2853  0.1835
  107loPI   C2B 1710   8.840  16.829   9.556  0.0569  0.1611 -0.2142
  107loPI   C3B 1711   8.896  16.784   9.030  0.1460  0.2059  0.0165
  107loPI   C4B 1712   8.949  17.114   8.687  0.0101  0.1767 -0.0800
  108loPI    C1 1713   6.275   3.494  11.028  0.2967 -0.1918 -0.1829
  108loPI    C2 1714   6.418   3.518  11.401 -0.2531 -0.0639  0.0289
  108loPI    C3 1715   6.152   3.787  11.271 -0.0900 -0.1249 -0.4500
  108loPI   PO4 1716   6.504   3.300  10.855  0.0465  0.0563  0.2061
  108loPI   GL1 1717   6.601   3.167  10.476  0.0885 -0.1887 -0.3221
  108loPI   GL2 1718   6.392   2.894  10.521 -0.0353  0.1975  0.0183
  108loPI   C1A 1719   6.596   3.104  10.023 -0.1106  0.0344  0.2674
  108loPI   C2A 1720   6.568   3.100   9.570  0.0027 -0.1325 -0.0231
  108loPI   C3A 1721   6.673   3.068   9.200  0.1879 -0.1007 -0.1958
  108loPI   C4A 1722   6.719   2.941   8.772  0.0093  0.1050 -0.0207
  108loPI   C5A 1723   6.819   2.974   8.366  0.0923 -0.0836 -0.0048
  108loPI   C6A 1724   7.193   3.255   8.182  0.1520  0.3236 -0.2008
  108loPI   C1B 1725   6.326   2.732  10.151  0.0345  0.0838 -0.0747
  108loPI   C2B 1726   6.285   2.568   9.677  0.0198  0.1987 -0.1621
  108loPI   C3B 1727   6.340   2.611   9.174 -0.0979  0.0761 -0.2443
  108loPI   C4B 1728   6.499   2.536   8.930 -0.2206  0.1206 -0.3291
  109loPI    C1 1729   6.105   5.800  10.585 -0.0325 -0.2340  0.0054
  109loPI    C2 1730   6.397   5.876  10.847  0.1257 -0.2261 -0.1715
  109loPI    C3 1731   6.145   5.572  10.912  0.0077 -0.0715  0.1149
  109loPI   PO4 1732   6.128   5.846  10.330 -0.0304  0.3072  0.0028
  109loPI   GL1 1733   6.324   5.501  10.050 -0.1674 -0.2631  0.1674
  109loPI   GL2 1734   6.520   5.370   9.820 -0.0848 -0.1259 -0.4207
  109loPI   C1A 1735   6.288   5.766   9.607 -0.3967  0.0354  0.1659
  109loPI   C2A 1736   6.272   5.755   9.166  0.3064  0.1033  0.1495
  109loPI   C3A 1737   6.322   5.641   8.786  0.0023  0.2906  0.3838
  109loPI   C4A 1738   6.250   5.567   8.315  0.2595  0.3051  0.1577
  109loPI   C5A 1739   6.375   5.608   7.976 -0.1455 -0.2771 -0.2714
  109loPI   C6A 1740   6.720   5.698   7.804  0.2372  0.1968  0.1531
  109loPI   C1B 1741   6.527   5.369   9.412  0.5127 -0.2484  0.2473
  109loPI   C2B 1742   6.562   5.189   9.045  0.3503  0.2211 -0.0088
  109loPI   C3B 1743   6.553   5.143   8.590  0.0485  0.1511 -0.3551
  109loPI   C4B 1744   6.454   5.080   8.126 -0.0813  0.0392 -0.2139
  110loPI    C1 1745  10.082  14.954  11.381 -0.0284 -0.0687  0.1821
  110loPI    C2 1746   9.825  14.911  11.684  0.0402  0.0165  0.2528
  110loPI    C3 1747  10.208  15.001  11.757  0.0377  0.1243  0.1373
  110loPI   PO4 1748  10.005  14.792  11.110  0.0702  0.3123 -0.2478
  110loPI   GL1 1749  10.056  14.652  10.694  0.2274 -0.2671 -0.0724
  110loPI   GL2 1750  10.335  14.816  10.653 -0.0555  0.1161 -0.1266
  110loPI   C1A 1751   9.813  14.663  10.367  0.2508  0.0483  0.1183
  110loPI   C2A 1752   9.837  14.500   9.974  0.3154  0.0123 -0.0303
  110loPI   C3A 1753   9.870  14.358   9.566 -0.1678 -0.1585 -0.1402
  110loPI   C4A 1754  10.012  14.259   9.208  0.0300 -0.2584 -0.1554
  110loPI   C5A 1755  10.162  14.240   8.798 -0.1646  0.4866  0.1726
  110loPI   C6A 1756  10.290  14.321   8.372 -0.1293  0.2855  0.1858
  110loPI   C1B 1757  10.288  14.806  10.175  0.0746 -0.1240 -0.4002
  110loPI   C2B 1758  10.175  14.752   9.728 -0.1742  0.0147  0.2249
  110loPI   C3B 1759  10.256  14.804   9.283 -0.0151 -0.1952  0.1405
  110loPI   C4B 1760  10.323  14.942   8.827 -0.2851  0.1486 -0.1224
  111loPI    C1 1761  17.520   6.244  10.444 -0.2273  0.0012  0.0170
  111loPI    C2 1762  17.266   6.373  10.726  0.0256  0.0974  0.2050
  111loPI    C3 1763  17.433   6.011  10.757 -0.0012  0.0793  0.1406
  111loPI   PO4 1764  17.398   6.275  10.199 -0.0536  0.0180 -0.1355
  111loPI   GL1 1765  17.090   6.260   9.844 -0.0197  0.1662  0.1337
  111loPI   GL2 1766  16.800   6.159   9.816 -0.0499  0.0005  0.0901
  111loPI   C1A 1767  17.273   6.208   9.463 -0.1901  0.0085 -0.0524
  111loPI   C2A 1768  17.170   6.251   9.116 -0.1268  0.1761 -0.1832
  111loPI   C3A 1769  17.184   6.201   8.723 -0.0490  0.1640  0.0739
  111loPI   C4A 1770  17.071   6.153   8.281  0.4388  0.0581 -0.2209
  111loPI   C5A 1771  16.922   6.483   8.112  0.0469 -0.1734 -0.1303
  111loPI   C6A 1772  17.034   6.825   7.898 -0.1790 -0.0876 -0.0415
  111loPI   C1B 1773  16.710   6.159   9.379 -0.1533  0.2634  0.0608
  111loPI   C2B 1774  16.677   6.167   8.918 -0.1154 -0.1038 -0.2863
  111loPI   C3B 1775  16.574   6.208   8.474 -0.1634  0.1540  0.3514
  111loPI   C4B 1776  16.608   6.062   8.035 -0.2303 -0.2622 -0.3329
  112loPI    C1 1777   1.126   4.304  10.728  0.0636  0.1021 -0.0384
  112loPI    C2 1778   0.865   4.200  11.013 -0.0023 -0.0172 -0.1416
  112loPI    C3 1779   1.253   4.114  11.056  0.0160  0.1298 -0.0037
  112loPI   PO4 1780   1.003   4.254  10.538  0.2030  0.1423 -0.1733
  112loPI   GL1 1781   1.114   4.109  10.182 -0.2638  0.1399 -0.1549
  112loPI   GL2 1782   1.329   3.941  10.142 -0.0054 -0.0777 -0.4251
  112loPI   C1A 1783   0.838   4.131   9.846 -0.1125  0.2898 -0.0371
  112loPI   C2A 1784   0.824   4.317   9.413  0.1842 -0.1602 -0.0885
  112loPI   C3A 1785   0.891   4.291   8.985  0.1978  0.3032 -0.2919
  112loPI   C4A 1786   0.777   4.220   8.568 -0.2199  0.1381 -0.0814
  112loPI   C5A 1787   0.788   4.169   8.211 -0.0885 -0.1400  0.0631
  112loPI   C6A 1788   0.774   4.028   7.778  0.0950 -0.2724 -0.3076
  112loPI   C1B 1789   1.302   4.037   9.672  0.1380 -0.0786  0.1822
  112loPI   C2B 1790   1.326   4.093   9.203  0.1804  0.4067  0.1437
  112loPI   C3B 1791   1.324   4.097   8.816 -0.0914  0.1209  0.1382
  112loPI   C4B 1792   1.372   4.120   8.355  0.0066 -0.1103  0.1238
  113loPI    C1 1793  11.286  15.265  11.003  0.0257  0.1435 -0.0645
  113loPI    C2 1794  11.295  15.452  11.356 -0.2525 -0.2060  0.1341
  113loPI    C3 1795  11.437  15.080  11.324  0.0596 -0.0647 -0.1989
  113loPI   PO4 1796  11.459  15.450  10.771 -0.3292  0.0242 -0.0464
  113loPI   GL1 1797  11.479  15.569  10.437 -0.0500 -0.0782  0.1335
  113loPI   GL2 1798  11.699  15.686  10.431  0.0669  0.1713  0.1445
  113loPI   C1A 1799  11.362  15.554   9.963 -0.2167 -0.2727  0.0153
  113loPI   C2A 1800  11.309  15.618   9.541  0.2187  0.2779  0.1825
  113loPI   C3A 1801  11.359  15.702   9.020  0.3059 -0.0895 -0.0830
  113loPI   C4A 1802  11.448  15.889   8.657  0.3853  0.1176 -0.2473
  113loPI   C5A 1803  11.727  16.221   8.517  0.3085  0.0603  0.3008
  113loPI   C6A 1804  11.939  16.454   8.206 -0.3252  0.2094 -0.1061
  113loPI   C1B 1805  11.961  15.699  10.073 -0.0288  0.2004 -0.1837
  113loPI   C2B 1806  11.949  15.677   9.589 -0.1833  0.1090 -0.0413
  113loPI   C3B 1807  11.900  15.682   9.152  0.1233  0.0056 -0.1978
  113loPI   C4B 1808  11.924  15.575   8.726 -0.0086  0.2722 -0.2511
  114loPI    C1 1809   8.835   0.774  11.426  0.0775 -0.2749  0.0321
  114loPI    C2 1810   8.566   1.062  11.493  0.2093 -0.0828 -0.2478
  114loPI    C3 1811   8.649   0.797  11.780 -0.0477  0.0453 -0.0505
  114loPI   PO4 1812   8.781   0.542  11.175  0.0846  0.2835  0.2193
  114loPI   GL1 1813   8.390   0.424  10.779  0.0977 -0.0130  0.2491
  114loPI   GL2 1814   8.413   0.702  10.521  0.0380 -0.4767  0.0870
  114loPI   C1A 1815   8.467   0.252  10.352 -0.1209  0.1000  0.0371
  114loPI   C2A 1816   8.472   0.231   9.895 -0.1206 -0.2383  0.0708
  114loPI   C3A 1817   8.613   0.140   9.569 -0.1374  0.2229 -0.0061
  114loPI   C4A 1818   8.663   0.242   9.232  0.3295 -0.1615  0.1187
  114loPI   C5A 1819   8.740   0.229   8.757 -0.2616 -0.1738 -0.0029
  114loPI   C6A 1820   8.709   0.140   8.329 -0.0320  0.0203 -0.4038
  114loPI   C1B 1821   8.249   0.688  10.152  0.0500  0.4867 -0.1069
  114loPI   C2B 1822   8.221   0.667   9.779 -0.1083  0.0274  0.1972
  114loPI   C3B 1823   8.395   0.645   9.421  0.1513 -0.1148  0.4218
  114loPI   C4B 1824   8.486   0.624   8.928 -0.0854 -0.2953  0.0695
  115loPI    C1 1825   2.505  15.268  10.978 -0.0593 -0.0167 -0.0239
  115loPI    C2 1826   2.863  15.364  11.129  0.0449 -0.0024 -0.2756
  115loPI    C3 1827   2.542  15.584  11.222  0.1061  0.0051 -0.0759
  115loPI   PO4 1828   2.494  15.265  10.779 -0.1930  0.0215 -0.0790
  115loPI   GL1 1829   2.318  15.394  10.385 -0.1034 -0.0065 -0.0510
  115loPI   GL2 1830   2.275  15.108  10.067 -0.0763  0.1392  0.0354
  115loPI   C1A 1831   2.587  15.550   9.960 -0.0954  0.2484 -0.1589
  115loPI   C2A 1832   2.732  15.497   9.537  0.3018  0.0508 -0.0659
  115loPI   C3A 1833   2.645  15.685   9.068 -0.1869  0.2147 -0.0211
  115loPI   C4A 1834   2.728  15.654   8.688 -0.0887 -0.1068  0.0835
  115loPI   C5A 1835   2.894  15.643   8.280  0.2706 -0.2081 -0.1757
  115loPI   C6A 1836   2.564  15.547   7.967  0.2458 -0.1795 -0.0111
  115loPI   C1B 1837   2.333  15.103   9.704 -0.0739  0.0139 -0.0424
  115loPI   C2B 1838   2.347  15.199   9.278 -0.2965  0.0888 -0.0944
  115loPI   C3B 1839   2.417  15.240   8.840  0.0967  0.3051 -0.0151
  115loPI   C4B 1840   2.559  15.263   8.414 -0.2343  0.0013  0.1345
  116loPI    C1 1841   3.339   7.903  10.149  0.0794 -0.1248  0.0530
  116loPI    C2 1842   3.711   8.049  10.163 -0.0713  0.2735  0.0428
  116loPI    C3 1843   3.493   8.026  10.497 -0.1083  0.2285  0.0156
  116loPI   PO4 1844   3.349   7.708   9.986  0.0756 -0.1758 -0.2643
  116loPI   GL1 1845   3.604   7.445   9.659  0.1309  0.1865 -0.0936
  116loPI   GL2 1846   3.826   7.292   9.458  0.1278 -0.1001  0.4912
  116loPI   C1A 1847   3.352   7.368   9.268 -0.0320 -0.3800 -0.0352
  116loPI   C2A 1848   3.326   7.380   8.791 -0.1688  0.0208 -0.0085
  116loPI   C3A 1849   3.251   7.327   8.400  0.0025  0.0370  0.0052
  116loPI   C4A 1850   3.187   7.385   7.956 -0.0538 -0.4378  0.2572
  116loPI   C5A 1851   2.946   7.575   7.681  0.1800 -0.0463  0.0853
  116loPI   C6A 1852   2.531   7.475   7.497 -0.0677 -0.1627 -0.1957
  116loPI   C1B 1853   3.811   7.366   9.033  0.2878  0.1619  0.2400
  116loPI   C2B 1854   3.790   7.321   8.532  0.1864  0.0528 -0.1599
  116loPI   C3B 1855   3.794   7.388   8.155 -0.0605 -0.1525  0.0963
  116loPI   C4B 1856   4.006   7.231   7.875 -0.0785  0.0443 -0.2508
  117loPI    C1 1857  13.104   2.928  11.035  0.0211 -0.2991  0.1087
  117loPI    C2 1858  13.491   3.020  11.078 -0.0417 -0.0056  0.0672
  117loPI    C3 1859  13.261   2.964  11.401 -0.0239  0.0791  0.0948
  117loPI   PO4 1860  13.120   2.854  10.730  0.0127  0.1852 -0.2807
  117loPI   GL1 1861  13.126   2.769  10.422 -0.2940  0.0644  0.1036
  117loPI   GL2 1862  13.331   2.915  10.209 -0.0494 -0.0429 -0.3302
  117loPI   C1A 1863  12.889   2.668  10.002 -0.4003 -0.1910 -0.2087
  117loPI   C2A 1864  12.856   2.696   9.532  0.3025 -0.1762  0.0667
  117loPI   C3A 1865  12.965   2.631   9.213  0.0950 -0.2864 -0.0343
  117loPI   C4A 1866  12.982   2.589   8.753  0.1265 -0.0070  0.1405
  117loPI   C5A 1867  12.696   2.441   8.393  0.0285  0.2114 -0.0955
  117loPI   C6A 1868  12.656   2.570   8.051 -0.1202 -0.2238 -0.1136
  117loPI   C1B 1869  13.400   2.713   9.810  0.3865 -0.1288  0.1804
  117loPI   C2B 1870  13.430   2.708   9.375  0.0307 -0.0748 -0.0758
  117loPI   C3B 1871  13.474   2.497   8.897  0.0843 -0.1596 -0.2136
  117loPI   C4B 1872  13.426   2.408   8.463  0.0464  0.2344  0.1510
  118loPI    C1 1873   0.480  13.728  10.598  0.0093 -0.4582  0.2684
  118loPI    C2 1874   0.307  13.880  10.925  0.1348 -0.1844  0.2106
  118loPI    C3 1875   0.703  13.910  10.876  0.0740  0.1153 -0.1409
  118loPI   PO4 1876   0.377  13.849  10.422  0.0240  0.2422 -0.0785
  118loPI   GL1 1877   0.407  14.079  10.068 -0.3949 -0.0653  0.0720
  118loPI   GL2 1878   0.693  14.111   9.968  0.0710 -0.1029 -0.1505
  118loPI   C1A 1879   0.283  14.287   9.653  0.0315 -0.0660  0.0113
  118loPI   C2A 1880   0.206  14.478   9.247  0.0261  0.3554  0.2301
  118loPI   C3A 1881   0.418  14.531   8.776  0.2770 -0.4557 -0.2180
  118loPI   C4A 1882   0.584  14.775   8.488 -0.1741 -0.0921 -0.0396
  118loPI   C5A 1883   0.513  14.803   8.134  0.3865  0.0778  0.0823
  118loPI   C6A 1884   0.105  14.878   7.932  0.0460 -0.1280 -0.0033
  118loPI   C1B 1885   0.828  14.276   9.553 -0.2506 -0.0039 -0.1619
  118loPI   C2B 1886   0.821  14.355   9.050  0.1163  0.0485 -0.1256
  118loPI   C3B 1887   0.888  14.334   8.635  0.1310 -0.0621  0.0612
  118loPI   C4B 1888   0.912  14.235   8.253  0.1138  0.2176 -0.1671
  119loPI    C1 1889  14.345  10.441  10.992 -0.0309  0.0389 -0.0922
  119loPI    C2 1890  14.600  10.515  11.291 -0.0559  0.0114 -0.0640
  119loPI    C3 1891  14.259  10.317  11.363 -0.0933  0.0632 -0.0983
  119loPI   PO4 1892  14.534  10.375  10.735  0.2676  0.0063 -0.0603
  119loPI   GL1 1893  14.594  10.300  10.321  0.2137  0.3140  0.0199
  119loPI   GL2 1894  14.709  10.575  10.282 -0.1292 -0.1164 -0.0062
  119loPI   C1A 1895  14.276  10.489  10.000  0.1647 -0.3061  0.0610
  119loPI   C2A 1896  14.229  10.485   9.599 -0.0673  0.0519 -0.0107
  119loPI   C3A 1897  14.107  10.456   9.279  0.1937 -0.0220 -0.1792
  119loPI   C4A 1898  14.032  10.564   8.810 -0.0887  0.0780 -0.1982
  119loPI   C5A 1899  14.049  10.865   8.551 -0.0594  0.0818  0.2521
  119loPI   C6A 1900  14.309  11.167   8.261  0.2051 -0.2071  0.0645
  119loPI   C1B 1901  14.748  10.466   9.869 -0.3184  0.1922  0.4162
  119loPI   C2B 1902  14.750  10.535   9.453 -0.0587 -0.0333  0.2424
  119loPI   C3B 1903  14.597  10.515   9.026 -0.1945 -0.0325  0.4078
  119loPI   C4B 1904  14.453  10.498   8.653 -0.0264  0.2057 -0.2521
  120loPI    C1 1905   4.598   8.779   9.899  0.0192  0.1796  0.1524
  120loPI    C2 1906   4.644   8.496  10.177 -0.0573 -0.0343 -0.0488
  120loPI    C3 1907   4.372   8.784  10.228  0.0113 -0.0034  0.1511
  120loPI   PO4 1908   4.660   8.701   9.738  0.0504 -0.0021 -0.0204
  120loPI   GL1 1909   4.667   8.510   9.341  0.3647  0.0765 -0.0578
  120loPI   GL2 1910   4.338   8.623   9.255  0.2639  0.0235  0.0377
  120loPI   C1A 1911   4.860   8.780   9.083 -0.0943  0.0484  0.2306
  120loPI   C2A 1912   4.922   8.816   8.703 -0.1882 -0.1649  0.0960
  120loPI   C3A 1913   4.562   8.874   8.419 -0.2028 -0.0758  0.2979
  120loPI   C4A 1914   4.568   8.922   7.945 -0.2436  0.2644 -0.0696
  120loPI   C5A 1915   4.697   9.247   7.708  0.3129 -0.0595  0.0974
  120loPI   C6A 1916   4.612   9.670   7.565  0.0995  0.0098 -0.0422
  120loPI   C1B 1917   4.283   8.612   8.817  0.2117 -0.0922  0.1332
  120loPI   C2B 1918   3.975   8.545   8.418 -0.2321  0.2391 -0.0945
  120loPI   C3B 1919   3.956   8.598   7.953 -0.0768 -0.0036  0.0512
  120loPI   C4B 1920   4.175   8.680   7.619  0.0434 -0.2806  0.1047
  121loPI    C1 1921  17.487  11.717  10.967 -0.0820  0.0822 -0.0590
  121loPI    C2 1922  17.634  11.543  10.638 -0.2347  0.0205 -0.0954
  121loPI    C3 1923  17.882  11.693  10.913 -0.1056 -0.0003 -0.1999
  121loPI   PO4 1924  17.330  11.899  10.868  0.3337  0.0556 -0.0669
  121loPI   GL1 1925  17.296  11.943  10.419  0.1337  0.0581 -0.1241
  121loPI   GL2 1926  17.582  11.783  10.212  0.1276 -0.0099  0.1845
  121loPI   C1A 1927  17.084  11.799  10.055 -0.0396  0.0879  0.1416
  121loPI   C2A 1928  16.989  11.795   9.663 -0.0676  0.1216  0.0403
  121loPI   C3A 1929  16.953  11.854   9.195  0.0875  0.0949 -0.0597
  121loPI   C4A 1930  16.970  11.792   8.843 -0.0185 -0.3147 -0.1153
  121loPI   C5A 1931  16.894  11.734   8.391 -0.0131  0.0393  0.1112
  121loPI   C6A 1932  17.250  11.401   8.172 -0.4995  0.0706  0.1520
  121loPI   C1B 1933  17.527  11.753   9.791 -0.0081  0.1258  0.0550
  121loPI   C2B 1934  17.439  11.787   9.356  0.0829 -0.0625  0.0798
  121loPI   C3B 1935  17.479  11.908   8.963 -0.0853  0.2233  0.0170
  121loPI   C4B 1936  17.377  11.739   8.594  0.0373  0.3185 -0.2244
  122loPI    C1 1937   6.835  11.560  10.445  0.3967 -0.0057 -0.1679
  122loPI    C2 1938   6.712  11.709  10.796 -0.2394 -0.0437 -0.3620
  122loPI    C3 1939   6.800  11.320  10.764 -0.0130 -0.0071 -0.2083
  122loPI   PO4 1940   6.681  11.662  10.254 -0.2186 -0.0673 -0.0174
  122loPI   GL1 1941   6.647  11.851   9.794 -0.1596  0.2581 -0.1623
  122loPI   GL2 1942   6.798  12.068   9.980  0.2092  0.2279  0.0931
  122loPI   C1A 1943   6.726  11.803   9.359  0.1191 -0.4604  0.0400
  122loPI   C2A 1944   6.800  11.788   8.839  0.0079  0.1257  0.0716
  122loPI   C3A 1945   6.772  11.716   8.315 -0.0492  0.2361 -0.0573
  122loPI   C4A 1946   7.035  11.694   8.032 -0.1296  0.0034  0.1139
  122loPI   C5A 1947   7.229  11.775   7.720  0.0277 -0.1581  0.1018
  122loPI   C6A 1948   7.233  11.966   7.258 -0.0478 -0.2202  0.1838
  122loPI   C1B 1949   7.027  12.194   9.684  0.2816  0.0254  0.2110
  122loPI   C2B 1950   7.072  12.138   9.212  0.1721  0.2280 -0.2827
  122loPI   C3B 1951   6.968  12.293   8.788 -0.0562  0.2260 -0.0451
  122loPI   C4B 1952   6.967  12.134   8.398 -0.0467  0.1132 -0.2454
  123loPI    C1 1953   8.398  10.624  10.878  0.1434 -0.0826 -0.4064
  123loPI    C2 1954   8.125  10.756  10.617  0.0673  0.1801 -0.1984
  123loPI    C3 1955   8.125  10.893  10.993  0.0452 -0.3478  0.0020
  123loPI   PO4 1956   8.637  10.721  10.733  0.0019 -0.0974 -0.0259
  123loPI   GL1 1957   8.886  10.719  10.322 -0.1089  0.0769 -0.0846
  123loPI   GL2 1958   9.233  10.754  10.269 -0.2199 -0.2283  0.3050
  123loPI   C1A 1959   8.825  10.702   9.869 -0.1820 -0.0916  0.2556
  123loPI   C2A 1960   8.761  10.744   9.385 -0.0951 -0.2291 -0.2561
  123loPI   C3A 1961   8.791  10.641   8.946  0.0430 -0.0188  0.1181
  123loPI   C4A 1962   8.755  10.713   8.544  0.1174 -0.1036  0.3704
  123loPI   C5A 1963   8.822  10.897   8.200  0.0132  0.1490  0.1586
  123loPI   C6A 1964   8.994  10.834   7.773 -0.1868 -0.1988  0.0725
  123loPI   C1B 1965   9.279  10.706   9.816 -0.1961 -0.0925 -0.0672
  123loPI   C2B 1966   9.234  10.659   9.352 -0.0252  0.0770  0.2128
  123loPI   C3B 1967   9.336  10.712   8.993 -0.3687 -0.3800 -0.3382
  123loPI   C4B 1968   9.225  10.666   8.586 -0.0858 -0.5546 -0.0428
  124loPI    C1 1969  15.799   1.945  10.444  0.0536  0.2098  0.0087
  124loPI    C2 1970  15.882   2.011  10.830  0.0741  0.2767 -0.0069
  124loPI    C3 1971  16.090   2.200  10.546  0.1328  0.1447 -0.0529
  124loPI   PO4 1972  15.545   1.942  10.396 -0.1229 -0.1643  0.3624
  124loPI   GL1 1973  15.439   1.969  10.045 -0.0412 -0.0489 -0.0944
  124loPI   GL2 1974  15.318   1.658   9.979 -0.3358 -0.0522  0.1602
  124loPI   C1A 1975  15.143   2.116   9.690 -0.0687  0.0598 -0.1281
  124loPI   C2A 1976  15.161   2.078   9.270  0.1389 -0.0852 -0.1823
  124loPI   C3A 1977  15.287   1.969   8.911  0.1220  0.2367  0.3190
  124loPI   C4A 1978  15.373   2.082   8.466  0.2310 -0.0817 -0.3476
  124loPI   C5A 1979  15.566   1.945   8.081 -0.0910 -0.0532  0.0613
  124loPI   C6A 1980  15.768   1.739   7.737  0.0322 -0.0643  0.0363
  124loPI   C1B 1981  15.392   1.643   9.621 -0.2135  0.1758  0.1382
  124loPI   C2B 1982  15.498   1.614   9.129  0.1452  0.2770 -0.1857
  124loPI   C3B 1983  15.540   1.616   8.735  0.1486  0.2258 -0.0953
  124loPI   C4B 1984  15.650   1.656   8.460  0.0821 -0.2166 -0.3567
  125loPI    C1 1985  13.560  14.894  11.473 -0.2290 -0.0697  0.1297
  125loPI    C2 1986  13.379  15.246  11.532 -0.1031 -0.0274  0.2707
  125loPI    C3 1987  13.518  15.037  11.844  0.1897 -0.0058  0.1574
  125loPI   PO4 1988  13.423  14.769  11.266 -0.1798 -0.1335  0.1179
  125loPI   GL1 1989  13.092  14.781  10.922  0.3907  0.0717  0.2981
  125loPI   GL2 1990  12.803  14.759  10.897  0.4465 -0.0700  0.0545
  125loPI   C1A 1991  13.120  14.888  10.452  0.0971  0.0056  0.2257
  125loPI   C2A 1992  13.129  15.019  10.017  0.0803  0.0256 -0.1162
  125loPI   C3A 1993  13.112  15.167   9.573 -0.0165  0.1858 -0.2915
  125loPI   C4A 1994  13.254  14.984   9.168 -0.1440  0.0981  0.1327
  125loPI   C5A 1995  13.081  14.806   8.780  0.1033  0.0031 -0.1732
  125loPI   C6A 1996  12.687  14.940   8.448 -0.0234  0.1075  0.1331
  125loPI   C1B 1997  12.699  14.622  10.519  0.1730 -0.0395  0.1570
  125loPI   C2B 1998  12.839  14.607  10.095 -0.0374  0.0447  0.5492
  125loPI   C3B 1999  12.929  14.708   9.634 -0.0205  0.0515  0.0567
  125loPI   C4B 2000  12.867  14.634   9.161 -0.0560 -0.3165 -0.2490
  126loPI    C1 2001   9.893   7.264  10.967  0.0472  0.0943 -0.1115
  126loPI    C2 2002   9.597   7.097  10.757  0.0974  0.0478 -0.1454
  126loPI    C3 2003   9.566   7.476  10.880  0.1354  0.1262 -0.3726
  126loPI   PO4 2004  10.092   7.245  10.844 -0.0650  0.1942 -0.1705
  126loPI   GL1 2005  10.269   7.114  10.473  0.0250 -0.0018  0.1115
  126loPI   GL2 2006   9.995   6.937  10.418 -0.1285 -0.2281  0.2175
  126loPI   C1A 2007  10.646   6.966  10.225  0.0120 -0.2133  0.2468
  126loPI   C2A 2008  10.659   6.927   9.828  0.1769 -0.0664 -0.2328
  126loPI   C3A 2009  10.734   6.971   9.324  0.0142  0.0962 -0.1749
  126loPI   C4A 2010  10.695   7.046   8.934  0.0621  0.1130  0.0608
  126loPI   C5A 2011  10.604   6.850   8.548  0.1197  0.2245  0.0098
  126loPI   C6A 2012  10.427   6.724   8.155 -0.0564  0.2665  0.2117
  126loPI   C1B 2013  10.128   6.933  10.024  0.0549 -0.1170  0.2331
  126loPI   C2B 2014  10.210   6.849   9.651 -0.0222  0.1705 -0.1553
  126loPI   C3B 2015  10.225   7.008   9.251 -0.2116 -0.1055  0.1841
  126loPI   C4B 2016  10.260   7.079   8.801 -0.2313  0.1465  0.1773
  127loPI    C1 2017  14.265  17.636  11.265  0.1011  0.0994  0.2537
  127loPI    C2 2018  14.001  17.916  11.370 -0.2837 -0.1196 -0.0987
  127loPI    C3 2019  13.931  17.532  11.459  0.0260 -0.1571 -0.0056
  127loPI   PO4 2020  14.355  17.720  10.991  0.0651 -0.0488 -0.0741
  127loPI   GL1 2021  14.601  17.600  10.666 -0.1275 -0.0732  0.0716
  127loPI   GL2 2022  14.482  17.295  10.626  0.2172 -0.2377 -0.1658
  127loPI   C1A 2023  14.433  17.799  10.191  0.0125  0.0376  0.1144
  127loPI   C2A 2024  14.342  17.724   9.723 -0.1327  0.0899  0.0246
  127loPI   C3A 2025  14.396  17.715   9.332  0.2528  0.0158  0.1830
  127loPI   C4A 2026  14.368  17.778   8.904 -0.0147  0.3129 -0.2067
  127loPI   C5A 2027  14.505  17.676   8.587 -0.1980 -0.1108 -0.1344
  127loPI   C6A 2028  14.865  17.767   8.336  0.4048 -0.3054 -0.0463
  127loPI   C1B 2029  14.637  17.309  10.274  0.0572  0.0562 -0.1700
  127loPI   C2B 2030  14.707  17.354   9.883  0.1193  0.1933  0.1029
  127loPI   C3B 2031  14.718  17.290   9.462 -0.3196 -0.4308  0.1280
  127loPI   C4B 2032  14.635  17.302   8.968 -0.0561 -0.1533  0.0492
  128loPI    C1 2033   7.402  13.735  11.027  0.1600 -0.0106  0.0686
  128loPI    C2 2034   7.392  13.559  11.386 -0.0329  0.3160  0.2288
  128loPI    C3 2035   7.737  13.702  11.242  0.0830  0.0074  0.1924
  128loPI   PO4 2036   7.294  13.580  10.875 -0.2125  0.1984 -0.1232
  128loPI   GL1 2037   7.181  13.552  10.393  0.0409  0.2014  0.0492
  128loPI   GL2 2038   6.901  13.578  10.570 -0.2111 -0.0569 -0.1904
  128loPI   C1A 2039   7.112  13.486  10.022 -0.0283 -0.1592  0.1037
  128loPI   C2A 2040   7.191  13.523   9.620  0.2197 -0.0931  0.0308
  128loPI   C3A 2041   7.340  13.631   9.159 -0.2113 -0.1278  0.1868
  128loPI   C4A 2042   7.180  13.573   8.723  0.0969 -0.0669 -0.4449
  128loPI   C5A 2043   6.904  13.508   8.373 -0.0755  0.2592 -0.1201
  128loPI   C6A 2044   6.990  13.668   7.973  0.0115 -0.2355 -0.0509
  128loPI   C1B 2045   6.654  13.635  10.166 -0.0665 -0.1726 -0.0311
  128loPI   C2B 2046   6.675  13.662   9.754  0.0044 -0.1817  0.2885
  128loPI   C3B 2047   6.788  13.692   9.286 -0.1694 -0.2577 -0.3134
  128loPI   C4B 2048   6.727  13.732   8.924 -0.0673 -0.0220 -0.1428
  129loPI    C1 2049  10.115  14.251  11.188  0.1120  0.1220  0.0785
  129loPI    C2 2050  10.064  14.074  11.544 -0.0003  0.1040  0.0539
  129loPI    C3 2051   9.887  14.425  11.467  0.0481  0.1225  0.0261
  129loPI   PO4 2052  10.352  14.248  11.124  0.0412 -0.0554 -0.5264
  129loPI   GL1 2053  10.547  14.427  10.812  0.1252  0.3189 -0.0156
  129loPI   GL2 2054  10.806  14.713  10.794 -0.0248 -0.0943  0.0161
  129loPI   C1A 2055  10.354  14.366  10.349 -0.2734  0.0694 -0.0621
  129loPI   C2A 2056  10.389  14.336   9.879  0.1406  0.1188  0.1645
  129loPI   C3A 2057  10.425  14.348   9.449 -0.0901  0.5158  0.2531
  129loPI   C4A 2058  10.531  14.294   9.139  0.1734  0.2275 -0.1350
  129loPI   C5A 2059  10.622  14.497   8.789  0.1108 -0.1573 -0.1231
  129loPI   C6A 2060  10.550  14.767   8.390  0.1153  0.2092 -0.0959
  129loPI   C1B 2061  10.726  14.751  10.350  0.0086 -0.1084  0.1064
  129loPI   C2B 2062  10.730  14.774   9.927  0.0883 -0.0989 -0.1932
  129loPI   C3B 2063  10.799  14.697   9.501 -0.3581 -0.0604 -0.1178
  129loPI   C4B 2064  10.826  14.785   9.172 -0.1112  0.0182  0.3563
  130loPI    C1 2065   3.005  13.919  10.788 -0.0669 -0.2778  0.1718
  130loPI    C2 2066   3.100  13.546  10.896  0.1765 -0.2806 -0.0430
  130loPI    C3 2067   3.376  13.835  10.911  0.0441 -0.1514 -0.0701
  130loPI   PO4 2068   2.980  13.868  10.506  0.0339 -0.0817 -0.0397
  130loPI   GL1 2069   2.777  14.057  10.141  0.1524 -0.2068 -0.0360
  130loPI   GL2 2070   3.029  14.256  10.089 -0.2234 -0.2063  0.1246
  130loPI   C1A 2071   2.767  14.211   9.672 -0.1160  0.0191  0.1125
  130loPI   C2A 2072   2.788  14.153   9.215  0.3899  0.1932 -0.1343
  130loPI   C3A 2073   2.832  14.320   8.802 -0.1136 -0.1252 -0.6814
  130loPI   C4A 2074   2.902  14.247   8.435 -0.2525  0.1821 -0.0240
  130loPI   C5A 2075   3.142  14.047   8.145 -0.0927 -0.2659 -0.0252
  130loPI   C6A 2076   3.354  13.939   7.765  0.0476  0.0013 -0.1361
  130loPI   C1B 2077   3.296  14.225   9.793  0.1614  0.1203  0.2217
  130loPI   C2B 2078   3.283  14.256   9.331  0.3984 -0.1782  0.1054
  130loPI   C3B 2079   3.428  14.192   8.933  0.2450 -0.0945  0.1821
  130loPI   C4B 2080   3.417  14.285   8.499  0.2340 -0.0841  0.2018
  131loPI    C1 2081  15.040   0.006  11.412  0.3534  0.1361 -0.1641
  131loPI    C2 2082  15.256  -0.149  11.711  0.1193  0.1341  0.0063
  131loPI    C3 2083  15.127   0.229  11.733  0.0132  0.1012 -0.0439
  131loPI   PO4 2084  15.200  -0.067  11.186 -0.0654  0.3237  0.0968
  131loPI   GL1 2085  15.295   0.064  10.787  0.1960 -0.4368 -0.0169
  131loPI   GL2 2086  15.097  -0.149  10.640 -0.1730  0.3093 -0.0930
  131loPI   C1A 2087  15.139   0.273  10.472 -0.1297  0.1320  0.1411
  131loPI   C2A 2088  15.209   0.272  10.083  0.0572  0.3093  0.0958
  131loPI   C3A 2089  15.189   0.332   9.641  0.1954 -0.2122  0.1263
  131loPI   C4A 2090  15.256   0.188   9.223  0.3285 -0.1101  0.2173
  131loPI   C5A 2091  15.221   0.212   8.784  0.1520 -0.2106  0.1918
  131loPI   C6A 2092  14.924   0.345   8.427  0.3111 -0.0089 -0.2543
  131loPI   C1B 2093  14.947  -0.291  10.271 -0.0536 -0.0758  0.1579
  131loPI   C2B 2094  14.937  -0.144   9.800  0.0777 -0.1049 -0.1203
  131loPI   C3B 2095  14.895  -0.164   9.377  0.2935 -0.0895  0.2765
  131loPI   C4B 2096  14.879  -0.149   8.979 -0.2622  0.0481  0.4188
  132loPI    C1 2097   4.056  11.563  10.171 -0.0669 -0.0193 -0.3338
  132loPI    C2 2098   4.333  11.483   9.893  0.2605  0.0605 -0.0376
  132loPI    C3 2099   4.406  11.402  10.278 -0.2248 -0.1380  0.0204
  132loPI   PO4 2100   4.038  11.811  10.126 -0.2256  0.2531 -0.0382
  132loPI   GL1 2101   4.168  11.922   9.673 -0.0742  0.0374 -0.1581
  132loPI   GL2 2102   4.495  11.825   9.630  0.1422 -0.2994  0.1674
  132loPI   C1A 2103   4.152  11.845   9.241  0.2301  0.1763 -0.2661
  132loPI   C2A 2104   4.197  11.957   8.753  0.1046 -0.0828 -0.1455
  132loPI   C3A 2105   4.101  11.970   8.386  0.0949 -0.0158 -0.0327
  132loPI   C4A 2106   4.074  11.787   7.960 -0.1213 -0.0593 -0.1994
  132loPI   C5A 2107   4.397  11.830   7.643  0.2679 -0.2418 -0.0935
  132loPI   C6A 2108   4.645  11.628   7.340  0.1244 -0.0433  0.1707
  132loPI   C1B 2109   4.713  11.851   9.226 -0.1029 -0.0180 -0.1702
  132loPI   C2B 2110   4.738  11.949   8.789  0.0220  0.2100  0.0339
  132loPI   C3B 2111   4.670  11.920   8.384 -0.1027  0.2102  0.2383
  132loPI   C4B 2112   4.731  12.018   7.970 -0.0736  0.1370  0.0317
  133loPI    C1 2113  12.376  11.231  11.156  0.0510  0.1109 -0.0408
  133loPI    C2 2114  12.553  11.221  11.515  0.0549  0.2168 -0.0392
  133loPI    C3 2115  12.206  11.414  11.468  0.0451  0.1876 -0.0885
  133loPI   PO4 2116  12.608  11.090  10.949  0.0634 -0.0924  0.3458
  133loPI   GL1 2117  12.650  11.061  10.515  0.0909 -0.0209 -0.1679
  133loPI   GL2 2118  12.326  11.086  10.507  0.3210  0.2158  0.0659
  133loPI   C1A 2119  12.716  11.012  10.123 -0.0681 -0.1026 -0.0627
  133loPI   C2A 2120  12.701  10.929   9.726  0.1818  0.2313  0.0261
  133loPI   C3A 2121  12.799  10.944   9.242  0.1711 -0.0931 -0.2560
  133loPI   C4A 2122  12.802  11.176   8.929  0.0168  0.2422 -0.3340
  133loPI   C5A 2123  12.655  11.085   8.511  0.0514  0.0918  0.2909
  133loPI   C6A 2124  12.851  10.925   8.133  0.1096 -0.1532 -0.1849
  133loPI   C1B 2125  12.224  11.051  10.031  0.1119 -0.0960 -0.0951
  133loPI   C2B 2126  12.189  10.904   9.672 -0.1558  0.1576 -0.3032
  133loPI   C3B 2127  12.274  10.993   9.249  0.0397 -0.1367 -0.2129
  133loPI   C4B 2128  12.260  11.159   8.877  0.4666 -0.3260  0.1562
  134loPI    C1 2129  17.539  14.519  11.153 -0.0860  0.1382 -0.0251
  134loPI    C2 2130  17.235  14.689  10.956 -0.1522  0.2105  0.1378
  134loPI    C3 2131  17.372  14.854  11.293  0.2061  0.2938 -0.0440
  134loPI   PO4 2132  17.520  14.261  10.978 -0.3524 -0.0964  0.1848
  134loPI   GL1 2133  17.268  14.194  10.621 -0.1932 -0.0756 -0.0844
  134loPI   GL2 2134  17.394  14.029  10.458 -0.0645  0.2064 -0.0944
  134loPI   C1A 2135  17.066  14.394  10.303  0.2925 -0.1485 -0.1059
  134loPI   C2A 2136  16.986  14.455   9.877 -0.0925  0.5176 -0.1302
  134loPI   C3A 2137  17.164  14.471   9.505  0.2315 -0.1926 -0.0712
  134loPI   C4A 2138  17.160  14.463   9.055 -0.4098 -0.1672  0.2013
  134loPI   C5A 2139  17.209  14.724   8.650  0.3015  0.2834 -0.0416
  134loPI   C6A 2140  16.856  14.911   8.425 -0.2019  0.0481  0.2759
  134loPI   C1B 2141  17.397  14.098   9.995 -0.0208  0.2290 -0.3258
  134loPI   C2B 2142  17.381  14.014   9.514 -0.0697  0.2150  0.1938
  134loPI   C3B 2143  17.399  13.947   9.073  0.0377  0.1027 -0.2088
  134loPI   C4B 2144  17.396  14.078   8.752 -0.2191  0.2625 -0.0925
  135loPI    C1 2145  12.966  11.819  11.064  0.1906 -0.0208 -0.0829
  135loPI    C2 2146  12.968  11.421  11.105  0.0649 -0.0263 -0.1247
  135loPI    C3 2147  12.641  11.630  11.202  0.1217  0.0643 -0.1275
  135loPI   PO4 2148  13.115  11.937  10.901  0.1028  0.1516 -0.1446
  135loPI   GL1 2149  13.033  11.851  10.440 -0.0506  0.0003 -0.2211
  135loPI   GL2 2150  12.807  11.576  10.611  0.0220  0.0115 -0.1537
  135loPI   C1A 2151  13.311  11.903  10.023  0.4175  0.3277  0.0060
  135loPI   C2A 2152  13.348  11.884   9.643  0.1995  0.2631 -0.2261
  135loPI   C3A 2153  13.310  11.968   9.257  0.0395 -0.4051  0.0255
  135loPI   C4A 2154  13.408  11.950   8.868 -0.1956  0.0729 -0.0395
  135loPI   C5A 2155  13.287  11.711   8.527  0.1772 -0.1737 -0.2173
  135loPI   C6A 2156  13.149  11.193   8.537  0.1120  0.1526 -0.5017
  135loPI   C1B 2157  12.863  11.457  10.170  0.2164  0.2309 -0.5572
  135loPI   C2B 2158  13.068  11.448   9.728 -0.0349 -0.0601 -0.1179
  135loPI   C3B 2159  13.041  11.439   9.300 -0.0817  0.0041 -0.1987
  135loPI   C4B 2160  13.107  11.604   8.961  0.2431 -0.1191 -0.0681
  136loPI    C1 2161   3.121   7.581  10.530 -0.2361  0.1570 -0.0468
  136loPI    C2 2162   3.226   7.368  10.852 -0.3532 -0.0598 -0.1494
  136loPI    C3 2163   3.203   7.767  10.875  0.0194 -0.0425  0.0033
  136loPI   PO4 2164   2.932   7.440  10.427 -0.1754 -0.1039  0.2728
  136loPI   GL1 2165   2.727   7.372  10.011 -0.0001  0.0954 -0.0310
  136loPI   GL2 2166   3.000   7.403   9.905  0.0228 -0.0973  0.2093
  136loPI   C1A 2167   2.404   7.277   9.671  0.2412 -0.0126  0.0355
  136loPI   C2A 2168   2.305   7.369   9.278 -0.1663  0.1405 -0.1916
  136loPI   C3A 2169   2.382   7.400   8.911  0.0581 -0.2688  0.1306
  136loPI   C4A 2170   2.252   7.394   8.444 -0.2212  0.1373 -0.2616
  136loPI   C5A 2171   2.315   7.382   7.954  0.3179 -0.0161  0.1547
  136loPI   C6A 2172   2.734   7.145   7.779 -0.0005 -0.0374 -0.0456
  136loPI   C1B 2173   2.837   7.354   9.504  0.0194 -0.2884 -0.0163
  136loPI   C2B 2174   2.866   7.420   9.082  0.1446  0.0155  0.2000
  136loPI   C3B 2175   2.829   7.457   8.681  0.2244  0.0928 -0.2185
  136loPI   C4B 2176   2.706   7.468   8.192  0.0237  0.2848 -0.1491
  137loPI    C1 2177  10.697  16.496  10.938 -0.1605  0.0315  0.0009
  137loPI    C2 2178  10.543  16.562  11.301  0.0979 -0.0844  0.1343
  137loPI    C3 2179  10.940  16.555  11.250  0.0636 -0.0618 -0.1532
  137loPI   PO4 2180  10.525  16.582  10.787  0.1147  0.0231  0.1289
  137loPI   GL1 2181  10.417  16.839  10.566 -0.2776 -0.0211 -0.1196
  137loPI   GL2 2182  10.320  17.095  10.613  0.0889  0.1040 -0.0499
  137loPI   C1A 2183  10.329  16.748  10.120 -0.2383  0.3506 -0.4311
  137loPI   C2A 2184  10.314  16.625   9.794  0.0457 -0.1349  0.1480
  137loPI   C3A 2185  10.408  16.653   9.469  0.1390 -0.0705 -0.2867
  137loPI   C4A 2186  10.497  16.635   9.087 -0.3681 -0.3413  0.0060
  137loPI   C5A 2187  10.372  16.575   8.693 -0.1569 -0.3238 -0.0511
  137loPI   C6A 2188  10.275  16.729   8.318 -0.1577  0.1264 -0.1836
  137loPI   C1B 2189  10.084  17.268  10.314  0.0250  0.3299  0.1275
  137loPI   C2B 2190  10.142  17.206   9.956  0.1827  0.1046  0.1719
  137loPI   C3B 2191  10.168  17.131   9.539  0.2487 -0.1282  0.1261
  137loPI   C4B 2192  10.266  17.158   9.152 -0.0609 -0.2200 -0.0467
  138loPI    C1 2193   0.228   7.888  10.528  0.0430 -0.0766 -0.1267
  138loPI    C2 2194   0.111   8.120  10.832  0.0750 -0.1260 -0.0764
  138loPI    C3 2195   0.435   7.889  10.870  0.1053 -0.0984 -0.1642
  138loPI   PO4 2196   0.107   7.959  10.341 -0.0688  0.0945 -0.0282
  138loPI   GL1 2197   0.219   8.136   9.945  0.1066 -0.0807 -0.5189
  138loPI   GL2 2198  -0.089   8.287  10.031 -0.0100 -0.1637 -0.2154
  138loPI   C1A 2199   0.052   8.132   9.552  0.3525  0.0571 -0.1245
  138loPI   C2A 2200  -0.140   8.091   9.141 -0.1178 -0.2833  0.1865
  138loPI   C3A 2201  -0.078   7.896   8.734  0.2274  0.1298  0.0363
  138loPI   C4A 2202  -0.151   7.921   8.265  0.0020 -0.0793  0.4278
  138loPI   C5A 2203  -0.469   7.930   8.087  0.0442  0.1451  0.3207
  138loPI   C6A 2204  -0.869   7.923   8.141  0.0539  0.1611 -0.3357
  138loPI   C1B 2205  -0.416   8.278   9.846 -0.1046 -0.3840 -0.2202
  138loPI   C2B 2206  -0.502   8.166   9.471 -0.3070  0.1053  0.1398
  138loPI   C3B 2207  -0.622   8.065   9.064 -0.0832 -0.1531  0.2181
  138loPI   C4B 2208  -0.607   7.988   8.673 -0.0752 -0.1135 -0.2480
  139loPI    C1 2209  13.482  17.313  11.143  0.0504 -0.0059 -0.1713
  139loPI    C2 2210  13.269  17.038  11.340  0.2530 -0.1519 -0.1524
  139loPI    C3 2211  13.505  17.291  11.541  0.0311  0.0702 -0.1658
  139loPI   PO4 2212  13.321  17.424  10.855 -0.1779  0.3948 -0.0675
  139loPI   GL1 2213  13.406  17.651  10.527  0.1239 -0.6606 -0.0189
  139loPI   GL2 2214  13.460  17.366  10.347  0.1257 -0.0578 -0.0751
  139loPI   C1A 2215  13.475  17.892  10.114 -0.1699  0.2473 -0.3305
  139loPI   C2A 2216  13.303  17.786   9.724  0.3225  0.1356 -0.1682
  139loPI   C3A 2217  13.393  17.800   9.239  0.1345  0.0081 -0.0757
  139loPI   C4A 2218  13.415  17.815   8.782 -0.1659  0.2396 -0.1359
  139loPI   C5A 2219  13.562  17.883   8.424 -0.0206  0.0472 -0.2451
  139loPI   C6A 2220  13.703  18.181   8.183  0.0981 -0.3599 -0.0911
  139loPI   C1B 2221  13.445  17.377   9.927 -0.1766 -0.1277 -0.0356
  139loPI   C2B 2222  13.514  17.408   9.481 -0.0339  0.1745 -0.0631
  139loPI   C3B 2223  13.655  17.367   9.053 -0.1330 -0.3793  0.1276
  139loPI   C4B 2224  13.820  17.435   8.650 -0.4196 -0.3156  0.0126
  140loPI    C1 2225   7.628   8.931  10.459 -0.0842  0.0915 -0.2734
  140loPI    C2 2226   7.623   8.876  10.856  0.0615  0.0353 -0.2787
  140loPI    C3 2227   7.432   9.189  10.694 -0.0080  0.0519 -0.1655
  140loPI   PO4 2228   7.761   8.641  10.336 -0.2365  0.2618 -0.4025
  140loPI   GL1 2229   7.723   8.459   9.909  0.2202  0.1280  0.1484
  140loPI   GL2 2230   7.608   8.149   9.813  0.1808  0.0574  0.2620
  140loPI   C1A 2231   7.929   8.451   9.530  0.1760 -0.0087  0.0719
  140loPI   C2A 2232   7.889   8.322   9.149 -0.1892 -0.0328 -0.2165
  140loPI   C3A 2233   7.966   8.374   8.698  0.0770 -0.1004 -0.0752
  140loPI   C4A 2234   7.843   8.466   8.411 -0.2890  0.0318  0.0792
  140loPI   C5A 2235   7.815   8.332   7.970  0.1148  0.1812  0.0683
  140loPI   C6A 2236   7.742   8.230   7.621 -0.0812  0.1706 -0.3846
  140loPI   C1B 2237   7.597   7.944   9.362 -0.1648  0.0913  0.2350
  140loPI   C2B 2238   7.708   7.899   8.896 -0.0942 -0.0051  0.0271
  140loPI   C3B 2239   7.853   7.869   8.522 -0.1145  0.3787  0.2067
  140loPI   C4B 2240   8.223   8.096   8.352  0.2261  0.0285  0.0037
  141loPI    C1 2241   3.244  12.489   9.918 -0.0537  0.2510 -0.1137
  141loPI    C2 2242   3.203  12.530  10.314  0.0645  0.0031 -0.0743
  141loPI    C3 2243   2.980  12.750  10.066  0.0591  0.2299  0.1291
  141loPI   PO4 2244   3.438  12.250   9.967 -0.1723  0.0443 -0.0447
  141loPI   GL1 2245   3.672  12.085   9.728  0.2057 -0.2597  0.3829
  141loPI   GL2 2246   3.693  11.811   9.590  0.0715  0.1228 -0.0731
  141loPI   C1A 2247   3.880  12.273   9.386 -0.0049  0.0195  0.0720
  141loPI   C2A 2248   3.993  12.366   9.046  0.3191 -0.1846  0.0696
  141loPI   C3A 2249   3.973  12.408   8.674 -0.4926  0.0284  0.0359
  141loPI   C4A 2250   3.827  12.437   8.238  0.3881  0.0910 -0.2150
  141loPI   C5A 2251   3.502  12.623   7.922  0.5246  0.2688  0.0476
  141loPI   C6A 2252   3.238  12.583   7.476  0.0731 -0.0806  0.2209
  141loPI   C1B 2253   3.616  11.866   9.286  0.4537 -0.1969 -0.0793
  141loPI   C2B 2254   3.665  11.838   8.883 -0.0674  0.2418 -0.0775
  141loPI   C3B 2255   3.631  11.872   8.496  0.1020  0.5165 -0.4868
  141loPI   C4B 2256   3.580  11.980   8.139  0.1824  0.3721  0.2282
  142loPI    C1 2257  12.362  17.364  11.056 -0.1144 -0.1726 -0.1452
  142loPI    C2 2258  12.458  17.722  11.206 -0.1286 -0.1283 -0.2406
  142loPI    C3 2259  12.482  17.395  11.436  0.0375 -0.0879 -0.1994
  142loPI   PO4 2260  12.174  17.434  10.895  0.0363 -0.0239 -0.0895
  142loPI   GL1 2261  12.176  17.458  10.488 -0.2058  0.1668 -0.3256
  142loPI   GL2 2262  12.535  17.493  10.501 -0.0140 -0.3491 -0.0552
  142loPI   C1A 2263  12.003  17.592  10.146 -0.0575 -0.0899  0.0047
  142loPI   C2A 2264  11.920  17.594   9.678  0.0212 -0.1936 -0.0048
  142loPI   C3A 2265  11.968  17.534   9.362 -0.0595  0.0871 -0.1484
  142loPI   C4A 2266  11.987  17.374   8.931 -0.4400 -0.0833 -0.0513
  142loPI   C5A 2267  11.949  17.430   8.551 -0.1251  0.2010  0.0106
  142loPI   C6A 2268  11.675  17.700   8.337  0.0071 -0.0794 -0.0035
  142loPI   C1B 2269  12.453  17.522   9.982  0.2221 -0.1405 -0.0311
  142loPI   C2B 2270  12.477  17.579   9.496  0.0667 -0.2024 -0.0581
  142loPI   C3B 2271  12.503  17.386   9.094  0.0883 -0.1755 -0.1498
  142loPI   C4B 2272  12.464  17.407   8.596 -0.0120 -0.0806 -0.3342
  143loPI    C1 2273   3.012  11.651  10.372  0.1059  0.0427  0.0569
  143loPI    C2 2274   3.277  11.951  10.376  0.3353 -0.1530 -0.1175
  143loPI    C3 2275   3.298  11.661  10.651  0.0207  0.0649  0.1437
  143loPI   PO4 2276   3.052  11.598  10.106  0.3562 -0.1548  0.1808
  143loPI   GL1 2277   3.294  11.315   9.816 -0.1307 -0.5194 -0.1340
  143loPI   GL2 2278   3.021  11.333   9.594 -0.1478 -0.0434  0.0110
  143loPI   C1A 2279   3.467  11.347   9.400 -0.0151  0.0502  0.0767
  143loPI   C2A 2280   3.396  11.402   9.100  0.4032  0.2053  0.3125
  143loPI   C3A 2281   3.358  11.426   8.712  0.3549 -0.0471  0.3536
  143loPI   C4A 2282   3.240  11.614   8.269  0.0582 -0.2026  0.0886
  143loPI   C5A 2283   3.156  11.842   7.854  0.1990 -0.4776  0.1223
  143loPI   C6A 2284   3.050  11.674   7.456 -0.0080  0.0847  0.1226
  143loPI   C1B 2285   2.914  11.379   9.231  0.1737  0.0662  0.0228
  143loPI   C2B 2286   2.810  11.356   8.797 -0.2018 -0.2109 -0.1491
  143loPI   C3B 2287   2.674  11.525   8.383 -0.0104  0.0915  0.1436
  143loPI   C4B 2288   2.690  11.661   7.918 -0.0717 -0.2999 -0.2806
  144loPI    C1 2289  13.289   1.528  10.914 -0.2779  0.1195  0.1184
  144loPI    C2 2290  13.656   1.611  11.051 -0.2455 -0.2914  0.2946
  144loPI    C3 2291  13.336   1.676  11.283 -0.2763 -0.0565  0.1896
  144loPI   PO4 2292  13.195   1.556  10.682  0.0065  0.2029  0.2107
  144loPI   GL1 2293  13.260   1.212  10.376 -0.0408  0.0085 -0.3490
  144loPI   GL2 2294  13.508   1.034  10.441  0.4244  0.0703  0.1470
  144loPI   C1A 2295  13.309   1.202   9.982 -0.3098 -0.1966  0.3749
  144loPI   C2A 2296  13.268   1.233   9.488 -0.0851 -0.1943 -0.1430
  144loPI   C3A 2297  13.138   1.203   9.104  0.1906 -0.1347 -0.0726
  144loPI   C4A 2298  13.157   1.296   8.669 -0.0997  0.0471  0.2943
  144loPI   C5A 2299  13.195   1.456   8.332 -0.0797  0.1761 -0.2819
  144loPI   C6A 2300  12.862   1.683   7.986 -0.0185  0.0207  0.0826
  144loPI   C1B 2301  13.395   0.723  10.132  0.0775  0.2632 -0.0655
  144loPI   C2B 2302  13.346   0.737   9.703 -0.2945  0.2333  0.1130
  144loPI   C3B 2303  13.407   0.725   9.340  0.0761 -0.2359 -0.0940
  144loPI   C4B 2304  13.412   0.711   8.848 -0.1757 -0.2495  0.0326
  145loPI    C1 2305  15.625   5.351  10.781  0.0003  0.0475  0.1188
  145loPI    C2 2306  15.762   5.121  10.483 -0.0194  0.0222  0.1291
  145loPI    C3 2307  16.002   5.216  10.788  0.0514  0.1836  0.0245
  145loPI   PO4 2308  15.474   5.524  10.773  0.5217 -0.0356 -0.0612
  145loPI   GL1 2309  15.160   5.608  10.456 -0.1249 -0.0224 -0.2875
  145loPI   GL2 2310  15.331   5.842  10.306 -0.0965 -0.0276  0.1404
  145loPI   C1A 2311  15.088   5.309  10.064 -0.2618 -0.1032 -0.3470
  145loPI   C2A 2312  15.087   5.345   9.633  0.4774 -0.1649  0.2088
  145loPI   C3A 2313  15.008   5.343   9.176  0.0078 -0.0492  0.2038
  145loPI   C4A 2314  14.822   5.090   8.811 -0.1604  0.1082 -0.2288
  145loPI   C5A 2315  14.909   4.774   8.562 -0.0598 -0.1004  0.3412
  145loPI   C6A 2316  14.736   4.347   8.604 -0.0532  0.0073 -0.1631
  145loPI   C1B 2317  15.556   5.505  10.101  0.3025 -0.0585  0.1892
  145loPI   C2B 2318  15.599   5.442   9.653 -0.1814  0.0883 -0.0390
  145loPI   C3B 2319  15.483   5.395   9.287  0.0110  0.1792 -0.1833
  145loPI   C4B 2320  15.611   5.404   8.895 -0.1382  0.1387  0.0312
  146loPI    C1 2321   9.350   6.102  11.044  0.2074  0.0954 -0.2981
  146loPI    C2 2322   9.385   6.433  11.267 -0.3093 -0.1091  0.1072
  146loPI    C3 2323   9.595   6.105  11.361  0.0283  0.0242 -0.1578
  146loPI   PO4 2324   9.351   6.252  10.724 -0.1795 -0.1368 -0.0122
  146loPI   GL1 2325   9.729   6.153  10.465 -0.1473  0.2685 -0.1791
  146loPI   GL2 2326   9.999   6.398  10.520 -0.1834  0.0952 -0.0248
  146loPI   C1A 2327   9.695   6.044  10.034  0.1480  0.0122 -0.0147
  146loPI   C2A 2328   9.699   6.046   9.591  0.0089  0.0895 -0.3529
  146loPI   C3A 2329   9.723   6.039   9.113  0.2351 -0.3050  0.0353
  146loPI   C4A 2330   9.842   6.179   8.696 -0.0312 -0.1067 -0.4199
  146loPI   C5A 2331   9.847   6.528   8.422  0.1859 -0.0186 -0.0867
  146loPI   C6A 2332  10.040   6.931   8.396 -0.2604 -0.2428 -0.0635
  146loPI   C1B 2333   9.952   6.470  10.131  0.0802 -0.2148 -0.1520
  146loPI   C2B 2334   9.944   6.445   9.753  0.1524 -0.0154 -0.2476
  146loPI   C3B 2335   9.928   6.479   9.372 -0.1310  0.1212 -0.0760
  146loPI   C4B 2336   9.990   6.648   8.930 -0.1533  0.0193  0.0151
  147loPI    C1 2337   7.944   2.262  11.547 -0.1108  0.0803  0.0510
  147loPI    C2 2338   7.784   2.052  11.847 -0.2980 -0.0422 -0.1316
  147loPI    C3 2339   7.729   2.447  11.829 -0.2964 -0.0362 -0.0118
  147loPI   PO4 2340   7.845   2.191  11.271  0.0218 -0.2232 -0.0198
  147loPI   GL1 2341   7.878   2.292  10.885  0.1034  0.0994  0.2083
  147loPI   GL2 2342   7.808   2.581  10.729  0.1345  0.1696  0.2738
  147loPI   C1A 2343   7.763   2.200  10.464 -0.0980 -0.1467 -0.1717
  147loPI   C2A 2344   7.621   2.169  10.098 -0.0619  0.0033  0.0682
  147loPI   C3A 2345   7.546   2.179   9.635 -0.1159 -0.2016  0.2244
  147loPI   C4A 2346   7.665   2.022   9.276  0.0594 -0.0152 -0.1101
  147loPI   C5A 2347   7.782   1.943   8.848  0.2823  0.0575 -0.2119
  147loPI   C6A 2348   7.907   2.088   8.467 -0.2485  0.1381  0.4259
  147loPI   C1B 2349   7.977   2.583  10.200  0.1721  0.1898 -0.0387
  147loPI   C2B 2350   7.867   2.578   9.739  0.3732 -0.1235  0.1088
  147loPI   C3B 2351   7.946   2.550   9.314  0.2437 -0.0044  0.2096
  147loPI   C4B 2352   8.035   2.460   8.909 -0.2405  0.1216  0.1767
  148loPI    C1 2353  16.547  14.646  11.362 -0.0214  0.3405 -0.1616
  148loPI    C2 2354  16.215  14.424  11.361  0.0905  0.1675  0.0759
  148loPI    C3 2355  16.250  14.730  11.616  0.1768  0.0865  0.1621
  148loPI   PO4 2356  16.689  14.562  11.138  0.2424  0.1404  0.2269
  148loPI   GL1 2357  16.691  14.571  10.709  0.0333  0.0311 -0.2742
  148loPI   GL2 2358  16.392  14.496  10.481 -0.1501  0.1515  0.1780
  148loPI   C1A 2359  16.797  14.913  10.350 -0.3181  0.0573  0.1193
  148loPI   C2A 2360  17.036  14.976  10.048  0.0347  0.1314  0.1819
  148loPI   C3A 2361  16.900  14.925   9.698  0.1694  0.2526 -0.1851
  148loPI   C4A 2362  16.814  14.848   9.242 -0.3461  0.0022 -0.2906
  148loPI   C5A 2363  16.850  15.046   8.889 -0.0594 -0.1191  0.0285
  148loPI   C6A 2364  16.668  15.436   8.687 -0.0592  0.2338 -0.0400
  148loPI   C1B 2365  16.558  14.532  10.108  0.1640 -0.0591 -0.3315
  148loPI   C2B 2366  16.592  14.429   9.608  0.1535 -0.1938  0.0537
  148loPI   C3B 2367  16.659  14.429   9.155 -0.1114 -0.0109 -0.4171
  148loPI   C4B 2368  16.657  14.505   8.707 -0.1395  0.1550  0.0772
  149loPI    C1 2369   5.807  14.316  10.470  0.1132  0.0579 -0.1336
  149loPI    C2 2370   5.832  14.705  10.380  0.0107  0.1011  0.0200
  149loPI    C3 2371   5.967  14.572  10.732 -0.2460  0.0494  0.1006
  149loPI   PO4 2372   5.529  14.274  10.340 -0.2096 -0.2061 -0.0825
  149loPI   GL1 2373   5.606  14.389  10.025 -0.1736  0.3587  0.0318
  149loPI   GL2 2374   5.241  14.472   9.875 -0.0067 -0.0412  0.0636
  149loPI   C1A 2375   5.697  14.536   9.601 -0.1113  0.2921  0.1723
  149loPI   C2A 2376   5.697  14.636   9.195  0.1316 -0.1681  0.1568
  149loPI   C3A 2377   5.798  14.609   8.764  0.3662 -0.0007  0.0140
  149loPI   C4A 2378   6.214  14.683   8.443  0.0985 -0.0682 -0.2868
  149loPI   C5A 2379   6.514  14.845   8.332 -0.0008 -0.1057 -0.3095
  149loPI   C6A 2380   6.988  14.947   8.349  0.1818 -0.3969 -0.1108
  149loPI   C1B 2381   5.219  14.491   9.392 -0.0352 -0.1129 -0.1072
  149loPI   C2B 2382   5.264  14.533   8.908 -0.2382 -0.2513  0.3525
  149loPI   C3B 2383   5.267  14.695   8.501  0.1676  0.1455 -0.0454
  149loPI   C4B 2384   5.632  14.661   8.201  0.2704  0.4260 -0.0593
  150loPI    C1 2385  16.488  14.046  11.180  0.2231  0.1606  0.0754
  150loPI    C2 2386  16.757  14.114  11.468  0.0789 -0.0745  0.2696
  150loPI    C3 2387  16.392  13.980  11.563  0.0271 -0.1467 -0.0230
  150loPI   PO4 2388  16.418  14.130  10.995  0.3317 -0.2866  0.0583
  150loPI   GL1 2389  16.108  14.101  10.671  0.0521  0.1223 -0.0769
  150loPI   GL2 2390  15.788  14.011  10.589 -0.0508 -0.0140 -0.0252
  150loPI   C1A 2391  16.338  14.048  10.328  0.1462  0.1218  0.2342
  150loPI   C2A 2392  16.371  14.059   9.951 -0.0354 -0.0157  0.0681
  150loPI   C3A 2393  16.299  13.977   9.553 -0.0811 -0.0291  0.1638
  150loPI   C4A 2394  16.347  14.003   9.126  0.2415 -0.1654 -0.1561
  150loPI   C5A 2395  16.261  14.111   8.712 -0.0203 -0.2311 -0.0559
  150loPI   C6A 2396  16.257  14.282   8.334  0.2366  0.0292 -0.0457
  150loPI   C1B 2397  15.859  14.037  10.134  0.4675 -0.0403  0.1061
  150loPI   C2B 2398  15.850  14.042   9.750 -0.2185 -0.0580  0.1836
  150loPI   C3B 2399  15.817  14.096   9.367  0.3825 -0.0033  0.2259
  150loPI   C4B 2400  15.811  14.056   8.910  0.0887 -0.1528 -0.0129
  151loPI    C1 2401  13.848  17.629  10.953  0.0162  0.0897 -0.1320
  151loPI    C2 2402  13.793  17.320  10.705 -0.1531 -0.0128  0.0310
  151loPI    C3 2403  14.078  17.303  10.985 -0.2454 -0.0750  0.1223
  151loPI   PO4 2404  13.728  17.823  10.880  0.4881  0.0575 -0.0058
  151loPI   GL1 2405  13.824  18.099  10.575  0.2138  0.2234 -0.2146
  151loPI   GL2 2406  13.699  18.390  10.438 -0.1025 -0.3287 -0.2726
  151loPI   C1A 2407  13.972  17.926  10.164  0.1581  0.3029 -0.0580
  151loPI   C2A 2408  13.933  17.876   9.852 -0.2688 -0.0722  0.1118
  151loPI   C3A 2409  13.910  17.714   9.392 -0.0302  0.1056 -0.1279
  151loPI   C4A 2410  13.882  17.833   8.925 -0.0310  0.0292 -0.0205
  151loPI   C5A 2411  14.090  18.041   8.550 -0.2837  0.2844 -0.0982
  151loPI   C6A 2412  14.144  18.348   8.206 -0.1594  0.1551  0.4092
  151loPI   C1B 2413  13.735  18.357  10.009  0.2786 -0.1956 -0.3599
  151loPI   C2B 2414  13.619  18.175   9.561 -0.1162  0.0769  0.0581
  151loPI   C3B 2415  13.636  18.241   9.112  0.4458 -0.0199 -0.1244
  151loPI   C4B 2416  13.723  18.303   8.741 -0.2429  0.1561 -0.3826
  152loPI    C1 2417   7.958   6.021  11.010 -0.2344 -0.0450 -0.0791
  152loPI    C2 2418   7.692   6.239  11.215  0.1469  0.2732  0.0894
  152loPI    C3 2419   8.016   6.093  11.400  0.1857  0.0446 -0.1536
  152loPI   PO4 2420   7.965   6.034  10.821  0.0269 -0.0781 -0.0626
  152loPI   GL1 2421   7.912   6.144  10.412  0.0354 -0.0002  0.2978
  152loPI   GL2 2422   7.627   5.997  10.257  0.0706  0.0882 -0.2202
  152loPI   C1A 2423   8.092   6.077  10.001 -0.0421  0.2915 -0.2904
  152loPI   C2A 2424   8.081   6.115   9.495 -0.2195  0.1224 -0.1351
  152loPI   C3A 2425   8.108   6.143   8.988  0.0303  0.2980 -0.0261
  152loPI   C4A 2426   8.166   6.078   8.536 -0.2142  0.0519 -0.0944
  152loPI   C5A 2427   7.969   5.879   8.153  0.4310 -0.1990  0.1813
  152loPI   C6A 2428   7.596   5.912   7.977  0.0714  0.1369  0.3411
  152loPI   C1B 2429   7.643   6.191   9.855  0.1350 -0.1626  0.1520
  152loPI   C2B 2430   7.576   6.162   9.433 -0.0740 -0.1535 -0.0853
  152loPI   C3B 2431   7.574   6.119   8.964 -0.1248  0.2825 -0.1932
  152loPI   C4B 2432   7.679   5.949   8.574 -0.1895 -0.1277 -0.0446
  153loPI    C1 2433   4.578   9.927  10.343 -0.0404  0.4508  0.0701
  153loPI    C2 2434   4.610   9.877  10.739  0.0456  0.1003  0.0225
  153loPI    C3 2435   4.912  10.039  10.533 -0.0507  0.4052  0.1157
  153loPI   PO4 2436   4.550   9.679  10.098  0.1507  0.1583  0.0334
  153loPI   GL1 2437   4.536   9.709   9.685  0.1806  0.0541 -0.1199
  153loPI   GL2 2438   4.427   9.848   9.300 -0.0830 -0.1798  0.0964
  153loPI   C1A 2439   4.923   9.598   9.483 -0.0380 -0.1066  0.2605
  153loPI   C2A 2440   4.863   9.726   9.046 -0.1147  0.0693  0.0344
  153loPI   C3A 2441   4.956   9.785   8.678 -0.0610  0.2748 -0.4463
  153loPI   C4A 2442   5.189   9.903   8.265 -0.0497  0.1718 -0.0898
  153loPI   C5A 2443   5.426   9.913   7.895  0.0703  0.0294 -0.2217
  153loPI   C6A 2444   5.455  10.164   7.718  0.3118 -0.4132 -0.1203
  153loPI   C1B 2445   4.464   9.897   8.775 -0.0080  0.1345  0.2002
  153loPI   C2B 2446   4.524   9.954   8.321 -0.4836 -0.1926 -0.1949
  153loPI   C3B 2447   4.806   9.873   7.970 -0.0697  0.3047  0.3137
  153loPI   C4B 2448   5.125   9.532   7.950  0.2174  0.0363  0.0361
  154loPI    C1 2449  13.497  10.633  10.928  0.1423  0.2230 -0.1840
  154loPI    C2 2450  13.878  10.510  10.922  0.0655 -0.0492  0.1703
  154loPI    C3 2451  13.709  10.623  11.267 -0.1202  0.2567 -0.0160
  154loPI   PO4 2452  13.458  10.697  10.673  0.0182 -0.0200  0.1164
  154loPI   GL1 2453  13.515  10.478  10.374 -0.0127  0.0891  0.0299
  154loPI   GL2 2454  13.789  10.385  10.422  0.0639 -0.1551  0.0969
  154loPI   C1A 2455  13.468  10.445   9.981  0.1353 -0.0487 -0.0918
  154loPI   C2A 2456  13.505  10.312   9.610  0.0658  0.1770 -0.1803
  154loPI   C3A 2457  13.586  10.404   9.221  0.0820 -0.2501  0.1803
  154loPI   C4A 2458  13.518  10.580   8.832 -0.1295 -0.3576  0.1191
  154loPI   C5A 2459  13.660  10.515   8.433 -0.2355 -0.3669  0.0568
  154loPI   C6A 2460  14.009  10.305   8.285 -0.0048 -0.0507  0.0884
  154loPI   C1B 2461  13.873  10.187  10.099 -0.4881  0.0817 -0.0342
  154loPI   C2B 2462  13.918  10.072   9.751  0.0733  0.1108  0.2203
  154loPI   C3B 2463  13.852  10.038   9.361  0.4284  0.2077 -0.2939
  154loPI   C4B 2464  13.746  10.061   8.871 -0.3846  0.2015 -0.0819
  155loPI    C1 2465  12.535   7.635  11.351  0.3365  0.1707  0.0437
  155loPI    C2 2466  12.685   7.332  11.565  0.2328 -0.0152 -0.1419
  155loPI    C3 2467  12.762   7.710  11.671  0.1293 -0.1022  0.2601
  155loPI   PO4 2468  12.648   7.638  11.069  0.0140  0.1498  0.0880
  155loPI   GL1 2469  12.716   7.450  10.700 -0.3280  0.2651 -0.0275
  155loPI   GL2 2470  12.549   7.705  10.588  0.0943  0.0557  0.1177
  155loPI   C1A 2471  12.629   7.326  10.281 -0.1685  0.0512 -0.1592
  155loPI   C2A 2472  12.613   7.425   9.891 -0.2690 -0.1685  0.0942
  155loPI   C3A 2473  12.504   7.318   9.448 -0.2041  0.1524 -0.1046
  155loPI   C4A 2474  12.657   7.462   9.000  0.2957 -0.1329 -0.1818
  155loPI   C5A 2475  12.447   7.447   8.719  0.1675 -0.0160 -0.2152
  155loPI   C6A 2476  12.490   7.749   8.431 -0.0579 -0.0379 -0.1714
  155loPI   C1B 2477  12.397   7.801  10.203 -0.4983 -0.1437 -0.2681
  155loPI   C2B 2478  12.353   7.821   9.792 -0.1920  0.0807 -0.0473
  155loPI   C3B 2479  12.462   7.796   9.408  0.1051 -0.0332  0.2924
  155loPI   C4B 2480  12.261   7.911   8.966  0.1383  0.0115  0.1380
  156loPI    C1 2481   0.830   7.657  10.606  0.1502 -0.1345 -0.1389
  156loPI    C2 2482   0.801   7.262  10.550  0.0170 -0.1280 -0.1210
  156loPI    C3 2483   0.642   7.429  10.876  0.0048 -0.0490 -0.1671
  156loPI   PO4 2484   0.721   7.728  10.369 -0.2091  0.0640 -0.0249
  156loPI   GL1 2485   0.699   7.964  10.055 -0.1008 -0.4230  0.1104
  156loPI   GL2 2486   0.989   8.090  10.003 -0.1252 -0.0703  0.0466
  156loPI   C1A 2487   0.570   7.995   9.601 -0.0287  0.1006  0.0476
  156loPI   C2A 2488   0.468   8.016   9.109 -0.1537 -0.1405 -0.1841
  156loPI   C3A 2489   0.452   7.917   8.721  0.1415  0.2081  0.3745
  156loPI   C4A 2490   0.347   7.953   8.384 -0.1050  0.1041 -0.0720
  156loPI   C5A 2491   0.643   8.004   8.026 -0.0822  0.0074  0.0375
  156loPI   C6A 2492   0.949   8.065   7.606 -0.0506  0.0045  0.1409
  156loPI   C1B 2493   1.087   8.148   9.604  0.0447  0.2032 -0.0565
  156loPI   C2B 2494   0.951   8.160   9.157  0.1199 -0.0499  0.3311
  156loPI   C3B 2495   0.888   8.147   8.772 -0.2088  0.1611  0.1160
  156loPI   C4B 2496   0.711   8.290   8.379 -0.1645 -0.1974  0.1249
  157loPI    C1 2497   7.043   7.975  10.477 -0.1723  0.0223  0.0285
  157loPI    C2 2498   6.918   8.228  10.760 -0.1236 -0.1583  0.2137
  157loPI    C3 2499   7.225   7.983  10.833 -0.0122 -0.0999 -0.0497
  157loPI   PO4 2500   7.055   8.120  10.230 -0.2078 -0.0135  0.0433
  157loPI   GL1 2501   7.122   8.182   9.855 -0.2621 -0.3439  0.1808
  157loPI   GL2 2502   7.242   8.522   9.697 -0.0903  0.3714  0.0030
  157loPI   C1A 2503   7.009   7.956   9.434 -0.1023  0.0597  0.0560
  157loPI   C2A 2504   7.211   7.909   9.065 -0.0047  0.1597  0.0853
  157loPI   C3A 2505   7.177   7.970   8.582 -0.0216 -0.1997  0.2012
  157loPI   C4A 2506   6.941   7.836   8.190 -0.1190 -0.1148  0.1096
  157loPI   C5A 2507   6.816   7.442   7.870  0.2044 -0.1932  0.2831
  157loPI   C6A 2508   7.099   7.144   7.683  0.1289  0.0950  0.3007
  157loPI   C1B 2509   7.456   8.414   9.329  0.0815 -0.0513  0.0651
  157loPI   C2B 2510   7.432   8.322   8.822 -0.0610 -0.1940  0.0582
  157loPI   C3B 2511   7.370   8.301   8.325  0.1700  0.0342  0.0142
  157loPI   C4B 2512   7.174   8.254   7.946 -0.1451 -0.1865  0.3461
  158loPI    C1 2513  14.102  14.091  10.966 -0.0893 -0.1154 -0.1278
  158loPI    C2 2514  13.767  14.053  10.751 -0.2594  0.0404  0.1038
  158loPI    C3 2515  13.778  13.921  11.128 -0.0453 -0.0007  0.0844
  158loPI   PO4 2516  14.275  14.274  10.930 -0.0287 -0.4388  0.2935
  158loPI   GL1 2517  14.401  14.393  10.529 -0.2329 -0.1378 -0.0641
  158loPI   GL2 2518  14.156  14.252  10.386 -0.0344 -0.1374  0.1198
  158loPI   C1A 2519  14.674  14.179  10.243  0.2700 -0.1075  0.0808
  158loPI   C2A 2520  14.664  14.110   9.719  0.1415 -0.0611 -0.0281
  158loPI   C3A 2521  14.770  14.167   9.246  0.2970 -0.1072 -0.1944
  158loPI   C4A 2522  14.829  14.126   8.773 -0.1598  0.1027  0.2106
  158loPI   C5A 2523  14.886  13.664   8.562 -0.0176  0.2360 -0.0815
  158loPI   C6A 2524  14.968  13.358   8.327  0.0921  0.2015  0.2380
  158loPI   C1B 2525  14.227  14.097   9.969  0.3835 -0.3253  0.0345
  158loPI   C2B 2526  14.189  14.110   9.613 -0.1815 -0.0144 -0.0805
  158loPI   C3B 2527  14.197  14.094   9.172 -0.3213 -0.2356 -0.1026
  158loPI   C4B 2528  14.397  14.309   8.824  0.1937  0.0017  0.0757
  159loPI    C1 2529   6.175   4.932  10.781  0.1540 -0.0596  0.2513
  159loPI    C2 2530   6.386   4.796  11.093 -0.0016  0.0802  0.4203
  159loPI    C3 2531   6.135   5.104  11.141 -0.1486 -0.0016  0.1926
  159loPI   PO4 2532   6.231   4.780  10.547 -0.1139  0.2960  0.0988
  159loPI   GL1 2533   6.377   4.588  10.127  0.4518  0.0288 -0.0216
  159loPI   GL2 2534   6.080   4.532  10.099 -0.2238 -0.2699 -0.1822
  159loPI   C1A 2535   6.361   4.436   9.621 -0.2269 -0.0515 -0.3796
  159loPI   C2A 2536   6.417   4.311   9.142 -0.0072  0.2180 -0.1492
  159loPI   C3A 2537   6.533   4.257   8.710 -0.2584  0.3283  0.0342
  159loPI   C4A 2538   6.590   4.165   8.285  0.1849  0.0037 -0.0420
  159loPI   C5A 2539   6.730   3.947   7.933  0.1952  0.0150  0.0825
  159loPI   C6A 2540   6.530   3.776   7.644 -0.0323 -0.0372  0.0163
  159loPI   C1B 2541   5.884   4.504   9.723 -0.2460  0.0310  0.0658
  159loPI   C2B 2542   5.922   4.358   9.322  0.0141  0.0987  0.2414
  159loPI   C3B 2543   5.994   4.349   8.908 -0.1116  0.2230 -0.3567
  159loPI   C4B 2544   6.020   4.189   8.425 -0.0764 -0.0267 -0.1967
  160loPI    C1 2545   7.612  14.167  10.963  0.0098  0.0185  0.0301
  160loPI    C2 2546   7.735  14.207  11.342 -0.0928  0.2599  0.0402
  160loPI    C3 2547   7.344  14.185  11.260 -0.0610 -0.1766 -0.0207
  160loPI   PO4 2548   7.790  14.040  10.852 -0.2727 -0.3526  0.1605
  160loPI   GL1 2549   7.793  14.160  10.436 -0.0891 -0.0527  0.0589
  160loPI   GL2 2550   7.589  14.136  10.122  0.1050  0.3066  0.0671
  160loPI   C1A 2551   8.064  13.946  10.147  0.0829  0.0945  0.1425
  160loPI   C2A 2552   8.158  14.002   9.765  0.2052  0.2935 -0.1005
  160loPI   C3A 2553   8.145  14.062   9.289  0.2571 -0.3217  0.1593
  160loPI   C4A 2554   8.087  13.991   8.954  0.0899 -0.0405 -0.1300
  160loPI   C5A 2555   8.092  13.702   8.674 -0.2874 -0.2968 -0.1598
  160loPI   C6A 2556   7.751  13.475   8.447  0.1586  0.2901  0.0768
  160loPI   C1B 2557   7.621  14.041   9.633  0.0674  0.0325  0.0006
  160loPI   C2B 2558   7.628  14.101   9.203 -0.2100  0.2082 -0.3727
  160loPI   C3B 2559   7.643  13.871   8.744 -0.3144  0.1266 -0.0899
  160loPI   C4B 2560   7.843  13.957   8.374  0.2169  0.0327 -0.0605
  161loPI    C1 2561  12.990  12.991  11.143 -0.1299  0.0418  0.0104
  161loPI    C2 2562  12.837  12.698  11.368 -0.0823 -0.0613 -0.0906
  161loPI    C3 2563  13.000  13.019  11.542 -0.1406 -0.0913  0.0204
  161loPI   PO4 2564  13.152  12.802  10.899 -0.2298  0.0807  0.1270
  161loPI   GL1 2565  13.269  12.898  10.580 -0.3032  0.1850  0.1292
  161loPI   GL2 2566  12.938  12.860  10.490 -0.1152  0.2307  0.1318
  161loPI   C1A 2567  13.337  12.806  10.155 -0.0008 -0.1367 -0.0969
  161loPI   C2A 2568  13.222  12.856   9.717 -0.1585  0.1690 -0.2351
  161loPI   C3A 2569  13.445  12.855   9.281 -0.0665 -0.2455 -0.2005
  161loPI   C4A 2570  13.440  12.805   8.761 -0.0598 -0.0635 -0.2032
  161loPI   C5A 2571  13.563  12.721   8.371 -0.1066  0.0662  0.2000
  161loPI   C6A 2572  13.994  12.706   8.169  0.0302 -0.2036  0.1068
  161loPI   C1B 2573  12.788  12.793  10.100  0.0769  0.2498  0.1751
  161loPI   C2B 2574  12.687  12.783   9.611  0.2602 -0.1877 -0.2157
  161loPI   C3B 2575  12.858  12.911   9.289  0.0161 -0.3540  0.0113
  161loPI   C4B 2576  12.971  12.879   8.909  0.1310  0.0611 -0.0056
  162loPI    C1 2577  16.124  17.319  10.939 -0.0687 -0.1066 -0.0707
  162loPI    C2 2578  15.918  17.294  11.281 -0.0896 -0.0326 -0.0776
  162loPI    C3 2579  16.294  17.158  11.264 -0.0256  0.1286  0.0258
  162loPI   PO4 2580  15.995  17.550  10.847  0.2124 -0.0211  0.0077
  162loPI   GL1 2581  15.655  17.639  10.600  0.0544  0.1469 -0.0440
  162loPI   GL2 2582  15.409  17.343  10.437  0.1019 -0.1937 -0.1417
  162loPI   C1A 2583  15.415  17.817  10.263  0.3392 -0.1836 -0.1199
  162loPI   C2A 2584  15.448  17.835   9.763  0.1729  0.4558 -0.0748
  162loPI   C3A 2585  15.446  17.676   9.361 -0.2553  0.2065 -0.0483
  162loPI   C4A 2586  15.539  17.753   8.921  0.1567  0.2408  0.1881
  162loPI   C5A 2587  15.487  17.792   8.518  0.1739 -0.2738  0.1995
  162loPI   C6A 2588  15.342  17.558   8.231 -0.3358  0.2252 -0.0382
  162loPI   C1B 2589  15.242  17.397   9.986 -0.0043 -0.1749  0.0749
  162loPI   C2B 2590  15.189  17.359   9.669  0.0560 -0.0437  0.1181
  162loPI   C3B 2591  15.141  17.297   9.189  0.0239 -0.2511 -0.1422
  162loPI   C4B 2592  15.194  17.445   8.742  0.0377  0.1773  0.3013
  163loPI    C1 2593   7.428  17.316  10.902 -0.0715 -0.0032 -0.1043
  163loPI    C2 2594   7.134  17.364  11.168 -0.0074 -0.1357 -0.0082
  163loPI    C3 2595   7.504  17.281  11.293  0.0304 -0.1640 -0.1374
  163loPI   PO4 2596   7.236  17.397  10.681 -0.0744  0.0019 -0.2224
  163loPI   GL1 2597   7.023  17.291  10.386 -0.3456 -0.2906 -0.0985
  163loPI   GL2 2598   6.937  16.994  10.433 -0.1473  0.0624 -0.2569
  163loPI   C1A 2599   7.014  17.318   9.950  0.0594  0.1230  0.0406
  163loPI   C2A 2600   6.989  17.374   9.516 -0.0212  0.1052 -0.1771
  163loPI   C3A 2601   6.965  17.431   9.095 -0.0258 -0.3494  0.1483
  163loPI   C4A 2602   7.041  17.639   8.645 -0.3743  0.1585 -0.0039
  163loPI   C5A 2603   7.134  17.405   8.416 -0.2296 -0.1616  0.1679
  163loPI   C6A 2604   7.045  17.464   8.047  0.1821 -0.1726 -0.0674
  163loPI   C1B 2605   7.193  16.807  10.210  0.1858  0.0441  0.0400
  163loPI   C2B 2606   7.264  16.892   9.846  0.1914  0.1703 -0.1611
  163loPI   C3B 2607   7.260  16.887   9.399  0.1056 -0.0466  0.0788
  163loPI   C4B 2608   7.252  16.937   8.962 -0.1160  0.0562 -0.0009
  164loPI    C1 2609   7.830  13.207  11.041 -0.0295 -0.2140  0.0228
  164loPI    C2 2610   7.643  12.945  11.279 -0.1363  0.0851  0.2754
  164loPI    C3 2611   7.832  13.260  11.437 -0.2225  0.2989 -0.0370
  164loPI   PO4 2612   7.675  13.255  10.784 -0.2193  0.2651  0.2223
  164loPI   GL1 2613   7.707  13.089  10.354  0.1637  0.0214 -0.1094
  164loPI   GL2 2614   7.698  12.694  10.325  0.2313 -0.1764  0.4401
  164loPI   C1A 2615   7.940  13.026   9.926 -0.1208  0.1431  0.1740
  164loPI   C2A 2616   8.000  13.128   9.503  0.2415  0.2647  0.3008
  164loPI   C3A 2617   8.096  13.102   9.013 -0.1090 -0.0135  0.2602
  164loPI   C4A 2618   8.122  13.098   8.588 -0.0667  0.0944  0.0896
  164loPI   C5A 2619   7.780  12.999   8.232  0.0919 -0.1305  0.2610
  164loPI   C6A 2620   7.745  13.189   7.817 -0.2572  0.2961 -0.2582
  164loPI   C1B 2621   7.638  12.636   9.908 -0.0757  0.1509 -0.1000
  164loPI   C2B 2622   7.747  12.700   9.528 -0.1186 -0.1773  0.1621
  164loPI   C3B 2623   7.836  12.701   9.112 -0.1836 -0.1139  0.2563
  164loPI   C4B 2624   7.812  12.634   8.650  0.1745 -0.1418  0.0494
  165loPI    C1 2625  13.702  15.260  11.168  0.0187 -0.3130  0.0852
  165loPI    C2 2626  14.063  15.428  11.204 -0.0738 -0.1014  0.0382
  165loPI    C3 2627  13.882  15.272  11.525 -0.0106 -0.0620  0.0933
  165loPI   PO4 2628  13.669  15.439  10.858 -0.1313  0.1904  0.0926
  165loPI   GL1 2629  13.720  15.486  10.470  0.0077 -0.0483  0.3050
  165loPI   GL2 2630  13.770  15.194  10.351  0.0241 -0.1814 -0.0011
  165loPI   C1A 2631  13.413  15.550  10.130 -0.0563 -0.2823  0.1870
  165loPI   C2A 2632  13.417  15.564   9.693  0.1945  0.2985 -0.1422
  165loPI   C3A 2633  13.423  15.464   9.257  0.1281 -0.1312 -0.3871
  165loPI   C4A 2634  13.439  15.512   8.850 -0.0836 -0.1486  0.3786
  165loPI   C5A 2635  13.640  15.587   8.555  0.0549  0.1446  0.2275
  165loPI   C6A 2636  13.819  16.026   8.410  0.1948  0.0163 -0.0850
  165loPI   C1B 2637  13.668  15.120   9.991 -0.0011  0.2941 -0.0888
  165loPI   C2B 2638  13.588  15.094   9.628 -0.0876  0.2857 -0.1969
  165loPI   C3B 2639  13.812  15.102   9.202 -0.3733 -0.0070  0.0140
  165loPI   C4B 2640  13.802  15.152   8.749 -0.3907  0.4084  0.1039
  166loPI    C1 2641  12.817  17.570  10.912  0.1145  0.0712  0.0287
  166loPI    C2 2642  13.029  17.609  11.249 -0.0550  0.1001  0.1331
  166loPI    C3 2643  12.878  17.253  11.148  0.0607  0.0749  0.0477
  166loPI   PO4 2644  12.917  17.720  10.734 -0.0895 -0.0923  0.0756
  166loPI   GL1 2645  12.970  17.678  10.287 -0.0722 -0.4013 -0.2844
  166loPI   GL2 2646  12.983  17.404  10.012 -0.1733  0.1074 -0.0876
  166loPI   C1A 2647  12.829  17.939   9.959 -0.1186  0.1367 -0.1844
  166loPI   C2A 2648  12.801  17.947   9.463 -0.1817 -0.1978 -0.1079
  166loPI   C3A 2649  12.797  17.841   9.085 -0.1196 -0.0011  0.0669
  166loPI   C4A 2650  12.888  17.728   8.628 -0.0899  0.1447  0.2187
  166loPI   C5A 2651  12.942  17.423   8.369 -0.0359 -0.1744 -0.0517
  166loPI   C6A 2652  12.971  17.161   8.018 -0.2825 -0.1229  0.0403
  166loPI   C1B 2653  12.973  17.447   9.518  0.1223  0.1960 -0.1896
  166loPI   C2B 2654  13.112  17.425   9.059 -0.0287  0.1671 -0.4854
  166loPI   C3B 2655  13.340  17.325   8.612  0.0231 -0.3964 -0.3044
  166loPI   C4B 2656  13.604  17.182   8.256  0.1984  0.1779  0.0290
  167loPI    C1 2657   4.300   2.287  10.812 -0.1440  0.1883  0.2235
  167loPI    C2 2658   4.503   2.100  11.102  0.1472  0.0274 -0.0761
  167loPI    C3 2659   4.573   2.487  11.026 -0.0372  0.1099  0.1621
  167loPI   PO4 2660   4.374   2.204  10.610 -0.1158 -0.2652 -0.1454
  167loPI   GL1 2661   4.331   1.944  10.299  0.0316  0.0819  0.1180
  167loPI   GL2 2662   4.451   2.292  10.125 -0.0733 -0.1428 -0.0111
  167loPI   C1A 2663   4.203   1.879   9.844 -0.1305 -0.1094  0.0478
  167loPI   C2A 2664   3.978   1.843   9.512 -0.1511  0.2603 -0.0423
  167loPI   C3A 2665   3.991   1.863   9.111  0.4902 -0.0189  0.3312
  167loPI   C4A 2666   4.211   1.789   8.745  0.0476 -0.0962  0.1526
  167loPI   C5A 2667   4.315   1.875   8.329  0.1287 -0.0511  0.0844
  167loPI   C6A 2668   4.394   1.823   7.974 -0.2785  0.2386  0.0206
  167loPI   C1B 2669   4.525   2.302   9.638  0.0092 -0.0910 -0.2131
  167loPI   C2B 2670   4.487   2.252   9.187 -0.2383  0.3474 -0.0935
  167loPI   C3B 2671   4.512   2.247   8.776 -0.0789 -0.1004 -0.0239
  167loPI   C4B 2672   4.627   2.260   8.335 -0.1293  0.1029  0.0455
  168loPI    C1 2673   3.898   7.192  10.283  0.0163 -0.2472 -0.0191
  168loPI    C2 2674   3.835   7.566  10.156  0.0736 -0.2125  0.0534
  168loPI    C3 2675   3.637   7.427  10.474  0.1652 -0.1924  0.1198
  168loPI   PO4 2676   3.885   7.064   9.964 -0.2494 -0.1434  0.1840
  168loPI   GL1 2677   4.121   6.832   9.629  0.0952 -0.1629 -0.2730
  168loPI   GL2 2678   4.437   6.702   9.738 -0.2093  0.1068  0.4502
  168loPI   C1A 2679   4.029   6.879   9.152  0.0330  0.0930 -0.0210
  168loPI   C2A 2680   4.089   6.826   8.690 -0.0614  0.2670  0.1573
  168loPI   C3A 2681   4.035   6.794   8.250  0.1538 -0.0105 -0.2093
  168loPI   C4A 2682   4.086   6.684   7.862  0.0096 -0.1667 -0.3161
  168loPI   C5A 2683   4.455   6.487   7.741 -0.2082  0.2073  0.0483
  168loPI   C6A 2684   4.859   6.593   7.479  0.0449  0.0836 -0.3180
  168loPI   C1B 2685   4.579   6.811   9.273  0.2712  0.1444 -0.2146
  168loPI   C2B 2686   4.533   6.777   8.874 -0.0045  0.2895  0.0058
  168loPI   C3B 2687   4.581   6.646   8.432 -0.0874  0.0538  0.0795
  168loPI   C4B 2688   4.662   6.242   8.102  0.0744  0.1167  0.1518
  169loPI    C1 2689  17.657  15.858  11.337 -0.0428  0.1557 -0.0850
  169loPI    C2 2690  17.501  16.018  11.669 -0.1648  0.0964 -0.1134
  169loPI    C3 2691  17.564  15.623  11.647  0.2772  0.1542  0.0134
  169loPI   PO4 2692  17.465  15.858  11.166 -0.1072 -0.0534 -0.3689
  169loPI   GL1 2693  17.639  15.990  10.696  0.2401 -0.0260 -0.0806
  169loPI   GL2 2694  17.812  16.037  10.454  0.2017  0.0384 -0.1930
  169loPI   C1A 2695  17.301  16.175  10.296  0.1766 -0.0869 -0.0170
  169loPI   C2A 2696  17.290  16.192   9.822  0.0093 -0.1279 -0.1952
  169loPI   C3A 2697  17.210  16.352   9.381  0.1322 -0.0134 -0.1790
  169loPI   C4A 2698  17.247  16.314   8.986 -0.2192  0.1802 -0.0262
  169loPI   C5A 2699  17.379  16.421   8.624 -0.1785  0.0946 -0.0629
  169loPI   C6A 2700  17.199  16.227   8.333 -0.0780  0.0188 -0.1364
  169loPI   C1B 2701  17.778  16.203  10.070  0.0872  0.0871 -0.1515
  169loPI   C2B 2702  17.735  16.219   9.667  0.0052  0.1179  0.1806
  169loPI   C3B 2703  17.696  16.216   9.200 -0.4161 -0.0073  0.2052
  169loPI   C4B 2704  17.806  16.267   8.817 -0.1566 -0.0762  0.0560
  170loPI    C1 2705   8.908   3.071  11.328  0.2556 -0.1383 -0.0161
  170loPI    C2 2706   8.785   3.379  11.552 -0.0079 -0.1106 -0.1944
  170loPI    C3 2707   8.916   3.044  11.727 -0.1231 -0.0549  0.0005
  170loPI   PO4 2708   9.126   3.133  11.231  0.0524  0.0550  0.0701
  170loPI   GL1 2709   9.324   3.287  10.885 -0.0705 -0.0717  0.1550
  170loPI   GL2 2710   9.410   2.974  10.709 -0.0951 -0.0734 -0.0547
  170loPI   C1A 2711   9.070   3.387  10.421 -0.3099  0.0234 -0.0248
  170loPI   C2A 2712   8.972   3.361   9.936 -0.1132  0.3285  0.1495
  170loPI   C3A 2713   8.966   3.348   9.465  0.1920  0.0620 -0.2528
  170loPI   C4A 2714   9.013   3.232   9.060 -0.2457  0.1642 -0.0159
  170loPI   C5A 2715   8.900   3.058   8.732 -0.0591  0.4374 -0.1574
  170loPI   C6A 2716   8.772   2.672   8.797 -0.0240  0.0830 -0.0068
  170loPI   C1B 2717   9.288   2.851  10.372 -0.2008  0.1511 -0.0871
  170loPI   C2B 2718   9.275   2.842   9.895 -0.0212 -0.0165 -0.0205
  170loPI   C3B 2719   9.200   2.887   9.383  0.1779 -0.2315 -0.2087
  170loPI   C4B 2720   9.296   2.801   8.936  0.3472  0.3244  0.1076
  171loPI    C1 2721   2.508  13.425  10.947  0.1208 -0.1230 -0.1030
  171loPI    C2 2722   2.282  13.118  10.826  0.0727 -0.1696  0.1019
  171loPI    C3 2723   2.350  13.175  11.216  0.0583  0.0965  0.0671
  171loPI   PO4 2724   2.637  13.564  10.678  0.0284  0.0119 -0.2462
  171loPI   GL1 2725   2.678  13.518  10.185 -0.1196 -0.0135 -0.0294
  171loPI   GL2 2726   2.905  13.275   9.963 -0.1464  0.0612  0.0253
  171loPI   C1A 2727   2.582  13.727   9.757  0.2667  0.0041  0.0548
  171loPI   C2A 2728   2.522  13.764   9.398 -0.0995  0.1187 -0.1310
  171loPI   C3A 2729   2.525  13.766   9.003 -0.1184 -0.0758 -0.2674
  171loPI   C4A 2730   2.642  13.878   8.620  0.1407  0.4155 -0.2121
  171loPI   C5A 2731   2.670  13.846   8.207  0.0509  0.2113 -0.2049
  171loPI   C6A 2732   2.673  14.190   7.758 -0.0138 -0.0838 -0.5609
  171loPI   C1B 2733   2.772  13.154   9.575  0.0336  0.1562  0.0407
  171loPI   C2B 2734   2.687  13.209   9.186  0.0102  0.1277 -0.0455
  171loPI   C3B 2735   2.822  13.268   8.722  0.0023 -0.0268  0.1366
  171loPI   C4B 2736   2.865  13.375   8.269  0.0829  0.0705  0.1216
  172loPI    C1 2737   1.541   8.542  10.239 -0.0622 -0.0565  0.1647
  172loPI    C2 2738   1.475   8.203  10.038 -0.2008  0.0636  0.0039
  172loPI    C3 2739   1.484   8.200  10.438 -0.1960 -0.1294  0.0033
  172loPI   PO4 2740   1.727   8.667  10.018 -0.3319  0.1279 -0.1643
  172loPI   GL1 2741   1.851   8.721   9.556  0.1619 -0.0462 -0.3337
  172loPI   GL2 2742   1.593   9.003   9.564  0.1730 -0.1491  0.0222
  172loPI   C1A 2743   1.791   8.532   9.144 -0.1869 -0.3265 -0.1111
  172loPI   C2A 2744   1.718   8.429   8.698 -0.1163 -0.2169  0.0163
  172loPI   C3A 2745   1.676   8.417   8.355  0.2138 -0.0233  0.2004
  172loPI   C4A 2746   1.717   8.270   7.996 -0.1855 -0.1429 -0.1972
  172loPI   C5A 2747   1.940   7.943   7.841 -0.3550  0.2881  0.3849
  172loPI   C6A 2748   2.407   7.919   7.728  0.2204  0.0208 -0.0096
  172loPI   C1B 2749   1.582   8.951   9.079  0.0395 -0.0374  0.0757
  172loPI   C2B 2750   1.542   8.927   8.612  0.2291  0.0921 -0.0246
  172loPI   C3B 2751   1.370   8.821   8.271  0.0570 -0.2068 -0.1404
  172loPI   C4B 2752   1.486   8.811   7.751 -0.0939  0.0970  0.0221
  173loPI    C1 2753  16.930  15.051  11.248  0.1299  0.1621  0.0166
  173loPI    C2 2754  16.600  15.212  11.407  0.1928  0.2027  0.1066
  173loPI    C3 2755  16.824  14.960  11.622  0.1922  0.1342  0.0276
  173loPI   PO4 2756  17.007  15.280  11.012 -0.0093  0.2592 -0.0727
  173loPI   GL1 2757  17.343  15.543  10.739 -0.0175  0.1816 -0.0799
  173loPI   GL2 2758  17.573  15.509  10.477  0.0069 -0.5578  0.0339
  173loPI   C1A 2759  17.121  15.437  10.297 -0.1124  0.0484  0.2966
  173loPI   C2A 2760  17.123  15.411   9.818  0.2866  0.0783  0.2025
  173loPI   C3A 2761  17.211  15.347   9.450 -0.2877  0.1015  0.0254
  173loPI   C4A 2762  17.208  15.487   9.079 -0.2127  0.0988 -0.0012
  173loPI   C5A 2763  17.173  15.370   8.578  0.1131  0.2297  0.2852
  173loPI   C6A 2764  17.171  15.268   8.148 -0.0514 -0.1750 -0.1407
  173loPI   C1B 2765  17.507  15.718  10.141  0.2327  0.0426  0.0412
  173loPI   C2B 2766  17.483  15.775   9.686  0.0802  0.0080 -0.3518
  173loPI   C3B 2767  17.467  15.824   9.318  0.1976 -0.0733 -0.0831
  173loPI   C4B 2768  17.490  15.852   8.891  0.0869 -0.0321  0.2683
  174loPI    C1 2769   3.580   9.865   9.990 -0.0600 -0.0645  0.0018
  174loPI    C2 2770   3.837   9.755  10.276 -0.0946  0.1250  0.1073
  174loPI    C3 2771   3.455   9.834  10.368 -0.1217  0.1231 -0.0020
  174loPI   PO4 2772   3.696  10.077   9.909  0.2576  0.1239  0.0499
  174loPI   GL1 2773   3.768  10.125   9.522 -0.2091  0.1340 -0.0915
  174loPI   GL2 2774   4.055  10.101   9.526 -0.3032  0.1413  0.4695
  174loPI   C1A 2775   3.580  10.402   9.178  0.2515  0.0232  0.0533
  174loPI   C2A 2776   3.491  10.434   8.804  0.1674 -0.1092  0.2708
  174loPI   C3A 2777   3.274  10.643   8.441  0.0011  0.1393 -0.1980
  174loPI   C4A 2778   3.270  10.780   8.007  0.3726  0.0717 -0.0666
  174loPI   C5A 2779   3.387  11.222   7.951 -0.1701  0.3099  0.0410
  174loPI   C6A 2780   3.555  11.589   7.752 -0.2023  0.2865 -0.2820
  174loPI   C1B 2781   4.020  10.198   9.066 -0.0787  0.1126  0.0445
  174loPI   C2B 2782   4.002  10.063   8.645 -0.0356  0.0521 -0.0097
  174loPI   C3B 2783   3.791   9.884   8.358 -0.1076 -0.2262  0.0918
  174loPI   C4B 2784   3.802   9.959   7.896  0.0368  0.1195  0.2555
  175loPI    C1 2785  11.592   7.643  11.278 -0.0365  0.0765  0.1180
  175loPI    C2 2786  11.403   7.935  11.475 -0.4239 -0.2339  0.2194
  175loPI    C3 2787  11.632   7.674  11.675 -0.0604  0.0066  0.1262
  175loPI   PO4 2788  11.409   7.539  11.145 -0.1488  0.1930 -0.0431
  175loPI   GL1 2789  11.463   7.543  10.742  0.0515  0.0362 -0.2631
  175loPI   GL2 2790  11.466   7.185  10.765 -0.0551  0.1192  0.0658
  175loPI   C1A 2791  11.579   7.483  10.371  0.1098 -0.1068 -0.0014
  175loPI   C2A 2792  11.600   7.385   9.965  0.1098  0.1496  0.3108
  175loPI   C3A 2793  11.561   7.426   9.572  0.2252 -0.2291 -0.0119
  175loPI   C4A 2794  11.520   7.387   9.185 -0.1032 -0.3303  0.4759
  175loPI   C5A 2795  11.414   7.535   8.742  0.2047 -0.3627  0.0136
  175loPI   C6A 2796  11.481   7.354   8.372  0.1894 -0.3390  0.0581
  175loPI   C1B 2797  11.723   6.999  10.433 -0.0665  0.1268 -0.1462
  175loPI   C2B 2798  11.685   6.862  10.085  0.0998  0.0147  0.1338
  175loPI   C3B 2799  11.734   6.928   9.678 -0.1721 -0.0374  0.2664
  175loPI   C4B 2800  11.705   6.945   9.312 -0.1843 -0.2636  0.4277
  176loPI    C1 2801  10.989   8.507  10.997 -0.3742  0.1630  0.1135
  176loPI    C2 2802  11.254   8.394  11.274 -0.1109  0.0893 -0.1621
  176loPI    C3 2803  10.964   8.653  11.368  0.1862  0.3384  0.0917
  176loPI   PO4 2804  10.896   8.227  10.814  0.0048  0.4618  0.2078
  176loPI   GL1 2805  10.763   8.098  10.393 -0.0487  0.2592  0.1074
  176loPI   GL2 2806  11.119   8.247  10.260 -0.0812 -0.2324  0.0190
  176loPI   C1A 2807  10.806   7.954   9.940 -0.1005  0.1089 -0.3128
  176loPI   C2A 2808  10.807   7.869   9.515  0.1412 -0.1639  0.1416
  176loPI   C3A 2809  10.691   7.950   9.171 -0.3987  0.1957  0.0720
  176loPI   C4A 2810  10.717   8.042   8.755 -0.2181  0.1011  0.0701
  176loPI   C5A 2811  10.348   8.108   8.492  0.5060  0.2588  0.1663
  176loPI   C6A 2812   9.996   7.796   8.330 -0.0151 -0.1573  0.2345
  176loPI   C1B 2813  10.960   8.404   9.936 -0.0177  0.0142 -0.0460
  176loPI   C2B 2814  11.049   8.356   9.558 -0.2016 -0.1713 -0.3136
  176loPI   C3B 2815  11.117   8.405   9.184 -0.1597  0.2341  0.1115
  176loPI   C4B 2816  11.014   8.481   8.800 -0.0627  0.1691  0.2403
  177loPI    C1 2817   9.291   5.518  11.141  0.6081  0.0648  0.0861
  177loPI    C2 2818   9.363   5.375  11.507 -0.1605 -0.2013  0.1521
  177loPI    C3 2819   9.227   5.749  11.461  0.1466 -0.0912  0.1139
  177loPI   PO4 2820   9.204   5.342  10.973 -0.2343  0.1091  0.0677
  177loPI   GL1 2821   9.070   5.252  10.555 -0.0691  0.1096 -0.3096
  177loPI   GL2 2822   8.821   5.534  10.468 -0.1451  0.1394 -0.2307
  177loPI   C1A 2823   9.043   4.996  10.228 -0.0287 -0.1227  0.2016
  177loPI   C2A 2824   9.121   5.190   9.820  0.1383  0.1444 -0.2986
  177loPI   C3A 2825   9.115   5.205   9.385  0.2019 -0.2569  0.1077
  177loPI   C4A 2826   9.115   5.214   8.988  0.2265  0.0196 -0.1830
  177loPI   C5A 2827   9.321   5.012   8.607  0.2110  0.2752 -0.0823
  177loPI   C6A 2828   9.588   5.119   8.238  0.0459 -0.2369 -0.1549
  177loPI   C1B 2829   8.864   5.607  10.013 -0.3741 -0.1310  0.0254
  177loPI   C2B 2830   8.869   5.641   9.542 -0.1102 -0.0349 -0.0213
  177loPI   C3B 2831   8.945   5.698   9.040 -0.0060  0.0097  0.2774
  177loPI   C4B 2832   8.958   5.625   8.691  0.0050  0.0059  0.0864
  178loPI    C1 2833  10.788  10.814  11.360  0.1766 -0.2447 -0.0936
  178loPI    C2 2834  10.922  10.533  11.611 -0.2764 -0.1683  0.2456
  178loPI    C3 2835  11.053  10.910  11.643  0.0683 -0.2647  0.0155
  178loPI   PO4 2836  10.840  10.706  11.102  0.0865  0.1264 -0.0957
  178loPI   GL1 2837  10.680  10.626  10.743 -0.1066 -0.4534 -0.1761
  178loPI   GL2 2838  10.619  10.861  10.610  0.2633 -0.0909  0.1432
  178loPI   C1A 2839  10.881  10.548  10.304  0.1233  0.0403  0.2251
  178loPI   C2A 2840  10.815  10.597   9.904 -0.2828 -0.0422  0.2619
  178loPI   C3A 2841  10.844  10.707   9.477 -0.0810  0.1703 -0.0322
  178loPI   C4A 2842  10.888  10.695   9.101  0.1499 -0.2898  0.0113
  178loPI   C5A 2843  10.805  10.580   8.689 -0.1450 -0.1563 -0.1082
  178loPI   C6A 2844  10.540  10.518   8.535  0.0652  0.1994  0.0614
  178loPI   C1B 2845  10.393  10.680  10.283 -0.0055 -0.1022 -0.0979
  178loPI   C2B 2846  10.197  10.701   9.849  0.1390  0.0265  0.1300
  178loPI   C3B 2847  10.317  10.640   9.438  0.0218 -0.0241 -0.0455
  178loPI   C4B 2848  10.342  10.613   8.977  0.4542  0.0012 -0.0982
  179loPI    C1 2849   8.865   3.966  11.130  0.3459 -0.0227  0.0474
  179loPI    C2 2850   8.670   4.231  11.357 -0.1299 -0.1759 -0.1693
  179loPI    C3 2851   8.834   3.907  11.525 -0.0612 -0.0470  0.0159
  179loPI   PO4 2852   8.680   3.996  10.891 -0.2233 -0.1490 -0.2124
  179loPI   GL1 2853   8.340   3.964  10.665 -0.0528 -0.4178 -0.0001
  179loPI   GL2 2854   7.977   3.996  10.493 -0.1477  0.1343  0.0638
  179loPI   C1A 2855   8.684   3.815  10.310  0.2617  0.2651 -0.2858
  179loPI   C2A 2856   8.686   3.818   9.909 -0.1125  0.0367 -0.1581
  179loPI   C3A 2857   8.711   3.804   9.461  0.2846 -0.2375 -0.1967
  179loPI   C4A 2858   8.915   3.786   9.074  0.0108 -0.2396 -0.0120
  179loPI   C5A 2859   8.881   3.638   8.658 -0.2081  0.3618 -0.2791
  179loPI   C6A 2860   9.096   3.303   8.332  0.0579  0.2535  0.1162
  179loPI   C1B 2861   8.142   3.839  10.079 -0.1256 -0.2952 -0.1504
  179loPI   C2B 2862   8.271   3.776   9.665  0.0873 -0.1683  0.1383
  179loPI   C3B 2863   8.234   3.781   9.263  0.1171 -0.3756  0.1332
  179loPI   C4B 2864   8.402   3.807   8.842 -0.1900 -0.0564  0.1537
  180loPI    C1 2865  10.601   9.918  10.904 -0.1607  0.0175  0.1956
  180loPI    C2 2866  10.753   9.554  10.839 -0.1505  0.0433  0.0728
  180loPI    C3 2867  10.754   9.708  11.208 -0.1914 -0.0973  0.1324
  180loPI   PO4 2868  10.793  10.157  10.775  0.0297  0.1075 -0.2783
  180loPI   GL1 2869  10.695  10.043  10.405 -0.2562 -0.1089 -0.2187
  180loPI   GL2 2870  10.884   9.713  10.415 -0.0764  0.2058  0.2320
  180loPI   C1A 2871  10.515  10.195  10.131  0.1117 -0.2825 -0.0162
  180loPI   C2A 2872  10.459  10.257   9.685 -0.1609 -0.0346 -0.2880
  180loPI   C3A 2873  10.619  10.274   9.321 -0.0750  0.2996 -0.1332
  180loPI   C4A 2874  10.598  10.201   8.874  0.3480  0.3615 -0.2253
  180loPI   C5A 2875  10.918  10.150   8.491 -0.1191  0.4725 -0.0176
  180loPI   C6A 2876  10.845  10.093   8.115  0.1038  0.0893  0.1104
  180loPI   C1B 2877  10.809   9.663  10.032  0.0524  0.1268 -0.2114
  180loPI   C2B 2878  10.730   9.734   9.685  0.0970 -0.0040  0.0114
  180loPI   C3B 2879  10.798   9.835   9.215  0.2850  0.0327  0.2324
  180loPI   C4B 2880  10.923   9.771   8.878 -0.2308  0.1713 -0.0804
  181loPI    C1 2881  17.762  10.005  10.760  0.2045  0.0681 -0.0233
  181loPI    C2 2882  17.455  10.240  10.860  0.1864 -0.0007  0.0854
  181loPI    C3 2883  17.560   9.938  11.099  0.0967 -0.2139 -0.1405
  181loPI   PO4 2884  17.770  10.041  10.518  0.3021 -0.0715 -0.2804
  181loPI   GL1 2885  17.724  10.364  10.176 -0.2194  0.1206 -0.0855
  181loPI   GL2 2886  17.603  10.649  10.302  0.1059  0.1923  0.3667
  181loPI   C1A 2887  17.791  10.381   9.817  0.1642 -0.3797 -0.0156
  181loPI   C2A 2888  17.689  10.437   9.400  0.2496 -0.0241  0.1454
  181loPI   C3A 2889  17.772  10.375   9.093 -0.1101 -0.4615 -0.1755
  181loPI   C4A 2890  17.637  10.420   8.719  0.0899  0.0320  0.0615
  181loPI   C5A 2891  17.724  10.636   8.398 -0.2243  0.1900 -0.1021
  181loPI   C6A 2892  17.945  10.997   8.287  0.0949 -0.0001 -0.0502
  181loPI   C1B 2893  17.545  10.915   9.971 -0.0082  0.0528 -0.0480
  181loPI   C2B 2894  17.553  10.850   9.614 -0.0756 -0.0922  0.0516
  181loPI   C3B 2895  17.445  10.941   9.238 -0.1203 -0.1739  0.1026
  181loPI   C4B 2896  17.407  10.794   8.839  0.0422 -0.0396  0.1315
  182loPI    C1 2897  10.222   1.528  11.170 -0.0709  0.0392  0.1060
  182loPI    C2 2898  10.110   1.260  11.445 -0.1651  0.0392  0.0679
  182loPI    C3 2899  10.197   1.635  11.555  0.1730 -0.0607  0.1513
  182loPI   PO4 2900  10.497   1.400  11.032  0.4554  0.2736  0.0779
  182loPI   GL1 2901  10.528   1.257  10.651 -0.0187  0.0907 -0.3394
  182loPI   GL2 2902  10.462   1.509  10.557 -0.0175  0.0125 -0.0500
  182loPI   C1A 2903  10.265   1.125  10.379 -0.0620 -0.2752  0.0200
  182loPI   C2A 2904  10.246   1.023  10.003  0.0910 -0.0713 -0.0348
  182loPI   C3A 2905  10.180   1.036   9.549 -0.1255 -0.3503 -0.0000
  182loPI   C4A 2906  10.280   0.963   9.077  0.0962 -0.3784 -0.1508
  182loPI   C5A 2907  10.183   1.083   8.675  0.1918 -0.1371  0.0981
  182loPI   C6A 2908   9.963   1.138   8.470  0.0571 -0.1543 -0.0710
  182loPI   C1B 2909  10.522   1.554  10.170 -0.2018 -0.0855  0.0318
  182loPI   C2B 2910  10.504   1.506   9.684  0.2801 -0.0937 -0.0602
  182loPI   C3B 2911  10.449   1.475   9.334  0.1933  0.1616 -0.1661
  182loPI   C4B 2912  10.482   1.441   8.859  0.1082  0.2115 -0.0982
  183loPI    C1 2913  10.062   7.736  11.077  0.0526 -0.2022 -0.0983
  183loPI    C2 2914  10.400   7.778  11.285 -0.0772 -0.0665  0.0887
  183loPI    C3 2915  10.181   7.446  11.325 -0.0009 -0.1260  0.0171
  183loPI   PO4 2916  10.093   7.764  10.823  0.0783 -0.1182 -0.0841
  183loPI   GL1 2917   9.878   7.666  10.508 -0.1439  0.2866  0.1316
  183loPI   GL2 2918   9.652   7.851  10.356 -0.0018  0.0501 -0.2486
  183loPI   C1A 2919   9.926   7.392  10.210 -0.1438 -0.0181 -0.0394
  183loPI   C2A 2920   9.962   7.327   9.788  0.1218  0.0083  0.0480
  183loPI   C3A 2921   9.909   7.337   9.430  0.2859  0.0026  0.1293
  183loPI   C4A 2922   9.969   7.465   9.102 -0.0413 -0.2334  0.1534
  183loPI   C5A 2923   9.930   7.405   8.642 -0.4140 -0.2380 -0.1378
  183loPI   C6A 2924   9.836   7.356   8.212 -0.1357 -0.1463 -0.0896
  183loPI   C1B 2925   9.703   7.944   9.953  0.0024 -0.0296  0.0010
  183loPI   C2B 2926   9.724   7.978   9.521  0.1639  0.0457 -0.0162
  183loPI   C3B 2927   9.650   7.902   9.076 -0.2594  0.1005  0.0740
  183loPI   C4B 2928   9.730   8.025   8.637  0.1572 -0.4824  0.0545
  184loPI    C1 2929   0.147   9.685  10.654 -0.0345 -0.1463 -0.0921
  184loPI    C2 2930   0.240   9.365  10.875  0.0275 -0.0925 -0.0393
  184loPI    C3 2931   0.135   9.707  11.053 -0.0224 -0.0784 -0.0952
  184loPI   PO4 2932   0.344   9.833  10.488 -0.2663 -0.0505  0.3755
  184loPI   GL1 2933   0.399   9.950  10.099 -0.1582  0.0256 -0.4053
  184loPI   GL2 2934   0.032   9.914  10.101 -0.2710  0.2064 -0.0099
  184loPI   C1A 2935   0.513   9.833   9.693  0.0212  0.1675  0.0042
  184loPI   C2A 2936   0.497   9.858   9.202  0.0144  0.0679 -0.0469
  184loPI   C3A 2937   0.645   9.961   8.791 -0.0531 -0.0735  0.1949
  184loPI   C4A 2938   0.737   9.793   8.414 -0.2174 -0.0491  0.1034
  184loPI   C5A 2939   0.917   9.837   8.128 -0.0715  0.0532  0.1006
  184loPI   C6A 2940   0.802  10.018   7.790  0.0230  0.2448 -0.0338
  184loPI   C1B 2941   0.010   9.971   9.735 -0.2246 -0.1069 -0.0246
  184loPI   C2B 2942   0.007   9.989   9.305 -0.0546  0.0145  0.0450
  184loPI   C3B 2943   0.064   9.923   8.926 -0.0430 -0.2388 -0.1082
  184loPI   C4B 2944   0.213   9.820   8.566  0.2613  0.2822  0.2484
  185loPI    C1 2945   9.301   4.099  11.382 -0.1541 -0.1052  0.3307
  185loPI    C2 2946   9.499   4.399  11.557  0.0629 -0.0608  0.0160
  185loPI    C3 2947   9.099   4.401  11.550  0.0626  0.3064 -0.1245
  185loPI   PO4 2948   9.342   4.105  11.077  0.0839  0.2823 -0.0066
  185loPI   GL1 2949   9.380   3.787  10.840  0.2526  0.3108  0.0210
  185loPI   GL2 2950   9.119   3.959  10.672 -0.0142 -0.0389  0.2253
  185loPI   C1A 2951   9.572   4.051  10.508 -0.0193 -0.1160 -0.0423
  185loPI   C2A 2952   9.450   4.205  10.083 -0.0737 -0.0723  0.3479
  185loPI   C3A 2953   9.523   4.266   9.609 -0.1772 -0.2939  0.0763
  185loPI   C4A 2954   9.606   4.217   9.116  0.0739  0.0544  0.3105
  185loPI   C5A 2955   9.633   3.997   8.692  0.2059 -0.0239 -0.3382
  185loPI   C6A 2956   9.575   3.579   8.377  0.2163 -0.1507  0.0539
  185loPI   C1B 2957   9.199   3.820  10.227 -0.1721 -0.0004  0.0401
  185loPI   C2B 2958   9.319   3.764   9.855 -0.0899 -0.3246 -0.0317
  185loPI   C3B 2959   9.312   3.797   9.384  0.0811 -0.0149 -0.0114
  185loPI   C4B 2960   9.382   3.665   8.938  0.2023  0.1352 -0.0917
  186loPI    C1 2961   3.480   8.461  10.188  0.0809 -0.2513  0.1726
  186loPI    C2 2962   3.259   8.750  10.355  0.1612 -0.0597 -0.0479
  186loPI    C3 2963   3.530   8.553  10.574 -0.0130 -0.0865  0.1463
  186loPI   PO4 2964   3.306   8.421   9.994 -0.1360 -0.3834 -0.0546
  186loPI   GL1 2965   3.001   8.186   9.690 -0.0365 -0.0081 -0.1516
  186loPI   GL2 2966   3.007   7.852   9.652 -0.1507  0.0924  0.1401
  186loPI   C1A 2967   2.924   8.333   9.205 -0.1481 -0.3138 -0.2543
  186loPI   C2A 2968   2.818   8.296   8.764 -0.3451 -0.3569  0.1793
  186loPI   C3A 2969   2.773   8.367   8.346  0.0332 -0.5689  0.2695
  186loPI   C4A 2970   2.614   8.427   7.961 -0.1771  0.1594  0.0337
  186loPI   C5A 2971   2.238   8.402   7.725  0.2647 -0.1490 -0.1121
  186loPI   C6A 2972   1.800   8.469   7.533 -0.0327 -0.4261  0.0495
  186loPI   C1B 2973   3.145   7.810   9.237 -0.2433  0.2750  0.1200
  186loPI   C2B 2974   3.118   7.867   8.798  0.2129  0.1131  0.2191
  186loPI   C3B 2975   2.963   7.917   8.407  0.2844  0.1636  0.0149
  186loPI   C4B 2976   2.879   7.982   8.003  0.0020  0.0188 -0.3504
  187loPI    C1 2977   0.338   7.271  10.396 -0.0939 -0.2872 -0.0077
  187loPI    C2 2978  -0.019   7.447  10.361  0.0986  0.1552  0.1837
  187loPI    C3 2979   0.140   7.389  10.723  0.3004  0.1272  0.0917
  187loPI   PO4 2980   0.240   7.072  10.123  0.1212 -0.0973 -0.0091
  187loPI   GL1 2981  -0.038   6.851   9.987  0.0815 -0.0471  0.1401
  187loPI   GL2 2982  -0.291   6.743  10.114 -0.1003 -0.1799  0.1949
  187loPI   C1A 2983  -0.000   7.028   9.506 -0.1717 -0.3784 -0.0254
  187loPI   C2A 2984  -0.061   7.107   9.040 -0.0419  0.0114  0.0867
  187loPI   C3A 2985  -0.116   7.026   8.632 -0.2121 -0.1492 -0.2365
  187loPI   C4A 2986  -0.336   7.045   8.313  0.0145  0.1638  0.0464
  187loPI   C5A 2987  -0.450   6.717   8.080  0.2628  0.0714  0.1303
  187loPI   C6A 2988  -0.614   6.461   7.838 -0.1050  0.0186  0.1711
  187loPI   C1B 2989  -0.363   6.673   9.678  0.1485 -0.0369 -0.0311
  187loPI   C2B 2990  -0.374   6.544   9.277 -0.1313 -0.3535  0.0012
  187loPI   C3B 2991  -0.444   6.630   8.888  0.1253  0.2061  0.0273
  187loPI   C4B 2992  -0.648   6.569   8.468 -0.2794  0.0394  0.2214
  188loPI    C1 2993  12.388   5.150  11.089  0.0605 -0.1592 -0.0247
  188loPI    C2 2994  12.716   5.241  11.300  0.0177 -0.0126 -0.0201
  188loPI    C3 2995  12.371   5.428  11.376 -0.0152 -0.0106 -0.1718
  188loPI   PO4 2996  12.521   5.142  10.831 -0.0873 -0.2003 -0.0640
  188loPI   GL1 2997  12.430   5.029  10.498 -0.0222  0.3911 -0.1735
  188loPI   GL2 2998  12.782   5.124  10.328  0.1679 -0.1236 -0.1228
  188loPI   C1A 2999  12.324   5.120  10.058  0.0280  0.1562 -0.2025
  188loPI   C2A 3000  12.290   5.092   9.685 -0.0131 -0.1003 -0.0537
  188loPI   C3A 3001  12.297   5.022   9.258 -0.0485 -0.2021 -0.1783
  188loPI   C4A 3002  12.337   4.992   8.806 -0.1456  0.3082  0.1777
  188loPI   C5A 3003  12.437   4.773   8.482 -0.0747  0.2013 -0.1437
  188loPI   C6A 3004  12.551   4.688   8.003 -0.3496  0.2001 -0.0085
  188loPI   C1B 3005  12.767   5.096   9.868  0.2361  0.1542  0.0682
  188loPI   C2B 3006  12.745   5.056   9.426  0.1388  0.1674 -0.0598
  188loPI   C3B 3007  12.842   4.977   8.969 -0.2346  0.1559 -0.1177
  188loPI   C4B 3008  12.729   5.183   8.502  0.0951  0.1899  0.1370
  189loPI    C1 3009   5.617   2.844  11.200  0.0367  0.0731 -0.2012
  189loPI    C2 3010   5.947   2.622  11.248  0.0976  0.2536  0.2702
  189loPI    C3 3011   5.586   2.458  11.302  0.1093  0.0883 -0.1199
  189loPI   PO4 3012   5.658   2.988  10.932  0.0057  0.0069 -0.3866
  189loPI   GL1 3013   5.779   3.001  10.550 -0.2376 -0.0129  0.3179
  189loPI   GL2 3014   5.914   2.838  10.436  0.1336  0.2246 -0.0341
  189loPI   C1A 3015   5.681   3.213  10.164 -0.1886  0.0198  0.1533
  189loPI   C2A 3016   5.567   3.176   9.769 -0.1196 -0.0867 -0.0420
  189loPI   C3A 3017   5.558   3.023   9.413 -0.1526  0.1067 -0.1882
  189loPI   C4A 3018   5.694   3.023   9.031 -0.0117 -0.0236  0.1260
  189loPI   C5A 3019   5.777   2.934   8.540 -0.2937  0.1219 -0.1065
  189loPI   C6A 3020   5.832   2.603   8.237  0.1355 -0.0231 -0.3353
  189loPI   C1B 3021   5.806   2.654   9.987 -0.1859 -0.0784 -0.2864
  189loPI   C2B 3022   5.744   2.609   9.566  0.2672 -0.0683 -0.2760
  189loPI   C3B 3023   5.825   2.574   9.215  0.2560 -0.1254 -0.2178
  189loPI   C4B 3024   5.878   2.560   8.815  0.0479  0.4496  0.1345
  190loPI    C1 3025  12.311   0.259  11.306 -0.0199 -0.1005  0.0883
  190loPI    C2 3026  12.090  -0.001  11.515 -0.0441 -0.0652  0.1068
  190loPI    C3 3027  12.449   0.110  11.651 -0.0289 -0.0978  0.0931
  190loPI   PO4 3028  12.189   0.283  11.016 -0.1671  0.1896 -0.2049
  190loPI   GL1 3029  12.132   0.609  10.706  0.1072 -0.0827 -0.1637
  190loPI   GL2 3030  12.380   0.895  10.658 -0.3092 -0.2802  0.1953
  190loPI   C1A 3031  12.116   0.472  10.384 -0.2466 -0.1235  0.1601
  190loPI   C2A 3032  12.090   0.484   9.842  0.1156 -0.2386 -0.2648
  190loPI   C3A 3033  12.040   0.488   9.456 -0.3077 -0.0318 -0.2810
  190loPI   C4A 3034  12.014   0.411   9.079  0.1464  0.1865  0.0592
  190loPI   C5A 3035  12.058   0.308   8.709  0.0340  0.2245  0.0103
  190loPI   C6A 3036  12.185  -0.137   8.391 -0.2685 -0.0267 -0.0656
  190loPI   C1B 3037  12.339   0.940  10.148  0.1282  0.0175  0.1524
  190loPI   C2B 3038  12.327   0.880   9.696 -0.3049  0.2509 -0.1740
  190loPI   C3B 3039  12.376   0.825   9.261  0.4549 -0.0973 -0.1620
  190loPI   C4B 3040  12.301   0.765   8.801 -0.1281 -0.3546  0.0541
  191loPI    C1 3041  16.868  10.967  11.078  0.0878 -0.0061  0.0696
  191loPI    C2 3042  16.808  11.214  11.387  0.1018  0.1530 -0.0537
  191loPI    C3 3043  17.123  10.968  11.386 -0.0417 -0.0359  0.1777
  191loPI   PO4 3044  16.592  10.950  11.017 -0.0877 -0.0909  0.4793
  191loPI   GL1 3045  16.356  11.044  10.595 -0.0150  0.0812 -0.2960
  191loPI   GL2 3046  16.285  11.319  10.531  0.3800 -0.1881 -0.2289
  191loPI   C1A 3047  16.512  10.932  10.294  0.1086 -0.1525  0.1298
  191loPI   C2A 3048  16.476  10.820   9.811  0.1632  0.1278 -0.2889
  191loPI   C3A 3049  16.411  10.920   9.424  0.1730  0.2251 -0.1901
  191loPI   C4A 3050  16.397  10.907   8.982 -0.1359  0.4198  0.1248
  191loPI   C5A 3051  16.459  10.809   8.562 -0.0090 -0.0859  0.0810
  191loPI   C6A 3052  16.284  10.962   8.269 -0.1418  0.1882  0.0867
  191loPI   C1B 3053  16.194  11.478  10.131 -0.0492  0.1338 -0.0905
  191loPI   C2B 3054  16.176  11.351   9.663 -0.0206 -0.1444  0.2413
  191loPI   C3B 3055  16.173  11.338   9.160 -0.3317 -0.1380 -0.0409
  191loPI   C4B 3056  16.136  11.292   8.681  0.2687  0.0844  0.2953
  192loPI    C1 3057  16.678   0.539  10.982 -0.2275 -0.2639  0.2052
  192loPI    C2 3058  16.962   0.298  11.128 -0.0791 -0.2226 -0.0097
  192loPI    C3 3059  16.804   0.585  11.359  0.2484 -0.0693  0.0290
  192loPI   PO4 3060  16.591   0.413  10.814  0.1760 -0.1185  0.1430
  192loPI   GL1 3061  16.438   0.198  10.481  0.2012  0.1773  0.3315
  192loPI   GL2 3062  16.502  -0.050  10.377 -0.1552  0.1285 -0.1941
  192loPI   C1A 3063  16.225   0.302   9.985 -0.2883 -0.0096 -0.1877
  192loPI   C2A 3064  16.211   0.225   9.582  0.2055  0.1719  0.0944
  192loPI   C3A 3065  16.245   0.169   9.170  0.0804 -0.1623 -0.1601
  192loPI   C4A 3066  16.264   0.230   8.764 -0.1714 -0.0248 -0.1445
  192loPI   C5A 3067  16.236   0.284   8.401  0.1910 -0.0613  0.0898
  192loPI   C6A 3068  16.271   0.344   8.046  0.2822  0.0092  0.3142
  192loPI   C1B 3069  16.445  -0.154   9.892  0.0060  0.0220 -0.4220
  192loPI   C2B 3070  16.512  -0.164   9.512  0.0939  0.1435  0.1766
  192loPI   C3B 3071  16.583  -0.278   9.072  0.1301 -0.1052  0.2481
  192loPI   C4B 3072  16.482  -0.243   8.665  0.1052 -0.1840 -0.0458
  193loPI    C1 3073   4.425   0.936  10.695  0.1009 -0.0544  0.1695
  193loPI    C2 3074   4.568   1.273  10.855 -0.1195  0.1711 -0.0974
  193loPI    C3 3075   4.324   1.038  11.068 -0.1657  0.3092  0.0035
  193loPI   PO4 3076   4.617   0.946  10.502 -0.0349  0.1237  0.2301
  193loPI   GL1 3077   4.735   0.969  10.078 -0.0228  0.1589  0.0414
  193loPI   GL2 3078   4.913   1.218  10.008 -0.2144 -0.1951  0.2006
  193loPI   C1A 3079   4.684   0.784   9.705  0.1224 -0.0629 -0.1631
  193loPI   C2A 3080   4.665   0.807   9.320 -0.1903 -0.2406 -0.1454
  193loPI   C3A 3081   4.625   0.827   8.903  0.2451  0.1098 -0.0366
  193loPI   C4A 3082   4.677   0.818   8.455  0.1415  0.1018  0.0882
  193loPI   C5A 3083   4.655   0.757   8.050 -0.2710 -0.0264  0.1058
  193loPI   C6A 3084   4.225   0.777   7.937  0.3511  0.0375 -0.0438
  193loPI   C1B 3085   4.975   1.278   9.643  0.2798 -0.1600 -0.1248
  193loPI   C2B 3086   5.000   1.282   9.196 -0.2804  0.0468  0.2464
  193loPI   C3B 3087   4.999   1.322   8.749  0.0973  0.3135 -0.3522
  193loPI   C4B 3088   5.181   1.260   8.360  0.1179 -0.0276  0.0007
  194loPI    C1 3089   9.267   7.835  11.204  0.1972  0.0174  0.0216
  194loPI    C2 3090   9.038   8.012  11.480 -0.1637 -0.0836 -0.2074
  194loPI    C3 3091   9.152   7.632  11.529 -0.0242 -0.0269 -0.0832
  194loPI   PO4 3092   9.141   8.067  11.001  0.0825  0.3649 -0.1134
  194loPI   GL1 3093   9.177   8.002  10.539  0.0870 -0.1525 -0.0579
  194loPI   GL2 3094   9.039   8.342  10.538 -0.0968 -0.0595  0.0575
  194loPI   C1A 3095   9.198   7.894  10.054  0.0448  0.0353 -0.3769
  194loPI   C2A 3096   9.164   7.882   9.763 -0.0946 -0.0853  0.0494
  194loPI   C3A 3097   9.217   7.849   9.340  0.1977 -0.1664  0.1226
  194loPI   C4A 3098   9.165   7.979   9.001 -0.0979 -0.2062  0.2819
  194loPI   C5A 3099   9.320   7.759   8.607  0.3108 -0.1878 -0.1294
  194loPI   C6A 3100   9.508   7.788   8.147  0.0056  0.3924 -0.2012
  194loPI   C1B 3101   9.288   8.378  10.155  0.0271  0.0495 -0.1140
  194loPI   C2B 3102   9.379   8.289   9.776 -0.1215 -0.2569  0.1043
  194loPI   C3B 3103   9.550   8.378   9.358 -0.1546 -0.1601  0.1990
  194loPI   C4B 3104   9.593   8.365   8.943  0.3421 -0.0676  0.0774
  195loPI    C1 3105  15.469   6.897  10.973 -0.0435  0.1106  0.0446
  195loPI    C2 3106  15.817   6.774  11.126 -0.0228  0.1213  0.0064
  195loPI    C3 3107  15.475   6.686  11.313 -0.0270 -0.2003 -0.1443
  195loPI   PO4 3108  15.450   6.773  10.741 -0.1769 -0.1097 -0.2450
  195loPI   GL1 3109  15.281   6.459  10.465  0.3317 -0.1288  0.0702
  195loPI   GL2 3110  15.542   6.341  10.384 -0.2085 -0.0412  0.1367
  195loPI   C1A 3111  15.203   6.275  10.029  0.2268 -0.1311  0.0856
  195loPI   C2A 3112  15.145   6.326   9.628 -0.1470  0.1205 -0.0684
  195loPI   C3A 3113  15.072   6.316   9.149  0.1875 -0.0600 -0.0551
  195loPI   C4A 3114  15.210   6.418   8.708  0.1102  0.1526 -0.2336
  195loPI   C5A 3115  15.045   6.113   8.371 -0.0411 -0.2612 -0.1243
  195loPI   C6A 3116  15.002   6.013   7.935  0.0198  0.1247  0.0373
  195loPI   C1B 3117  15.528   6.696  10.070 -0.0073  0.1126  0.1300
  195loPI   C2B 3118  15.444   6.772   9.612  0.0133  0.0151  0.5228
  195loPI   C3B 3119  15.352   6.740   9.167  0.0515  0.3530  0.0930
  195loPI   C4B 3120  15.496   6.804   8.815  0.1698  0.0294  0.1410
  196loPI    C1 3121  14.831   0.875  10.985  0.2598  0.3406  0.1214
  196loPI    C2 3122  14.530   0.890  11.248  0.1399  0.1437 -0.0023
  196loPI    C3 3123  14.860   1.107  11.310  0.0282  0.2584  0.2027
  196loPI   PO4 3124  14.703   0.606  10.840  0.0579 -0.1429  0.0013
  196loPI   GL1 3125  14.576   0.674  10.438 -0.1126 -0.1256  0.2148
  196loPI   GL2 3126  14.858   0.644  10.290 -0.1121  0.2752 -0.1769
  196loPI   C1A 3127  14.401   0.836  10.087 -0.1171 -0.1490 -0.1915
  196loPI   C2A 3128  14.491   0.812   9.740 -0.0472 -0.1318  0.1427
  196loPI   C3A 3129  14.428   0.751   9.462  0.0500  0.1727 -0.1215
  196loPI   C4A 3130  14.438   0.729   9.025  0.1269 -0.0215  0.2515
  196loPI   C5A 3131  14.411   0.652   8.572 -0.1019  0.1778 -0.1758
  196loPI   C6A 3132  14.635   0.629   8.116 -0.1125 -0.2534  0.1224
  196loPI   C1B 3133  14.972   0.725   9.918 -0.1061  0.0598  0.0487
  196loPI   C2B 3134  14.948   0.779   9.561 -0.0314 -0.3037 -0.3113
  196loPI   C3B 3135  14.954   0.683   9.161 -0.0787  0.2938 -0.2305
  196loPI   C4B 3136  15.019   0.725   8.774 -0.0859 -0.3314 -0.3116
  197loPI    C1 3137   8.876   4.993  11.084  0.0885  0.0403  0.3095
  197loPI    C2 3138   8.760   4.762  11.390  0.0724 -0.1557  0.1574
  197loPI    C3 3139   8.924   5.120  11.460  0.0164 -0.1748  0.3930
  197loPI   PO4 3140   8.889   4.831  10.860 -0.0698 -0.3413 -0.1628
  197loPI   GL1 3141   8.623   4.741  10.418 -0.0307  0.0038 -0.0973
  197loPI   GL2 3142   8.754   4.376  10.571  0.3750  0.0538 -0.1499
  197loPI   C1A 3143   8.741   4.627  10.005  0.0962 -0.2261  0.1260
  197loPI   C2A 3144   8.812   4.624   9.536 -0.2673 -0.1561 -0.0243
  197loPI   C3A 3145   8.780   4.726   9.148 -0.2986 -0.1858  0.1001
  197loPI   C4A 3146   8.925   4.745   8.643  0.1435 -0.0490  0.0120
  197loPI   C5A 3147   8.950   5.066   8.310 -0.0365  0.0107  0.0447
  197loPI   C6A 3148   9.215   5.496   8.163  0.0340 -0.1366 -0.0448
  197loPI   C1B 3149   8.970   4.225  10.231 -0.1420 -0.2026 -0.2027
  197loPI   C2B 3150   9.024   4.238   9.758 -0.1261  0.0421  0.1187
  197loPI   C3B 3151   9.040   4.193   9.343  0.5215 -0.0951 -0.1210
  197loPI   C4B 3152   9.104   4.289   8.906  0.0835 -0.1066  0.1479
  198loPI    C1 3153   6.982   2.823  11.445  0.3141  0.1099  0.1906
  198loPI    C2 3154   7.017   3.132  11.193  0.0340  0.0996  0.1360
  198loPI    C3 3155   7.129   3.171  11.575  0.1012  0.2345  0.1031
  198loPI   PO4 3156   7.045   2.601  11.210 -0.2058 -0.3486  0.3531
  198loPI   GL1 3157   7.032   2.600  10.815  0.3988 -0.0403  0.1121
  198loPI   GL2 3158   7.327   2.549  10.708  0.1748 -0.2442  0.1869
  198loPI   C1A 3159   6.845   2.716  10.437 -0.0977  0.1547  0.1421
  198loPI   C2A 3160   6.766   2.601   9.948 -0.0459 -0.0097  0.0141
  198loPI   C3A 3161   6.823   2.585   9.614 -0.0108  0.2895  0.1168
  198loPI   C4A 3162   6.899   2.568   9.202  0.0556 -0.2860 -0.0143
  198loPI   C5A 3163   6.995   2.530   8.699  0.2415  0.1979  0.1254
  198loPI   C6A 3164   7.239   2.444   8.287  0.0874 -0.2563 -0.1103
  198loPI   C1B 3165   7.485   2.594  10.348 -0.0186  0.2325 -0.0341
  198loPI   C2B 3166   7.373   2.612   9.949  0.2510 -0.0188  0.1447
  198loPI   C3B 3167   7.366   2.584   9.553 -0.0504 -0.1894 -0.1297
  198loPI   C4B 3168   7.424   2.490   9.171 -0.0457  0.2020 -0.1153
  199loPI    C1 3169   6.985   8.964  10.455  0.2208  0.1299  0.1551
  199loPI    C2 3170   7.175   8.682  10.666  0.1835  0.0585  0.0939
  199loPI    C3 3171   6.870   8.582  10.428  0.1294  0.1598  0.1201
  199loPI   PO4 3172   7.205   9.106  10.277 -0.0731 -0.1601  0.2136
  199loPI   GL1 3173   7.384   8.964   9.882 -0.1226 -0.0123 -0.1821
  199loPI   GL2 3174   7.262   9.361   9.887  0.1875  0.0777  0.1795
  199loPI   C1A 3175   7.588   8.842   9.525  0.0264  0.3217  0.0103
  199loPI   C2A 3176   7.669   8.788   9.090  0.0623  0.0583 -0.0159
  199loPI   C3A 3177   7.659   8.774   8.706  0.1558 -0.1733  0.1635
  199loPI   C4A 3178   7.818   8.925   8.280 -0.0608  0.0799  0.0441
  199loPI   C5A 3179   8.165   9.042   7.954 -0.1338  0.0515 -0.1394
  199loPI   C6A 3180   8.463   9.086   7.593  0.0072  0.2729 -0.2798
  199loPI   C1B 3181   7.317   9.315   9.552  0.1017  0.2203 -0.4249
  199loPI   C2B 3182   7.417   9.260   9.170 -0.0765 -0.0186  0.0452
  199loPI   C3B 3183   7.390   9.187   8.646  0.0985  0.1270 -0.0216
  199loPI   C4B 3184   7.420   9.199   8.137 -0.1020 -0.1592  0.0614
  200loPI    C1 3185   6.070   6.416  10.539  0.0425 -0.0346  0.2247
  200loPI    C2 3186   5.871   6.181  10.795 -0.3218  0.0420  0.0183
  200loPI    C3 3187   5.692   6.504  10.639  0.0452  0.2433  0.0039
  200loPI   PO4 3188   6.191   6.365  10.449  0.1073  0.2370  0.0746
  200loPI   GL1 3189   6.163   6.286  10.003  0.0785 -0.0550  0.1071
  200loPI   GL2 3190   6.467   6.172  10.056  0.2427 -0.1257 -0.0215
  200loPI   C1A 3191   6.197   6.335   9.639  0.0748  0.1570  0.0107
  200loPI   C2A 3192   6.216   6.292   9.248 -0.2582 -0.2425  0.1241
  200loPI   C3A 3193   6.096   6.120   8.913 -0.0681  0.0668 -0.3387
  200loPI   C4A 3194   6.137   6.050   8.532 -0.1024  0.2015  0.1056
  200loPI   C5A 3195   6.058   6.076   8.177  0.0017 -0.6014  0.1446
  200loPI   C6A 3196   5.783   6.363   7.884 -0.1204  0.0713 -0.0620
  200loPI   C1B 3197   6.627   6.150   9.649 -0.3860  0.2444 -0.0401
  200loPI   C2B 3198   6.623   6.085   9.182  0.1072  0.0097 -0.2158
  200loPI   C3B 3199   6.576   6.124   8.803 -0.3057  0.1843 -0.0451
  200loPI   C4B 3200   6.640   5.939   8.347  0.1294 -0.4534 -0.2056
  201loPI    C1 3201   1.042  11.852  10.440 -0.0301  0.3008  0.1193
  201loPI    C2 3202   0.651  11.787  10.494 -0.0216  0.0189 -0.1313
  201loPI    C3 3203   0.891  11.839  10.810 -0.2046 -0.1511  0.0389
  201loPI   PO4 3204   1.022  12.032  10.177  0.0300  0.2898 -0.1844
  201loPI   GL1 3205   1.376  11.848   9.859 -0.1851 -0.0923  0.2023
  201loPI   GL2 3206   1.266  11.524  10.070 -0.1692  0.1626  0.1981
  201loPI   C1A 3207   1.284  11.956   9.489 -0.1375  0.0797 -0.1095
  201loPI   C2A 3208   1.232  12.051   9.067 -0.0880 -0.3954 -0.0397
  201loPI   C3A 3209   1.456  12.074   8.696 -0.1870 -0.0448  0.1195
  201loPI   C4A 3210   1.343  12.257   8.382  0.1532 -0.1947 -0.0882
  201loPI   C5A 3211   1.391  12.565   8.014  0.3220 -0.0626 -0.1352
  201loPI   C6A 3212   1.384  12.758   7.593 -0.2355  0.1780  0.1991
  201loPI   C1B 3213   1.049  11.485   9.660 -0.1966  0.0229 -0.1402
  201loPI   C2B 3214   1.112  11.577   9.228  0.1366 -0.0335  0.1289
  201loPI   C3B 3215   1.156  11.647   8.784  0.2214 -0.0748  0.1496
  201loPI   C4B 3216   1.341  11.715   8.331  0.1482  0.2705 -0.0441
  202loPI    C1 3217  12.678   4.371  11.062  0.2641  0.0442  0.2372
  202loPI    C2 3218  12.382   4.462  11.316  0.1437  0.0915  0.0817
  202loPI    C3 3219  12.652   4.740  11.215 -0.0269  0.1837 -0.1307
  202loPI   PO4 3220  12.528   4.224  10.757  0.0383  0.1976  0.0094
  202loPI   GL1 3221  12.597   4.066  10.380  0.0585 -0.2851 -0.0480
  202loPI   GL2 3222  12.925   4.169  10.257 -0.0636 -0.1164 -0.1081
  202loPI   C1A 3223  12.242   4.164  10.065  0.1631  0.1976  0.0405
  202loPI   C2A 3224  12.218   4.155   9.618  0.0025  0.2799  0.2684
  202loPI   C3A 3225  12.214   4.159   9.159 -0.0695 -0.0136  0.1414
  202loPI   C4A 3226  12.340   4.068   8.857  0.0137  0.4219 -0.3514
  202loPI   C5A 3227  12.432   4.252   8.544 -0.2297 -0.2060  0.0234
  202loPI   C6A 3228  12.799   4.379   8.379  0.0259 -0.1928 -0.0857
  202loPI   C1B 3229  12.898   4.139   9.821  0.1722  0.2526  0.2109
  202loPI   C2B 3230  12.873   4.190   9.442  0.0422 -0.1195 -0.0802
  202loPI   C3B 3231  12.822   4.019   8.983 -0.2941 -0.0190 -0.0696
  202loPI   C4B 3232  13.060   3.929   8.716 -0.0109 -0.0992  0.1046
  203loPI    C1 3233   1.544  11.920  10.417  0.1888 -0.1061  0.0189
  203loPI    C2 3234   1.769  12.047  10.723 -0.0624  0.3363  0.0292
  203loPI    C3 3235   1.393  11.928  10.787  0.1233 -0.3048 -0.0026
  203loPI   PO4 3236   1.696  11.776  10.222  0.1541 -0.1360 -0.1335
  203loPI   GL1 3237   1.830  11.998   9.887 -0.1299  0.0348  0.0021
  203loPI   GL2 3238   2.013  11.749   9.880 -0.1153  0.1715  0.1702
  203loPI   C1A 3239   1.828  12.040   9.443  0.0034 -0.2583  0.5452
  203loPI   C2A 3240   1.781  12.204   9.092 -0.2291  0.0926  0.1464
  203loPI   C3A 3241   1.823  12.438   8.706 -0.2360  0.0973  0.0341
  203loPI   C4A 3242   1.820  12.545   8.271  0.0348  0.1624  0.2592
  203loPI   C5A 3243   1.874  12.799   7.931 -0.1998 -0.0291  0.1678
  203loPI   C6A 3244   1.796  13.014   7.486  0.2786  0.0544  0.2273
  203loPI   C1B 3245   2.099  11.663   9.420  0.4377  0.0049 -0.1314
  203loPI   C2B 3246   1.969  11.819   8.929 -0.0904  0.4994 -0.1145
  203loPI   C3B 3247   2.066  12.042   8.554 -0.0652 -0.0027 -0.1595
  203loPI   C4B 3248   1.762  11.973   8.150 -0.2968 -0.1223  0.0587
  204loPI    C1 3249   0.127  12.123  10.768 -0.0736 -0.2900  0.0409
  204loPI    C2 3250  -0.232  12.067  10.599  0.0011  0.0846 -0.2529
  204loPI    C3 3251  -0.207  12.206  10.973 -0.1612  0.1089 -0.2504
  204loPI   PO4 3252   0.237  12.189  10.526  0.0844 -0.0903  0.0515
  204loPI   GL1 3253   0.073  12.061  10.127 -0.1932 -0.4724 -0.0703
  204loPI   GL2 3254   0.088  11.791   9.995 -0.2669 -0.0993 -0.2394
  204loPI   C1A 3255  -0.168  12.190   9.766 -0.2324  0.1140  0.0226
  204loPI   C2A 3256  -0.280  12.175   9.346  0.0126 -0.1841  0.1640
  204loPI   C3A 3257  -0.202  12.333   9.032 -0.2714  0.0694  0.3705
  204loPI   C4A 3258  -0.306  12.326   8.574  0.0580 -0.0478  0.3613
  204loPI   C5A 3259  -0.320  12.005   8.280 -0.1304  0.2438 -0.1078
  204loPI   C6A 3260   0.116  11.909   8.166  0.2024  0.0957 -0.2816
  204loPI   C1B 3261   0.097  11.846   9.521 -0.2750  0.0123 -0.1212
  204loPI   C2B 3262   0.003  11.840   9.047 -0.0375  0.1464  0.1119
  204loPI   C3B 3263  -0.036  11.722   8.601 -0.2160  0.3641 -0.0491
  204loPI   C4B 3264  -0.200  11.522   8.187 -0.2360 -0.1443  0.1571
  205loPI    C1 3265   7.626  15.517  11.017  0.3206 -0.0042  0.1947
  205loPI    C2 3266   7.624  15.916  10.998  0.1227 -0.0023  0.2246
  205loPI    C3 3267   7.538  15.732  11.342  0.0365 -0.0722  0.1660
  205loPI   PO4 3268   7.535  15.436  10.837 -0.0913  0.0371 -0.3867
  205loPI   GL1 3269   7.635  15.166  10.573  0.2667  0.1023  0.0427
  205loPI   GL2 3270   7.804  15.036  10.488  0.2994  0.1962 -0.0649
  205loPI   C1A 3271   7.414  15.411  10.172 -0.0085  0.1710 -0.1096
  205loPI   C2A 3272   7.410  15.531   9.753 -0.1587 -0.1541 -0.0790
  205loPI   C3A 3273   7.518  15.533   9.279  0.2327  0.0371 -0.1839
  205loPI   C4A 3274   7.458  15.473   8.917 -0.1766  0.1555  0.0543
  205loPI   C5A 3275   7.733  15.411   8.667  0.0455 -0.1693 -0.0209
  205loPI   C6A 3276   8.144  15.556   8.511 -0.2631  0.0887  0.1163
  205loPI   C1B 3277   7.677  15.013  10.012 -0.0315  0.1334  0.0076
  205loPI   C2B 3278   7.638  14.923   9.621  0.2175 -0.1796  0.1669
  205loPI   C3B 3279   7.704  15.046   9.220  0.1510  0.1018 -0.0267
  205loPI   C4B 3280   7.730  14.870   8.819 -0.1208 -0.2961 -0.0946
  206loPI    C1 3281  11.118   4.070  11.335 -0.0301 -0.0057 -0.1675
  206loPI    C2 3282  11.018   3.724  11.507  0.0186  0.0217 -0.0832
  206loPI    C3 3283  11.094   4.045  11.733  0.1767  0.0330 -0.1513
  206loPI   PO4 3284  11.091   4.019  11.073  0.2100  0.2668  0.0414
  206loPI   GL1 3285  11.358   3.970  10.711  0.1312  0.2173 -0.0939
  206loPI   GL2 3286  11.050   3.852  10.598  0.0002  0.0738 -0.1649
  206loPI   C1A 3287  11.220   4.264  10.351 -0.4381 -0.3027 -0.0294
  206loPI   C2A 3288  11.106   4.238  10.020  0.3665 -0.0039  0.1663
  206loPI   C3A 3289  11.148   4.162   9.570 -0.0706  0.1295  0.2163
  206loPI   C4A 3290  11.224   4.249   9.167 -0.0187  0.1886  0.0727
  206loPI   C5A 3291  11.298   4.099   8.733  0.1801 -0.1493 -0.0475
  206loPI   C6A 3292  10.977   3.841   8.652 -0.4285 -0.0006  0.1574
  206loPI   C1B 3293  10.922   3.686  10.219 -0.1396 -0.0612 -0.2430
  206loPI   C2B 3294  10.828   3.848   9.876 -0.1111  0.1172 -0.4383
  206loPI   C3B 3295  10.800   3.704   9.520 -0.1096  0.0814 -0.0581
  206loPI   C4B 3296  10.962   3.750   9.143  0.1452  0.1630 -0.1733
  207loPI    C1 3297   9.686   1.423  11.300  0.1256 -0.0595 -0.3039
  207loPI    C2 3298   9.617   1.167  11.599  0.2527 -0.0058 -0.2277
  207loPI    C3 3299   9.716   1.547  11.679 -0.1160  0.1187 -0.3403
  207loPI   PO4 3300   9.494   1.368  11.085 -0.0251 -0.1275  0.1248
  207loPI   GL1 3301   9.374   1.454  10.717  0.3594 -0.1149  0.2969
  207loPI   GL2 3302   9.111   1.572  10.620  0.0647 -0.0761  0.4608
  207loPI   C1A 3303   9.469   1.507  10.292 -0.0356  0.3000  0.0653
  207loPI   C2A 3304   9.513   1.559   9.924 -0.3853 -0.2801  0.2368
  207loPI   C3A 3305   9.513   1.528   9.509 -0.0595  0.0090 -0.0475
  207loPI   C4A 3306   9.471   1.526   9.150  0.0586  0.0390  0.1671
  207loPI   C5A 3307   9.692   1.481   8.741 -0.0530  0.0189  0.0010
  207loPI   C6A 3308   9.721   1.732   8.343 -0.1065 -0.0925  0.0098
  207loPI   C1B 3309   9.016   1.644  10.254  0.2200 -0.1422 -0.0391
  207loPI   C2B 3310   8.969   1.601   9.818 -0.1137 -0.0173  0.0871
  207loPI   C3B 3311   9.011   1.569   9.393 -0.0086  0.3296 -0.0020
  207loPI   C4B 3312   9.046   1.508   8.977 -0.1091  0.0522 -0.2509
  208loPI    C1 3313   9.860   5.662  11.316  0.1825 -0.3279 -0.0459
  208loPI    C2 3314  10.183   5.879  11.222  0.1601 -0.2199  0.1214
  208loPI    C3 3315  10.062   5.855  11.603 -0.1544 -0.0833  0.0334
  208loPI   PO4 3316   9.747   5.674  11.119  0.0419 -0.2556 -0.1706
  208loPI   GL1 3317   9.533   5.673  10.693  0.0322 -0.1545 -0.0462
  208loPI   GL2 3318   9.889   5.684  10.670 -0.2105 -0.0402 -0.1241
  208loPI   C1A 3319   9.281   5.576  10.250 -0.0764  0.1544  0.0043
  208loPI   C2A 3320   9.408   5.602   9.814 -0.1073  0.1922  0.3241
  208loPI   C3A 3321   9.439   5.635   9.422  0.0207  0.1319 -0.1516
  208loPI   C4A 3322   9.430   5.666   9.060  0.0706 -0.0945  0.1740
  208loPI   C5A 3323   9.466   5.638   8.657 -0.0058 -0.0798 -0.3394
  208loPI   C6A 3324   9.437   5.919   8.361 -0.0138  0.0948 -0.0537
  208loPI   C1B 3325   9.758   5.598  10.177 -0.1626 -0.0463  0.1950
  208loPI   C2B 3326   9.917   5.555   9.792  0.0387  0.0418 -0.0476
  208loPI   C3B 3327   9.947   5.612   9.289 -0.2036 -0.0203  0.2209
  208loPI   C4B 3328   9.963   5.692   8.861  0.1417 -0.1296  0.2411
  209loPI    C1 3329   5.020  12.035  10.565 -0.1017  0.0571  0.0374
  209loPI    C2 3330   4.858  12.329  10.782  0.0328  0.1515  0.0103
  209loPI    C3 3331   5.065  12.038  10.963 -0.4308 -0.1445  0.0803
  209loPI   PO4 3332   4.932  12.072  10.328  0.0593 -0.4690 -0.1553
  209loPI   GL1 3333   4.751  12.257   9.928 -0.0133 -0.0221 -0.0780
  209loPI   GL2 3334   4.451  12.264   9.798  0.2268  0.2324  0.1962
  209loPI   C1A 3335   4.926  12.303   9.621 -0.0130  0.0457 -0.1066
  209loPI   C2A 3336   4.917  12.344   9.077  0.0633  0.1741 -0.1673
  209loPI   C3A 3337   4.925  12.391   8.686 -0.4473 -0.1203  0.3606
  209loPI   C4A 3338   4.878  12.368   8.348 -0.0927 -0.0479  0.1880
  209loPI   C5A 3339   4.887  12.479   7.927  0.0290  0.0587  0.3404
  209loPI   C6A 3340   4.943  12.867   7.830  0.0959 -0.1604 -0.0666
  209loPI   C1B 3341   4.421  12.279   9.315  0.1787  0.1204 -0.0801
  209loPI   C2B 3342   4.439  12.334   8.961 -0.0139  0.0763  0.5017
  209loPI   C3B 3343   4.473  12.442   8.579 -0.0945  0.1051  0.0541
  209loPI   C4B 3344   4.315  12.372   8.113 -0.1370  0.1267 -0.2147
  210loPI    C1 3345   3.852  16.647  10.853  0.0576  0.0238  0.0305
  210loPI    C2 3346   4.055  16.963  10.989 -0.0013  0.0821 -0.0159
  210loPI    C3 3347   4.189  16.593  11.061  0.0879  0.1185  0.0067
  210loPI   PO4 3348   3.771  16.659  10.529 -0.0005 -0.1773  0.0456
  210loPI   GL1 3349   3.648  16.857  10.186  0.2237 -0.1211 -0.0929
  210loPI   GL2 3350   3.735  17.080  10.062 -0.0163 -0.1910  0.2351
  210loPI   C1A 3351   3.312  16.845   9.900  0.1585  0.2875 -0.2966
  210loPI   C2A 3352   3.296  16.748   9.510 -0.0226 -0.1637  0.0101
  210loPI   C3A 3353   3.171  16.912   9.086  0.0206  0.2459 -0.0669
  210loPI   C4A 3354   3.012  17.122   8.769 -0.0383 -0.0462 -0.0665
  210loPI   C5A 3355   2.848  17.216   8.355  0.1725 -0.1435 -0.1595
  210loPI   C6A 3356   2.908  17.330   7.935  0.1208 -0.0723 -0.1121
  210loPI   C1B 3357   3.678  17.104   9.578  0.2255  0.1608  0.0208
  210loPI   C2B 3358   3.708  17.060   9.115  0.3480 -0.2685  0.4106
  210loPI   C3B 3359   3.601  17.091   8.733 -0.0483 -0.2666 -0.1397
  210loPI   C4B 3360   3.504  17.222   8.315  0.0891  0.0147  0.0687
  211loPI    C1 3361   3.529  13.417  10.625 -0.0325 -0.0850  0.0058
  211loPI    C2 3362   3.855  13.557  10.808 -0.0952  0.1314 -0.0457
  211loPI    C3 3363   3.768  13.167  10.826  0.0197  0.1150  0.1955
  211loPI   PO4 3364   3.511  13.653  10.405 -0.0001  0.1912 -0.0214
  211loPI   GL1 3365   3.674  13.631  10.039 -0.1862 -0.2669  0.3852
  211loPI   GL2 3366   3.832  13.523   9.915 -0.2755 -0.0347 -0.1282
  211loPI   C1A 3367   3.641  13.899   9.564 -0.1641 -0.2400 -0.1787
  211loPI   C2A 3368   3.809  14.141   9.284 -0.2205 -0.3138 -0.1408
  211loPI   C3A 3369   3.947  14.169   8.842 -0.0051 -0.0880 -0.1279
  211loPI   C4A 3370   3.939  14.187   8.463  0.0552 -0.1640 -0.0785
  211loPI   C5A 3371   4.199  14.266   8.160 -0.1625 -0.1316 -0.0433
  211loPI   C6A 3372   4.113  14.391   7.743 -0.1772  0.1473 -0.1438
  211loPI   C1B 3373   4.029  13.659   9.492  0.5031  0.2439  0.0325
  211loPI   C2B 3374   4.074  13.731   9.071 -0.2720 -0.1197 -0.0727
  211loPI   C3B 3375   4.148  13.750   8.647  0.2907  0.0475 -0.1183
  211loPI   C4B 3376   4.237  13.815   8.321 -0.2114 -0.0944 -0.0854
  212loPI    C1 3377   0.852  13.456  10.636 -0.0939 -0.0617  0.2180
  212loPI    C2 3378   1.146  13.717  10.708 -0.2923  0.1634  0.2281
  212loPI    C3 3379   1.051  13.441  10.982 -0.1353  0.1317  0.2513
  212loPI   PO4 3380   0.868  13.422  10.342  0.0467 -0.0921 -0.0112
  212loPI   GL1 3381   0.526  13.363  10.154 -0.4890  0.0809  0.1947
  212loPI   GL2 3382   0.614  13.635  10.022 -0.0288  0.1348  0.1732
  212loPI   C1A 3383   0.200  13.418   9.862  0.2413 -0.0076 -0.3061
  212loPI   C2A 3384   0.105  13.403   9.473 -0.1399  0.0053  0.2181
  212loPI   C3A 3385   0.117  13.473   9.051  0.1680 -0.3230 -0.0698
  212loPI   C4A 3386   0.167  13.702   8.630  0.3315 -0.1376 -0.2185
  212loPI   C5A 3387   0.488  13.786   8.239  0.1406 -0.2252  0.1517
  212loPI   C6A 3388   0.855  13.746   8.042 -0.0711  0.0825 -0.5691
  212loPI   C1B 3389   0.495  13.775   9.577  0.0883 -0.2600 -0.1831
  212loPI   C2B 3390   0.445  13.992   9.149  0.0245 -0.2990  0.0849
  212loPI   C3B 3391   0.524  14.048   8.691 -0.1387  0.2527 -0.0941
  212loPI   C4B 3392   0.356  14.316   8.310  0.0392  0.1816 -0.0847
  213loPI    C1 3393   8.472   8.451  11.048 -0.1806 -0.3338 -0.1682
  213loPI    C2 3394   8.631   8.177  11.293  0.0347 -0.0581  0.0063
  213loPI    C3 3395   8.392   8.462  11.440 -0.0119 -0.0214 -0.1393
  213loPI   PO4 3396   8.349   8.398  10.878 -0.0601 -0.0679 -0.1036
  213loPI   GL1 3397   8.311   8.347  10.436  0.0191 -0.0321  0.4582
  213loPI   GL2 3398   8.294   8.602  10.304  0.2206  0.1667 -0.2758
  213loPI   C1A 3399   8.567   8.073  10.214  0.0418  0.0758 -0.6349
  213loPI   C2A 3400   8.673   7.936   9.847  0.0765 -0.2042  0.2302
  213loPI   C3A 3401   8.729   7.936   9.511  0.0736 -0.0554 -0.0532
  213loPI   C4A 3402   8.683   7.949   9.054  0.1232 -0.0199  0.3405
  213loPI   C5A 3403   8.798   8.000   8.553 -0.0941 -0.0905  0.2935
  213loPI   C6A 3404   8.703   8.296   8.241 -0.3249  0.0090  0.2453
  213loPI   C1B 3405   8.262   8.481   9.912 -0.3779  0.1101  0.3220
  213loPI   C2B 3406   8.402   8.344   9.587  0.1588 -0.1165 -0.0554
  213loPI   C3B 3407   8.427   8.380   9.157 -0.0373  0.1593 -0.3794
  213loPI   C4B 3408   8.465   8.388   8.704 -0.4189  0.4454  0.0473
  214loPI    C1 3409   1.978   0.932  10.807  0.2597  0.0331 -0.0803
  214loPI    C2 3410   1.676   0.715  10.954  0.3138 -0.0370 -0.0722
  214loPI    C3 3411   1.690   1.109  11.021  0.2268 -0.0342 -0.0687
  214loPI   PO4 3412   2.053   0.732  10.588  0.2711 -0.3345  0.4528
  214loPI   GL1 3413   1.974   0.469  10.188 -0.3559  0.1954  0.1914
  214loPI   GL2 3414   2.137   0.720  10.017  0.1691 -0.0263  0.1512
  214loPI   C1A 3415   1.671   0.557   9.784 -0.0096 -0.1190 -0.2163
  214loPI   C2A 3416   1.673   0.908   9.523 -0.0142  0.2419  0.0234
  214loPI   C3A 3417   1.529   0.888   9.060  0.2056  0.0432 -0.0564
  214loPI   C4A 3418   1.506   0.995   8.640  0.2901  0.2003  0.0187
  214loPI   C5A 3419   1.441   1.064   8.248  0.1582  0.3502 -0.1298
  214loPI   C6A 3420   1.760   1.258   8.079  0.1604 -0.1088 -0.1430
  214loPI   C1B 3421   2.123   0.756   9.526 -0.0166  0.2747 -0.0713
  214loPI   C2B 3422   2.077   0.817   9.155 -0.3152 -0.0749  0.0984
  214loPI   C3B 3423   1.989   0.999   8.736 -0.2258  0.0043 -0.0437
  214loPI   C4B 3424   2.152   0.985   8.343  0.0188 -0.1930 -0.1164
  215loPI    C1 3425  11.385  14.342  11.344 -0.0981  0.2151 -0.1388
  215loPI    C2 3426  11.718  14.551  11.416  0.0419 -0.0714  0.0679
  215loPI    C3 3427  11.528  14.368  11.717 -0.0602 -0.2664 -0.1134
  215loPI   PO4 3428  11.479  14.238  11.070  0.0378  0.1073 -0.0677
  215loPI   GL1 3429  11.504  14.025  10.609 -0.1426 -0.0760 -0.0711
  215loPI   GL2 3430  11.885  14.176  10.623 -0.0620  0.2110 -0.4321
  215loPI   C1A 3431  11.460  14.217  10.158 -0.3566  0.2175 -0.1724
  215loPI   C2A 3432  11.486  14.369   9.687  0.1090 -0.2766 -0.2873
  215loPI   C3A 3433  11.561  14.285   9.223 -0.2447 -0.1813 -0.1623
  215loPI   C4A 3434  11.485  14.229   8.780 -0.0826 -0.2553 -0.1362
  215loPI   C5A 3435  11.654  14.293   8.471  0.3389 -0.0641 -0.1231
  215loPI   C6A 3436  12.039  14.524   8.366  0.1446  0.0006  0.0204
  215loPI   C1B 3437  12.052  14.159  10.189  0.0723  0.2351 -0.2130
  215loPI   C2B 3438  11.978  14.339   9.750  0.3184  0.0360  0.0644
  215loPI   C3B 3439  12.051  14.348   9.344 -0.1922 -0.1717  0.1992
  215loPI   C4B 3440  12.139  14.201   8.853 -0.0722 -0.1232  0.1023
  216loPI    C1 3441   0.924  11.281  10.633 -0.0067  0.0320 -0.0094
  216loPI    C2 3442   1.191  10.994  10.713  0.0613  0.1054  0.0290
  216loPI    C3 3443   0.816  10.963  10.850  0.1125  0.1143  0.1737
  216loPI   PO4 3444   0.900  11.327  10.360  0.3309  0.2857  0.1165
  216loPI   GL1 3445   0.800  11.134   9.959  0.2198 -0.1241  0.3118
  216loPI   GL2 3446   0.828  10.743   9.902 -0.2311  0.1267  0.0858
  216loPI   C1A 3447   0.741  11.145   9.679  0.1198  0.0890  0.0171
  216loPI   C2A 3448   0.641  11.231   9.304 -0.0915  0.2890 -0.1273
  216loPI   C3A 3449   0.726  11.373   8.895 -0.1750 -0.2113  0.2801
  216loPI   C4A 3450   0.835  11.286   8.452 -0.2477  0.1203  0.0107
  216loPI   C5A 3451   0.869  11.526   8.064  0.3114  0.0008  0.0101
  216loPI   C6A 3452   1.060  11.778   7.723 -0.3079  0.0571 -0.2921
  216loPI   C1B 3453   0.820  10.704   9.437 -0.0662 -0.0990  0.0371
  216loPI   C2B 3454   0.706  10.835   9.008 -0.2518  0.1585  0.0576
  216loPI   C3B 3455   0.434  10.869   8.607 -0.0951  0.2387 -0.1100
  216loPI   C4B 3456   0.512  10.974   8.234  0.1662  0.0493  0.1731
  217loPI    C1 3457  15.908  15.712  11.238 -0.1752 -0.2473 -0.2043
  217loPI    C2 3458  15.520  15.771  11.314 -0.1167 -0.1799  0.0510
  217loPI    C3 3459  15.787  15.788  11.611  0.1124  0.0222 -0.1621
  217loPI   PO4 3460  15.871  15.603  10.965  0.1176  0.2314  0.2837
  217loPI   GL1 3461  15.780  15.621  10.480  0.0832  0.1834  0.3484
  217loPI   GL2 3462  15.849  15.860  10.474  0.0419 -0.1068 -0.2262
  217loPI   C1A 3463  15.580  15.483  10.068 -0.1491  0.0423  0.0534
  217loPI   C2A 3464  15.570  15.380   9.568  0.0638 -0.1487  0.1625
  217loPI   C3A 3465  15.714  15.483   9.199  0.2039  0.0239 -0.1010
  217loPI   C4A 3466  15.653  15.506   8.757 -0.2752 -0.1666  0.0285
  217loPI   C5A 3467  15.533  15.708   8.428 -0.1472  0.3740 -0.1920
  217loPI   C6A 3468  15.455  16.092   8.398 -0.0572 -0.2591 -0.1333
  217loPI   C1B 3469  15.905  15.884   9.995  0.2452  0.1631 -0.2503
  217loPI   C2B 3470  15.985  15.950   9.577 -0.1679  0.0544  0.4066
  217loPI   C3B 3471  15.989  15.895   9.178  0.0369  0.0117 -0.2081
  217loPI   C4B 3472  15.856  15.933   8.791  0.1100  0.1244  0.1903
  218loPI    C1 3473  13.223   7.012  11.053 -0.1292  0.0841 -0.0459
  218loPI    C2 3474  13.415   7.221  11.335  0.2631 -0.1120 -0.1608
  218loPI    C3 3475  13.084   7.018  11.428  0.0732  0.2739  0.0287
  218loPI   PO4 3476  13.370   6.870  10.946 -0.1319 -0.3380 -0.0667
  218loPI   GL1 3477  13.244   6.946  10.491 -0.0031  0.2084 -0.0863
  218loPI   GL2 3478  13.188   7.220  10.564  0.0087 -0.0642 -0.0985
  218loPI   C1A 3479  13.560   6.957  10.126  0.0427 -0.0520  0.1703
  218loPI   C2A 3480  13.461   6.907   9.722 -0.0257 -0.0465 -0.0241
  218loPI   C3A 3481  13.323   6.909   9.382  0.1551  0.3255 -0.2179
  218loPI   C4A 3482  13.349   6.782   9.034  0.1415  0.2470  0.1392
  218loPI   C5A 3483  13.199   6.748   8.606 -0.0144 -0.2448  0.0064
  218loPI   C6A 3484  12.784   6.558   8.465 -0.0437 -0.0712 -0.4056
  218loPI   C1B 3485  13.125   7.361  10.125  0.2935  0.0472 -0.1116
  218loPI   C2B 3486  13.130   7.371   9.695 -0.2063  0.2387  0.2202
  218loPI   C3B 3487  13.063   7.291   9.342 -0.2336  0.0169  0.0905
  218loPI   C4B 3488  13.147   7.364   8.942  0.0731 -0.0776  0.3190
  219loPI    C1 3489   5.194   7.321  10.024 -0.0478 -0.1423  0.1814
  219loPI    C2 3490   4.818   7.440   9.958  0.0276  0.0295  0.0516
  219loPI    C3 3491   4.996   7.523  10.307 -0.1090 -0.1966  0.1773
  219loPI   PO4 3492   5.243   7.263   9.755  0.0146  0.0990  0.0677
  219loPI   GL1 3493   5.479   7.342   9.458 -0.2587 -0.1191 -0.1313
  219loPI   GL2 3494   5.199   7.381   9.205  0.1091 -0.0844  0.0454
  219loPI   C1A 3495   5.649   7.032   9.105  0.1291 -0.1600 -0.0679
  219loPI   C2A 3496   5.669   7.011   8.629  0.0081  0.1255  0.2413
  219loPI   C3A 3497   5.458   7.149   8.195 -0.3746 -0.0716 -0.1058
  219loPI   C4A 3498   5.485   7.284   7.824 -0.1520  0.0715  0.3286
  219loPI   C5A 3499   5.523   7.096   7.425  0.3560 -0.2604 -0.0606
  219loPI   C6A 3500   5.629   6.957   6.981 -0.2102 -0.2959 -0.0387
  219loPI   C1B 3501   5.326   7.333   8.826 -0.0344 -0.0451  0.1110
  219loPI   C2B 3502   5.173   7.489   8.432 -0.0091  0.3223 -0.0575
  219loPI   C3B 3503   4.978   7.935   8.330 -0.1591  0.0605  0.0331
  219loPI   C4B 3504   4.735   8.032   7.991 -0.1435  0.0769 -0.2959
  220loPI    C1 3505   2.890   5.993  10.216  0.0508  0.0688  0.2113
  220loPI    C2 3506   2.989   5.688  10.456 -0.0609  0.0254  0.2034
  220loPI    C3 3507   2.930   6.053  10.609 -0.0137  0.0242  0.2249
  220loPI   PO4 3508   2.706   5.887  10.104  0.1453 -0.1944 -0.0894
  220loPI   GL1 3509   2.782   5.770   9.641  0.1052  0.2524  0.3592
  220loPI   GL2 3510   2.506   5.858   9.634  0.1086  0.0802  0.0502
  220loPI   C1A 3511   3.171   5.588   9.430 -0.0780  0.2444  0.1802
  220loPI   C2A 3512   3.333   5.514   9.039 -0.0252 -0.3072  0.1959
  220loPI   C3A 3513   3.193   5.517   8.607  0.0287 -0.3591  0.1115
  220loPI   C4A 3514   3.374   5.393   8.306  0.1571 -0.0021 -0.0437
  220loPI   C5A 3515   3.392   5.539   7.856  0.2417 -0.0635  0.0380
  220loPI   C6A 3516   3.174   5.805   7.562  0.0246 -0.0933  0.2438
  220loPI   C1B 3517   2.474   6.030   9.274 -0.1799 -0.1833  0.1790
  220loPI   C2B 3518   2.395   6.076   8.835 -0.0842  0.0514 -0.0569
  220loPI   C3B 3519   2.458   5.996   8.426 -0.0547 -0.0734 -0.2073
  220loPI   C4B 3520   2.447   5.858   8.029 -0.0823 -0.2823  0.0147
  221loPI    C1 3521  13.458  16.254  11.129  0.1299  0.0241  0.0756
  221loPI    C2 3522  13.248  16.212  11.467  0.0410 -0.0193  0.0157
  221loPI    C3 3523  13.648  16.209  11.478  0.0411  0.1842  0.1458
  221loPI   PO4 3524  13.334  16.522  11.012 -0.1322 -0.2778  0.1899
  221loPI   GL1 3525  13.140  16.469  10.638 -0.3302  0.1685 -0.0081
  221loPI   GL2 3526  12.938  16.367  10.478  0.1423 -0.0939 -0.0716
  221loPI   C1A 3527  13.539  16.508  10.299 -0.2747  0.2242 -0.0741
  221loPI   C2A 3528  13.495  16.401   9.866  0.2186 -0.4661 -0.1408
  221loPI   C3A 3529  13.448  16.565   9.498 -0.2749  0.1532  0.1696
  221loPI   C4A 3530  13.548  16.444   9.113  0.1591 -0.0368  0.0425
  221loPI   C5A 3531  13.496  16.374   8.670  0.2618 -0.1781  0.0006
  221loPI   C6A 3532  13.328  16.290   8.227 -0.1296 -0.0517 -0.0273
  221loPI   C1B 3533  13.000  16.431  10.020 -0.2309 -0.0569 -0.2806
  221loPI   C2B 3534  13.003  16.503   9.567 -0.0298  0.0432 -0.0585
  221loPI   C3B 3535  13.037  16.520   9.117 -0.1411  0.0322 -0.0142
  221loPI   C4B 3536  12.935  16.455   8.622 -0.3413  0.4735  0.0013
  222loPI    C1 3537   1.692  13.073  10.662 -0.0721 -0.0637 -0.0280
  222loPI    C2 3538   1.500  13.405  10.778  0.2324  0.0996  0.0192
  222loPI    C3 3539   1.328  13.047  10.826  0.0227  0.2271  0.2395
  222loPI   PO4 3540   1.749  13.185  10.410 -0.2138  0.0853  0.1168
  222loPI   GL1 3541   1.719  13.318  10.058  0.1978 -0.0716 -0.2650
  222loPI   GL2 3542   1.745  13.287   9.773 -0.3110  0.0452  0.0518
  222loPI   C1A 3543   1.594  13.818   9.793  0.0416  0.0009 -0.1264
  222loPI   C2A 3544   1.609  13.954   9.383 -0.2357  0.0673  0.1672
  222loPI   C3A 3545   1.654  14.065   8.954  0.2301  0.0118  0.1194
  222loPI   C4A 3546   1.711  14.009   8.636 -0.0632 -0.3139 -0.1788
  222loPI   C5A 3547   1.559  13.962   8.198  0.3686 -0.2216  0.1188
  222loPI   C6A 3548   1.864  13.871   7.896 -0.1084 -0.0941 -0.0250
  222loPI   C1B 3549   1.538  13.441   9.473  0.1897 -0.0376 -0.0448
  222loPI   C2B 3550   1.445  13.565   9.018 -0.2223 -0.1593 -0.1438
  222loPI   C3B 3551   1.435  13.478   8.677  0.1006 -0.1355  0.0849
  222loPI   C4B 3552   1.253  13.509   8.352  0.1525  0.1584 -0.0752
  223loPI    C1 3553   6.164   9.160  10.506  0.0574 -0.0055  0.1516
  223loPI    C2 3554   6.479   8.916  10.545  0.2625  0.2308  0.0069
  223loPI    C3 3555   6.350   9.126  10.859 -0.0604 -0.2293  0.1942
  223loPI   PO4 3556   6.296   9.218  10.174  0.0097 -0.2456  0.2440
  223loPI   GL1 3557   6.242   9.032   9.824 -0.3356  0.0565  0.1353
  223loPI   GL2 3558   5.965   9.002   9.631  0.1809  0.3312 -0.0317
  223loPI   C1A 3559   6.480   8.941   9.421 -0.2785 -0.2362  0.0463
  223loPI   C2A 3560   6.517   8.924   9.075  0.1027 -0.1967 -0.0596
  223loPI   C3A 3561   6.641   8.818   8.641  0.0468  0.4066  0.0850
  223loPI   C4A 3562   6.617   8.739   8.212 -0.2575 -0.1043  0.2743
  223loPI   C5A 3563   7.070   8.751   8.016  0.1535  0.0187 -0.5050
  223loPI   C6A 3564   7.513   8.687   7.934 -0.1106 -0.1145  0.4340
  223loPI   C1B 3565   6.041   8.914   9.139 -0.0457 -0.0049 -0.0001
  223loPI   C2B 3566   6.122   9.004   8.719  0.2667 -0.2178 -0.2585
  223loPI   C3B 3567   6.152   8.941   8.265 -0.0741  0.1242 -0.2264
  223loPI   C4B 3568   6.167   8.663   7.906  0.4749 -0.1622 -0.0715
  224loPI    C1 3569   3.369   5.995  10.314  0.4054 -0.0010 -0.1103
  224loPI    C2 3570   3.551   6.019  10.670  0.0339 -0.0504  0.0887
  224loPI    C3 3571   3.557   5.675  10.465  0.0756 -0.0820  0.1427
  224loPI   PO4 3572   3.492   6.212  10.170 -0.1337 -0.1721 -0.1793
  224loPI   GL1 3573   3.527   6.067   9.778  0.0011  0.1964 -0.1586
  224loPI   GL2 3574   3.174   6.108   9.805  0.2334  0.0330 -0.3959
  224loPI   C1A 3575   3.570   5.999   9.382 -0.1940 -0.1090  0.1212
  224loPI   C2A 3576   3.597   5.909   8.977 -0.1321 -0.0503 -0.0821
  224loPI   C3A 3577   3.525   5.929   8.487  0.1394  0.1465  0.0295
  224loPI   C4A 3578   3.494   6.097   8.014  0.0780  0.0731 -0.1103
  224loPI   C5A 3579   3.130   6.276   7.721 -0.1631 -0.3911  0.1004
  224loPI   C6A 3580   2.772   6.083   7.634 -0.1126 -0.2780 -0.0571
  224loPI   C1B 3581   3.084   6.115   9.379  0.0052 -0.4045 -0.0902
  224loPI   C2B 3582   3.002   6.005   8.916  0.0488 -0.0786  0.1566
  224loPI   C3B 3583   2.996   6.028   8.519  0.1592  0.3809  0.0367
  224loPI   C4B 3584   3.049   5.835   8.191 -0.0199  0.3312  0.1671
  225loPI    C1 3585  17.839   5.347  10.473  0.1260 -0.0130  0.2403
  225loPI    C2 3586  17.912   5.663  10.708  0.3000 -0.0600  0.2505
  225loPI    C3 3587  17.937   5.292  10.857 -0.0719 -0.0756  0.2833
  225loPI   PO4 3588  17.990   5.334  10.242 -0.0832 -0.1249  0.1351
  225loPI   GL1 3589  17.884   5.488   9.889  0.1431  0.0221  0.3275
  225loPI   GL2 3590  18.047   5.692   9.780  0.1332 -0.2493 -0.1943
  225loPI   C1A 3591  17.765   5.260   9.626 -0.0165  0.0007  0.0650
  225loPI   C2A 3592  17.801   5.204   9.180 -0.0391  0.1033  0.0897
  225loPI   C3A 3593  17.771   5.151   8.701 -0.0985  0.1276 -0.2416
  225loPI   C4A 3594  17.767   5.255   8.325 -0.0077  0.1769 -0.0265
  225loPI   C5A 3595  17.635   5.113   7.879 -0.0368  0.1121 -0.2606
  225loPI   C6A 3596  17.857   4.720   7.680  0.1105  0.0240  0.1296
  225loPI   C1B 3597  18.021   5.696   9.297 -0.2618 -0.2084 -0.0384
  225loPI   C2B 3598  18.037   5.718   8.859 -0.0829  0.0482  0.2023
  225loPI   C3B 3599  17.855   5.741   8.462 -0.1122 -0.1230  0.1182
  225loPI   C4B 3600  17.718   5.617   8.013  0.2349  0.1298 -0.0640
  226loPI    C1 3601   3.853  10.525  10.061 -0.1006 -0.1629 -0.0140
  226loPI    C2 3602   4.026  10.556  10.420 -0.1295  0.0453 -0.0166
  226loPI    C3 3603   3.765  10.262  10.349 -0.0895 -0.0237  0.1180
  226loPI   PO4 3604   4.063  10.484   9.903  0.0329  0.0751  0.1637
  226loPI   GL1 3605   4.453  10.244   9.779 -0.1460 -0.0431 -0.2979
  226loPI   GL2 3606   4.751  10.089   9.921  0.0150  0.0006 -0.0293
  226loPI   C1A 3607   4.435  10.469   9.345 -0.3278  0.0093  0.2043
  226loPI   C2A 3608   4.476  10.500   8.921 -0.0439  0.3249  0.1627
  226loPI   C3A 3609   4.428  10.521   8.542  0.0080  0.1907 -0.3037
  226loPI   C4A 3610   4.582  10.424   8.162 -0.0986 -0.0990 -0.1393
  226loPI   C5A 3611   4.830  10.730   7.849  0.1304 -0.1695  0.0271
  226loPI   C6A 3612   5.106  11.166   7.741 -0.1982  0.0472  0.2940
  226loPI   C1B 3613   4.824  10.144   9.417 -0.1889 -0.1891  0.0141
  226loPI   C2B 3614   4.910  10.210   8.996  0.1510 -0.3342 -0.0993
  226loPI   C3B 3615   4.894  10.267   8.489  0.1012  0.1334 -0.0031
  226loPI   C4B 3616   5.073  10.341   8.048  0.4055  0.0512  0.0333
  227loPI    C1 3617  16.386   1.466  10.821 -0.3467  0.0849  0.0217
  227loPI    C2 3618  16.260   1.744  11.079 -0.2257 -0.0286  0.2052
  227loPI    C3 3619  16.302   1.365  11.198 -0.0040 -0.0494  0.0652
  227loPI   PO4 3620  16.229   1.640  10.559 -0.0360 -0.0178 -0.2918
  227loPI   GL1 3621  16.414   1.654  10.219  0.5581  0.2658  0.1528
  227loPI   GL2 3622  16.215   1.940  10.132 -0.2276  0.0795 -0.0227
  227loPI   C1A 3623  16.521   1.546   9.815 -0.1640 -0.3189  0.0712
  227loPI   C2A 3624  16.572   1.552   9.427  0.0840 -0.3012  0.1004
  227loPI   C3A 3625  16.574   1.523   9.027 -0.2692 -0.3049  0.0116
  227loPI   C4A 3626  16.617   1.509   8.731 -0.1060  0.1850  0.1682
  227loPI   C5A 3627  16.581   1.512   8.218  0.4864  0.0978 -0.3136
  227loPI   C6A 3628  16.379   1.659   7.796  0.2633  0.0916  0.0716
  227loPI   C1B 3629  16.338   2.037   9.658  0.1976 -0.2155  0.2205
  227loPI   C2B 3630  16.258   2.068   9.225  0.0784 -0.2080  0.2113
  227loPI   C3B 3631  16.350   2.104   8.807  0.2712  0.1261  0.0660
  227loPI   C4B 3632  16.393   1.917   8.403 -0.3121  0.2365  0.0438
  228loPI    C1 3633   9.616  12.541  11.109 -0.0399  0.0231 -0.0155
  228loPI    C2 3634   9.669  12.890  11.298 -0.1023 -0.0392  0.1182
  228loPI    C3 3635   9.955  12.611  11.310 -0.1373 -0.0724  0.1855
  228loPI   PO4 3636   9.535  12.669  10.819 -0.4265 -0.0752  0.1810
  228loPI   GL1 3637   9.530  12.657  10.373 -0.3166 -0.2206 -0.0519
  228loPI   GL2 3638   9.901  12.599  10.415  0.1381  0.2192 -0.1643
  228loPI   C1A 3639   9.613  12.784   9.937  0.0209 -0.2706 -0.2721
  228loPI   C2A 3640   9.650  12.988   9.552  0.3208 -0.2010 -0.2359
  228loPI   C3A 3641   9.597  12.951   9.167  0.1351  0.0163 -0.0750
  228loPI   C4A 3642   9.697  12.903   8.759 -0.0292 -0.4016  0.0771
  228loPI   C5A 3643   9.970  12.932   8.381  0.2080 -0.0492 -0.1344
  228loPI   C6A 3644  10.156  13.298   8.115 -0.1766  0.3415 -0.1182
  228loPI   C1B 3645  10.099  12.741  10.058  0.1946  0.1700 -0.2306
  228loPI   C2B 3646  10.121  12.975   9.673 -0.2010  0.2140 -0.1595
  228loPI   C3B 3647  10.185  13.003   9.133  0.0490  0.0645 -0.1900
  228loPI   C4B 3648  10.346  12.963   8.704 -0.0067  0.2870 -0.1581
  229loPI    C1 3649  10.260  17.863  11.033 -0.2986  0.0893 -0.0495
  229loPI    C2 3650  10.196  17.852  11.428 -0.2312 -0.0673 -0.0422
  229loPI    C3 3651  10.139  17.524  11.206  0.1073 -0.0880 -0.1032
  229loPI   PO4 3652  10.395  17.962  10.907  0.2224 -0.0703 -0.1023
  229loPI   GL1 3653  10.335  18.153  10.555 -0.2010 -0.0609 -0.1176
  229loPI   GL2 3654  10.553  18.095  10.462 -0.3579 -0.0858 -0.1150
  229loPI   C1A 3655  10.126  18.150  10.171  0.1557 -0.2468  0.2653
  229loPI   C2A 3656  10.087  18.011   9.789  0.2352 -0.0187 -0.1326
  229loPI   C3A 3657  10.211  18.118   9.432 -0.1408 -0.3224  0.1356
  229loPI   C4A 3658  10.225  17.996   8.989 -0.0198 -0.1995  0.2973
  229loPI   C5A 3659  10.323  18.121   8.657  0.2132 -0.3593 -0.0020
  229loPI   C6A 3660  10.173  18.076   8.289 -0.0519 -0.0540 -0.2630
  229loPI   C1B 3661  10.669  18.104  10.009  0.0333 -0.1107 -0.1368
  229loPI   C2B 3662  10.701  18.070   9.612  0.1093 -0.0853 -0.1951
  229loPI   C3B 3663  10.673  17.931   9.193  0.0696 -0.1089 -0.1107
  229loPI   C4B 3664  10.808  17.981   8.843  0.0001 -0.0736  0.1681
  230loPI    C1 3665  15.618   1.451  10.613 -0.0892  0.2128  0.0168
  230loPI    C2 3666  15.503   1.613  10.960  0.0168  0.3248  0.0000
  230loPI    C3 3667  15.883   1.501  10.908 -0.0504  0.0906  0.0031
  230loPI   PO4 3668  15.459   1.254  10.503 -0.0834 -0.0722 -0.1269
  230loPI   GL1 3669  15.567   1.101  10.169  0.2741  0.1440  0.0643
  230loPI   GL2 3670  15.390   0.767  10.180 -0.0768  0.2126  0.1571
  230loPI   C1A 3671  15.731   1.090   9.782  0.0294 -0.2219 -0.1305
  230loPI   C2A 3672  15.797   1.084   9.341 -0.1949 -0.1693  0.2619
  230loPI   C3A 3673  15.752   1.025   8.933 -0.2836 -0.0714 -0.2368
  230loPI   C4A 3674  15.815   1.214   8.434  0.1342 -0.2034 -0.4714
  230loPI   C5A 3675  16.042   1.542   8.183 -0.1286  0.1300  0.1674
  230loPI   C6A 3676  16.061   1.977   8.060 -0.0247 -0.2580  0.4558
  230loPI   C1B 3677  15.421   0.709   9.762  0.1173 -0.0862  0.0717
  230loPI   C2B 3678  15.474   0.754   9.319  0.0573 -0.1403 -0.2268
  230loPI   C3B 3679  15.414   0.641   8.989 -0.3481  0.4095 -0.0107
  230loPI   C4B 3680  15.400   0.774   8.469 -0.0887  0.0763 -0.1201
  231loPI    C1 3681   1.811   1.753  10.459 -0.1824 -0.1842  0.1713
  231loPI    C2 3682   1.870   1.966  10.793 -0.0601  0.0568 -0.0010
  231loPI    C3 3683   1.558   2.048  10.556 -0.1098 -0.0704  0.0197
  231loPI   PO4 3684   2.005   1.658  10.313  0.0555 -0.2975  0.0803
  231loPI   GL1 3685   2.159   1.831   9.971  0.0699 -0.1946 -0.0553
  231loPI   GL2 3686   2.552   1.752   9.978  0.0439  0.0256 -0.1798
  231loPI   C1A 3687   2.096   1.894   9.535 -0.0324  0.1229  0.0034
  231loPI   C2A 3688   2.065   1.871   9.109 -0.0382  0.0126  0.0843
  231loPI   C3A 3689   2.041   1.854   8.648 -0.0749  0.1620  0.1909
  231loPI   C4A 3690   1.961   1.948   8.168  0.1698  0.1199 -0.0491
  231loPI   C5A 3691   2.312   2.090   7.807  0.0563  0.0468  0.0093
  231loPI   C6A 3692   2.280   2.369   7.500  0.0834 -0.1782 -0.0318
  231loPI   C1B 3693   2.435   1.534   9.530 -0.2054 -0.0889  0.0790
  231loPI   C2B 3694   2.382   1.513   9.065  0.5210  0.3044  0.0215
  231loPI   C3B 3695   2.363   1.457   8.578  0.1878 -0.0387 -0.1032
  231loPI   C4B 3696   2.239   1.470   8.160  0.2160  0.2767 -0.0709
  232loPI    C1 3697  11.886   8.344  10.888  0.0727  0.3301  0.4221
  232loPI    C2 3698  11.726   8.441  11.241 -0.0139  0.0128  0.4733
  232loPI    C3 3699  11.828   8.062  11.166 -0.4289 -0.0132 -0.0108
  232loPI   PO4 3700  12.049   8.477  10.850 -0.2902  0.1928 -0.0291
  232loPI   GL1 3701  12.121   8.603  10.527 -0.0854 -0.1294  0.0897
  232loPI   GL2 3702  11.870   8.753  10.484  0.2609 -0.2404 -0.0834
  232loPI   C1A 3703  12.367   8.732  10.314 -0.4498  0.2874 -0.2241
  232loPI   C2A 3704  12.479   8.702   9.862 -0.0453 -0.2221 -0.2261
  232loPI   C3A 3705  12.332   8.740   9.457  0.0094 -0.1536  0.2836
  232loPI   C4A 3706  12.315   8.794   8.995  0.2356  0.0566  0.0696
  232loPI   C5A 3707  12.368   8.741   8.577  0.0068 -0.0187 -0.0745
  232loPI   C6A 3708  12.112   8.738   8.275 -0.0979 -0.3857  0.1113
  232loPI   C1B 3709  11.969   8.786  10.073 -0.1435 -0.2450  0.0083
  232loPI   C2B 3710  11.855   8.781   9.634  0.0582  0.0394  0.1773
  232loPI   C3B 3711  11.853   8.899   9.259 -0.2381  0.0274 -0.2025
  232loPI   C4B 3712  11.859   8.833   8.783 -0.2233 -0.2726  0.2565
  233loPI    C1 3713   2.935   0.748  10.542  0.1952 -0.1247  0.0528
  233loPI    C2 3714   3.007   0.558  10.887  0.2610  0.1893  0.2157
  233loPI    C3 3715   2.864   0.932  10.890 -0.2666  0.0015 -0.1010
  233loPI   PO4 3716   2.918   0.480  10.355 -0.0628  0.2484 -0.1119
  233loPI   GL1 3717   3.061   0.152  10.119 -0.0470 -0.2112 -0.1823
  233loPI   GL2 3718   3.275   0.315   9.921  0.1158  0.2806  0.0406
  233loPI   C1A 3719   3.031  -0.122   9.764  0.0751 -0.1211 -0.2031
  233loPI   C2A 3720   3.005  -0.106   9.330  0.0329 -0.0168 -0.0846
  233loPI   C3A 3721   3.000  -0.004   8.895 -0.0569  0.0437  0.0887
  233loPI   C4A 3722   3.113   0.122   8.534 -0.1926 -0.0122  0.2740
  233loPI   C5A 3723   3.202   0.030   8.115  0.1845 -0.2045 -0.3028
  233loPI   C6A 3724   3.288  -0.294   7.861 -0.2507  0.0563 -0.0320
  233loPI   C1B 3725   3.077   0.329   9.558 -0.3143  0.1344  0.0985
  233loPI   C2B 3726   2.977   0.405   9.138 -0.0613  0.0439  0.0830
  233loPI   C3B 3727   2.816   0.438   8.734  0.1842 -0.1982  0.0358
  233loPI   C4B 3728   2.710   0.572   8.422  0.1863 -0.0707 -0.0868
  234loPI    C1 3729  17.811   4.316  10.873  0.3709 -0.0097 -0.0449
  234loPI    C2 3730  17.841   4.412  11.260  0.0489 -0.0286 -0.0121
  234loPI    C3 3731  17.502   4.486  11.062  0.1822 -0.0963 -0.2704
  234loPI   PO4 3732  17.937   4.485  10.704 -0.1503  0.0466  0.0929
  234loPI   GL1 3733  18.065   4.450  10.248 -0.4744 -0.3954 -0.0575
  234loPI   GL2 3734  18.249   4.619  10.096 -0.1072  0.1271  0.1154
  234loPI   C1A 3735  17.740   4.436   9.925  0.3975 -0.0328 -0.2375
  234loPI   C2A 3736  17.776   4.283   9.499 -0.0645  0.0360  0.1583
  234loPI   C3A 3737  17.767   4.314   9.102 -0.0631  0.0657  0.0354
  234loPI   C4A 3738  17.647   4.277   8.765  0.2709 -0.0474 -0.1933
  234loPI   C5A 3739  17.667   4.418   8.255  0.4470 -0.0127  0.0509
  234loPI   C6A 3740  17.658   4.355   7.914 -0.0834 -0.0425  0.0534
  234loPI   C1B 3741  18.051   4.714   9.682  0.1590  0.2549 -0.1223
  234loPI   C2B 3742  18.039   4.735   9.159  0.3767  0.2187 -0.2981
  234loPI   C3B 3743  18.056   4.751   8.588 -0.0797 -0.0198  0.0262
  234loPI   C4B 3744  18.103   4.704   8.149  0.4334  0.0707 -0.0637
  235loPI    C1 3745   2.711   3.318  10.345  0.0691 -0.1669  0.1184
  235loPI    C2 3746   2.623   3.481  10.700  0.1092 -0.0310  0.0663
  235loPI    C3 3747   2.955   3.262  10.657 -0.0138 -0.2410  0.1706
  235loPI   PO4 3748   2.435   3.200  10.325 -0.2232  0.0291  0.0172
  235loPI   GL1 3749   2.110   3.238  10.051 -0.0968  0.1615 -0.2208
  235loPI   GL2 3750   1.886   3.431  10.092  0.0907  0.2784 -0.0899
  235loPI   C1A 3751   1.918   3.254   9.666  0.3344 -0.1693 -0.2344
  235loPI   C2A 3752   1.874   3.279   9.209 -0.0354  0.0759  0.1803
  235loPI   C3A 3753   1.955   3.247   8.771  0.1947 -0.0003  0.3544
  235loPI   C4A 3754   1.805   3.193   8.310 -0.0525  0.0288  0.3097
  235loPI   C5A 3755   1.906   3.145   7.841  0.2652  0.0042  0.1054
  235loPI   C6A 3756   2.212   3.338   7.636  0.2395  0.2128  0.1326
  235loPI   C1B 3757   1.647   3.681   9.839 -0.0790  0.2262 -0.0816
  235loPI   C2B 3758   1.580   3.718   9.436  0.0449  0.3283 -0.0476
  235loPI   C3B 3759   1.603   3.703   9.071 -0.0952  0.4064  0.2603
  235loPI   C4B 3760   1.664   3.713   8.640  0.0327 -0.0317  0.0476
  236loPI    C1 3761  16.126   9.199  11.011 -0.0597 -0.0417  0.0059
  236loPI    C2 3762  15.982   9.388  11.333 -0.1071 -0.0645 -0.0019
  236loPI    C3 3763  15.952   8.990  11.304  0.0446 -0.0798  0.0411
  236loPI   PO4 3764  16.049   9.418  10.824  0.1762 -0.2553  0.1682
  236loPI   GL1 3765  16.204   9.322  10.402  0.0372 -0.0648 -0.1170
  236loPI   GL2 3766  16.183   9.603  10.213  0.2307  0.0190  0.1944
  236loPI   C1A 3767  15.965   9.058  10.131  0.1670 -0.2073 -0.3501
  236loPI   C2A 3768  15.969   9.004   9.705  0.0586  0.0052 -0.1966
  236loPI   C3A 3769  15.843   9.042   9.239  0.0405  0.0912  0.0134
  236loPI   C4A 3770  15.830   9.076   8.855 -0.2182 -0.1902  0.0564
  236loPI   C5A 3771  15.626   9.167   8.447  0.0570 -0.0505  0.2151
  236loPI   C6A 3772  15.578   9.523   8.161  0.1114 -0.2608  0.2370
  236loPI   C1B 3773  16.197   9.414   9.812  0.2302  0.0419 -0.2117
  236loPI   C2B 3774  16.200   9.424   9.402  0.0146  0.2361  0.4013
  236loPI   C3B 3775  16.024   9.566   9.032  0.0881 -0.0364 -0.0832
  236loPI   C4B 3776  15.936   9.503   8.552 -0.0039  0.3662  0.1093
  237loPI    C1 3777  10.945   7.807  11.394 -0.2270  0.1812  0.2472
  237loPI    C2 3778  10.721   7.490  11.492 -0.1184 -0.0514 -0.2288
  237loPI    C3 3779  11.119   7.475  11.535 -0.1198  0.0517 -0.1769
  237loPI   PO4 3780  10.909   7.802  11.120 -0.3759 -0.3266 -0.1528
  237loPI   GL1 3781  10.920   7.660  10.750  0.2234 -0.0996  0.2573
  237loPI   GL2 3782  11.149   7.852  10.535  0.0329  0.3140  0.0775
  237loPI   C1A 3783  11.058   7.338  10.397 -0.2609 -0.2202  0.0195
  237loPI   C2A 3784  11.013   7.393   9.880  0.0311  0.0902  0.0583
  237loPI   C3A 3785  11.062   7.474   9.329 -0.2618 -0.1054  0.0976
  237loPI   C4A 3786  10.939   7.518   8.957 -0.0903 -0.1432  0.0859
  237loPI   C5A 3787  10.945   7.583   8.536 -0.0241 -0.0038 -0.1386
  237loPI   C6A 3788  11.157   7.927   8.281 -0.1696 -0.1070 -0.0119
  237loPI   C1B 3789  11.261   7.790  10.162  0.0791  0.1437 -0.4533
  237loPI   C2B 3790  11.263   7.860   9.756 -0.0188 -0.0686 -0.4175
  237loPI   C3B 3791  11.363   7.883   9.316 -0.1186  0.1548  0.0661
  237loPI   C4B 3792  11.239   8.007   8.850  0.0398 -0.0324  0.3577
  238loPI    C1 3793   1.717   3.657  10.561 -0.1100  0.0314 -0.0103
  238loPI    C2 3794   2.093   3.520  10.543 -0.1263 -0.0150  0.0001
  238loPI    C3 3795   1.933   3.619  10.896 -0.0666  0.1663 -0.0224
  238loPI   PO4 3796   1.558   3.462  10.455  0.0953 -0.2345  0.2574
  238loPI   GL1 3797   1.296   3.430  10.092 -0.3886  0.1692 -0.0295
  238loPI   GL2 3798   1.059   3.544   9.935  0.3139 -0.1363  0.1771
  238loPI   C1A 3799   1.400   3.285   9.690 -0.1126  0.0866 -0.1304
  238loPI   C2A 3800   1.386   3.256   9.308 -0.0952 -0.0846  0.0672
  238loPI   C3A 3801   1.447   3.213   8.781  0.3526  0.0463 -0.1930
  238loPI   C4A 3802   1.385   3.422   8.416 -0.1193  0.3496 -0.2676
  238loPI   C5A 3803   1.373   3.704   8.056  0.2855 -0.2700  0.0834
  238loPI   C6A 3804   1.414   3.749   7.669  0.1061  0.2774  0.1256
  238loPI   C1B 3805   1.104   3.629   9.466 -0.2669 -0.1477 -0.0109
  238loPI   C2B 3806   1.152   3.664   8.963  0.1069 -0.1185 -0.2765
  238loPI   C3B 3807   0.985   3.792   8.563 -0.1046  0.1204 -0.2997
  238loPI   C4B 3808   0.897   3.699   8.118  0.0440  0.2852 -0.3147
  239loPI    C1 3809   7.216  11.959  11.014  0.0974  0.1190 -0.4498
  239loPI    C2 3810   7.516  11.716  11.118 -0.0414  0.1109 -0.0548
  239loPI    C3 3811   7.573  12.111  11.110  0.0450  0.0959 -0.2136
  239loPI   PO4 3812   7.183  11.876  10.746  0.1164 -0.3577 -0.1994
  239loPI   GL1 3813   7.273  11.949  10.241  0.0751 -0.0291 -0.1255
  239loPI   GL2 3814   7.278  11.749  10.297 -0.1053 -0.1726  0.0530
  239loPI   C1A 3815   7.451  12.107   9.895  0.0308 -0.0213  0.3114
  239loPI   C2A 3816   7.437  12.245   9.512  0.1283  0.0505 -0.3555
  239loPI   C3A 3817   7.526  12.281   9.018  0.0315  0.0839  0.1977
  239loPI   C4A 3818   7.529  12.124   8.639 -0.1012  0.1353  0.1545
  239loPI   C5A 3819   7.398  12.011   8.150  0.0229  0.0455  0.1885
  239loPI   C6A 3820   7.488  12.293   7.768 -0.2059 -0.3444  0.2972
  239loPI   C1B 3821   7.154  11.729   9.810 -0.2151  0.0949 -0.0220
  239loPI   C2B 3822   7.240  11.713   9.416  0.1082 -0.2016 -0.4172
  239loPI   C3B 3823   7.269  11.688   9.022  0.2217  0.0906 -0.1817
  239loPI   C4B 3824   7.345  11.678   8.497  0.2149 -0.0171 -0.1143
  240loPI    C1 3825  14.745   1.501  10.766 -0.0386 -0.0552  0.0255
  240loPI    C2 3826  14.530   1.410  11.091 -0.2082  0.2096 -0.0095
  240loPI    C3 3827  14.498   1.773  10.925  0.3727  0.3047  0.0680
  240loPI   PO4 3828  14.776   1.273  10.634 -0.3548 -0.0459 -0.0294
  240loPI   GL1 3829  14.627   1.251  10.268  0.1490  0.1397 -0.3244
  240loPI   GL2 3830  15.003   1.132  10.206 -0.0234  0.2196 -0.1748
  240loPI   C1A 3831  14.700   1.260   9.800 -0.0493  0.0794 -0.2321
  240loPI   C2A 3832  14.676   1.162   9.295  0.2380 -0.0224 -0.2319
  240loPI   C3A 3833  14.694   1.147   8.827  0.0938 -0.0184 -0.1834
  240loPI   C4A 3834  14.745   1.040   8.395 -0.3110  0.1071  0.3027
  240loPI   C5A 3835  15.088   0.960   8.108  0.4885  0.0085 -0.2676
  240loPI   C6A 3836  15.630   0.926   7.979  0.1241 -0.0384  0.1851
  240loPI   C1B 3837  15.232   1.153   9.776 -0.1298  0.0474  0.2531
  240loPI   C2B 3838  15.301   1.196   9.368  0.2017 -0.2139  0.0139
  240loPI   C3B 3839  15.209   1.231   8.939  0.1710 -0.0042 -0.0985
  240loPI   C4B 3840  15.263   1.193   8.548  0.2092  0.0832  0.0908
  241loPI    C1 3841  10.524  13.984  11.537  0.1006 -0.0525  0.0750
  241loPI    C2 3842  10.523  13.758  11.866 -0.1341 -0.0169  0.1000
  241loPI    C3 3843  10.585  14.152  11.895  0.3738 -0.0863  0.0469
  241loPI   PO4 3844  10.667  13.877  11.307  0.0837 -0.2727  0.0269
  241loPI   GL1 3845  10.584  13.904  10.892 -0.1411 -0.1662 -0.3070
  241loPI   GL2 3846  10.902  13.842  10.820  0.3231 -0.1833  0.2250
  241loPI   C1A 3847  10.561  13.839  10.434  0.0479 -0.0146 -0.0402
  241loPI   C2A 3848  10.598  13.828   9.989  0.0575  0.0709 -0.1360
  241loPI   C3A 3849  10.690  13.860   9.487 -0.0233 -0.3964 -0.0358
  241loPI   C4A 3850  10.708  13.838   9.090  0.0070 -0.1703 -0.1459
  241loPI   C5A 3851  10.869  13.883   8.739  0.0163  0.0597  0.2697
  241loPI   C6A 3852  11.342  13.809   8.613 -0.0096 -0.1238 -0.2604
  241loPI   C1B 3853  11.175  13.722  10.442  0.1810  0.2170 -0.0908
  241loPI   C2B 3854  11.164  13.717   9.955 -0.0022  0.0855  0.0878
  241loPI   C3B 3855  11.182  13.773   9.499  0.1764 -0.0699  0.0410
  241loPI   C4B 3856  11.295  13.865   9.120  0.1682  0.1145 -0.1112
  242loPI    C1 3857  17.395  12.991  11.351 -0.0242 -0.2657 -0.1651
  242loPI    C2 3858  17.065  12.861  11.536 -0.1182  0.3006  0.0850
  242loPI    C3 3859  17.426  12.767  11.681 -0.1759  0.0756  0.0861
  242loPI   PO4 3860  17.275  12.895  11.034 -0.2272  0.1529  0.1378
  242loPI   GL1 3861  17.302  12.929  10.575  0.0740  0.1656 -0.3807
  242loPI   GL2 3862  17.028  12.721  10.400  0.1318  0.2275  0.0496
  242loPI   C1A 3863  17.252  13.095  10.049 -0.1534  0.1038  0.2122
  242loPI   C2A 3864  17.286  13.092   9.649  0.3540 -0.0563 -0.2390
  242loPI   C3A 3865  17.288  13.140   9.304  0.3131 -0.1672 -0.0976
  242loPI   C4A 3866  17.383  13.197   8.823 -0.0413  0.0053  0.2463
  242loPI   C5A 3867  17.389  13.362   8.331  0.4837  0.4146 -0.1625
  242loPI   C6A 3868  17.329  13.466   7.895 -0.1869 -0.0633 -0.1962
  242loPI   C1B 3869  17.057  12.698   9.893 -0.3645 -0.1454  0.0255
  242loPI   C2B 3870  17.048  12.692   9.399  0.0503  0.0597 -0.1297
  242loPI   C3B 3871  17.016  12.740   8.911 -0.2339  0.0607  0.0948
  242loPI   C4B 3872  17.057  12.708   8.514  0.1411  0.2635 -0.3440
  243loPI    C1 3873  17.551   1.909  10.622 -0.0817 -0.0559  0.0723
  243loPI    C2 3874  17.624   2.296  10.551  0.0947 -0.1419 -0.2344
  243loPI    C3 3875  17.494   2.180  10.911 -0.3349  0.2487 -0.2543
  243loPI   PO4 3876  17.398   1.860  10.451  0.2516 -0.1786  0.2304
  243loPI   GL1 3877  17.242   1.776  10.122 -0.0929  0.3981 -0.0252
  243loPI   GL2 3878  17.472   1.986   9.924  0.3164  0.3437 -0.1017
  243loPI   C1A 3879  17.090   1.577   9.766 -0.1238  0.1029 -0.1079
  243loPI   C2A 3880  17.049   1.484   9.357  0.2204 -0.0289  0.2852
  243loPI   C3A 3881  17.077   1.545   8.954 -0.1174 -0.1341  0.0044
  243loPI   C4A 3882  17.076   1.492   8.550 -0.0445 -0.1646 -0.0662
  243loPI   C5A 3883  17.147   1.473   8.063  0.0710  0.1230 -0.2704
  243loPI   C6A 3884  17.221   1.914   7.868 -0.0985 -0.0081  0.0045
  243loPI   C1B 3885  17.330   1.977   9.522 -0.1847  0.0677  0.0548
  243loPI   C2B 3886  17.311   1.900   9.180 -0.0897  0.0039  0.3079
  243loPI   C3B 3887  17.330   2.011   8.647  0.1683 -0.1522  0.0611
  243loPI   C4B 3888  17.424   1.805   8.322  0.0328  0.0829 -0.0587
  244loPI    C1 3889   3.533   4.757  10.460 -0.0965  0.0607 -0.1178
  244loPI    C2 3890   3.375   4.518  10.739  0.1293 -0.1847 -0.1962
  244loPI    C3 3891   3.494   4.887  10.836  0.2655 -0.2901  0.0483
  244loPI   PO4 3892   3.395   4.579  10.236  0.0508 -0.3555  0.1457
  244loPI   GL1 3893   3.655   4.436   9.854 -0.2271 -0.0807  0.1182
  244loPI   GL2 3894   3.798   4.606   9.663  0.1569  0.0528  0.0981
  244loPI   C1A 3895   3.574   4.155   9.520 -0.1354 -0.0229  0.1810
  244loPI   C2A 3896   3.758   4.069   9.097  0.1233 -0.0048 -0.0172
  244loPI   C3A 3897   3.641   4.045   8.618  0.3126 -0.1729 -0.1998
  244loPI   C4A 3898   3.698   4.068   8.199  0.0744 -0.0862 -0.0231
  244loPI   C5A 3899   3.915   3.812   7.929 -0.1126 -0.3218  0.3235
  244loPI   C6A 3900   4.315   3.620   8.046 -0.1020 -0.0284 -0.0437
  244loPI   C1B 3901   3.930   4.537   9.222  0.3091 -0.0304  0.0415
  244loPI   C2B 3902   3.969   4.457   8.794 -0.1053 -0.1801 -0.2860
  244loPI   C3B 3903   3.912   4.498   8.365  0.0870 -0.1989 -0.0194
  244loPI   C4B 3904   4.103   4.285   7.966 -0.4497  0.1004  0.1322
  245loPI    C1 3905   4.113   1.357  10.691 -0.0668  0.0849 -0.2778
  245loPI    C2 3906   4.240   1.734  10.734  0.0669 -0.0174  0.3113
  245loPI    C3 3907   3.868   1.634  10.842 -0.1099  0.0221 -0.2317
  245loPI   PO4 3908   4.213   1.281  10.458 -0.0672 -0.0009  0.0967
  245loPI   GL1 3909   4.297   1.413  10.050  0.1684 -0.0508 -0.0945
  245loPI   GL2 3910   3.885   1.266  10.041  0.0138 -0.2894 -0.0501
  245loPI   C1A 3911   4.459   1.221   9.740 -0.0457 -0.4330  0.1932
  245loPI   C2A 3912   4.473   1.301   9.322 -0.0197  0.0976 -0.0725
  245loPI   C3A 3913   4.501   1.313   8.908  0.2565  0.0636 -0.4274
  245loPI   C4A 3914   4.507   1.423   8.481  0.1118  0.1369  0.3657
  245loPI   C5A 3915   4.663   1.416   8.069 -0.0901 -0.0921  0.3643
  245loPI   C6A 3916   4.946   1.068   7.867  0.2083 -0.0877 -0.0165
  245loPI   C1B 3917   3.950   1.322   9.657 -0.2143  0.0200 -0.1715
  245loPI   C2B 3918   3.945   1.305   9.183  0.0772 -0.2129  0.0690
  245loPI   C3B 3919   3.885   1.388   8.653 -0.3219  0.1302  0.0908
  245loPI   C4B 3920   3.625   1.528   8.314 -0.1208  0.1458  0.1733
  246loPI    C1 3921   5.418   6.018  10.696  0.2540 -0.0808 -0.1003
  246loPI    C2 3922   5.201   5.988  11.031 -0.1678 -0.1670 -0.3732
  246loPI    C3 3923   5.412   6.320  10.959 -0.1010 -0.1343 -0.0411
  246loPI   PO4 3924   5.280   5.985  10.540  0.0777  0.2529  0.3120
  246loPI   GL1 3925   5.299   5.725  10.114 -0.0910  0.1247  0.1469
  246loPI   GL2 3926   5.259   6.004   9.825 -0.1389  0.1246 -0.1586
  246loPI   C1A 3927   5.416   5.470   9.832  0.4151  0.0000  0.3290
  246loPI   C2A 3928   5.501   5.391   9.411 -0.0353 -0.1183 -0.3755
  246loPI   C3A 3929   5.573   5.198   9.062  0.0167 -0.1116  0.1320
  246loPI   C4A 3930   5.368   5.300   8.667  0.1342  0.1057  0.0592
  246loPI   C5A 3931   5.230   5.367   8.264 -0.0768 -0.2609  0.0061
  246loPI   C6A 3932   5.084   5.397   7.828 -0.0604  0.0994  0.1490
  246loPI   C1B 3933   5.199   5.868   9.406 -0.1537 -0.3151  0.0280
  246loPI   C2B 3934   5.159   5.754   8.999  0.1833 -0.2222 -0.1086
  246loPI   C3B 3935   5.164   5.760   8.542  0.0408 -0.2114 -0.1073
  246loPI   C4B 3936   4.979   5.861   8.154 -0.0136  0.1556 -0.1282
  247loPI    C1 3937  16.782   9.953  10.962 -0.0483  0.0343  0.0527
  247loPI    C2 3938  16.681  10.029  11.342 -0.2677  0.0622 -0.0099
  247loPI    C3 3939  17.067  10.000  11.239 -0.2080  0.0155  0.2220
  247loPI   PO4 3940  16.549  10.151  10.883  0.0938 -0.1670  0.2708
  247loPI   GL1 3941  16.527  10.469  10.643 -0.1108 -0.2692 -0.0626
  247loPI   GL2 3942  16.255  10.482  10.546  0.0610  0.2066 -0.2118
  247loPI   C1A 3943  16.717  10.438  10.274 -0.0672  0.1534 -0.2348
  247loPI   C2A 3944  16.712  10.378   9.825 -0.1215  0.0937  0.0453
  247loPI   C3A 3945  16.643  10.456   9.424  0.4406 -0.2312  0.1943
  247loPI   C4A 3946  16.717  10.460   9.015  0.1853 -0.0683 -0.3720
  247loPI   C5A 3947  16.641  10.374   8.660  0.0484  0.1395 -0.2301
  247loPI   C6A 3948  16.563  10.072   8.264  0.1579  0.3556 -0.1318
  247loPI   C1B 3949  16.247  10.564  10.130 -0.0823 -0.4227  0.2070
  247loPI   C2B 3950  16.140  10.412   9.715 -0.0845 -0.2028 -0.2136
  247loPI   C3B 3951  16.164  10.486   9.294  0.1085 -0.0834  0.2645
  247loPI   C4B 3952  16.151  10.462   8.838 -0.4797 -0.0246  0.3625
  248loPI    C1 3953  16.392  13.052  11.077 -0.0185 -0.1048  0.0706
  248loPI    C2 3954  16.616  12.842  11.334 -0.0674 -0.0416  0.1653
  248loPI    C3 3955  16.265  12.993  11.452 -0.1456 -0.1127  0.0269
  248loPI   PO4 3956  16.555  13.235  11.022 -0.2891 -0.1172  0.0153
  248loPI   GL1 3957  16.638  13.287  10.633  0.1684  0.2135 -0.3412
  248loPI   GL2 3958  16.484  13.613  10.533 -0.1037 -0.0828  0.0590
  248loPI   C1A 3959  16.738  13.155  10.302 -0.0293  0.3165 -0.0885
  248loPI   C2A 3960  16.795  13.081   9.892 -0.2678 -0.2521  0.2821
  248loPI   C3A 3961  16.776  13.129   9.496  0.0198 -0.0865 -0.2338
  248loPI   C4A 3962  16.840  13.157   9.104  0.0153 -0.0615  0.1248
  248loPI   C5A 3963  16.825  13.239   8.638  0.0162 -0.0233  0.2318
  248loPI   C6A 3964  16.528  13.393   8.310  0.0088  0.3632 -0.3416
  248loPI   C1B 3965  16.546  13.547  10.108  0.0508 -0.0965  0.0386
  248loPI   C2B 3966  16.649  13.564   9.734  0.1798  0.0024 -0.1358
  248loPI   C3B 3967  16.545  13.575   9.277 -0.1211 -0.0527 -0.1484
  248loPI   C4B 3968  16.554  13.620   8.820 -0.2678  0.2319  0.0404
  249loPI    C1 3969   1.102   2.370  10.690 -0.0229  0.1255  0.0478
  249loPI    C2 3970   1.041   2.027  10.492  0.1538  0.1759 -0.0974
  249loPI    C3 3971   0.872   2.085  10.850  0.1531 -0.0779 -0.0552
  249loPI   PO4 3972   1.085   2.533  10.467 -0.2164 -0.1184 -0.0290
  249loPI   GL1 3973   1.255   2.584  10.121  0.1931  0.0253  0.1065
  249loPI   GL2 3974   1.324   2.257  10.167 -0.3179 -0.1175  0.3508
  249loPI   C1A 3975   1.175   2.746   9.732  0.0433  0.2066 -0.2927
  249loPI   C2A 3976   1.159   2.787   9.295  0.0229  0.1230 -0.0758
  249loPI   C3A 3977   1.013   2.809   8.823  0.0188  0.3802 -0.0772
  249loPI   C4A 3978   1.083   2.880   8.377  0.1171 -0.2273 -0.2169
  249loPI   C5A 3979   0.960   2.566   8.243  0.0353  0.0790 -0.2655
  249loPI   C6A 3980   0.880   2.249   7.989  0.0384 -0.1164 -0.1117
  249loPI   C1B 3981   1.336   2.266   9.768  0.2480 -0.2428  0.2361
  249loPI   C2B 3982   1.364   2.351   9.351 -0.3378 -0.0908  0.3078
  249loPI   C3B 3983   1.258   2.366   8.994  0.1060 -0.4853 -0.3624
  249loPI   C4B 3984   1.324   2.368   8.511  0.1759 -0.0141 -0.0914
  250loPI    C1 3985   5.445   1.027  10.783 -0.0582  0.1075  0.0908
  250loPI    C2 3986   5.535   1.311  11.050 -0.1301  0.1239  0.0980
  250loPI    C3 3987   5.396   0.957  11.174  0.0934  0.0340  0.0972
  250loPI   PO4 3988   5.583   1.133  10.542  0.0433  0.1634 -0.1427
  250loPI   GL1 3989   5.574   1.001  10.147 -0.1115 -0.1049  0.2733
  250loPI   GL2 3990   5.403   1.173   9.978 -0.3494 -0.0478 -0.0123
  250loPI   C1A 3991   5.780   0.770   9.834  0.1017 -0.0733 -0.2825
  250loPI   C2A 3992   5.823   0.769   9.498 -0.0406  0.0097 -0.0627
  250loPI   C3A 3993   5.777   0.824   9.072  0.1832 -0.0461 -0.2787
  250loPI   C4A 3994   5.729   0.759   8.614 -0.0301 -0.0066  0.2831
  250loPI   C5A 3995   5.624   0.812   8.145 -0.0599  0.3346  0.0965
  250loPI   C6A 3996   5.469   1.084   7.835  0.1702 -0.0064  0.0020
  250loPI   C1B 3997   5.575   1.205   9.578 -0.1553  0.0264  0.0755
  250loPI   C2B 3998   5.491   1.272   9.123  0.0276  0.1344  0.0709
  250loPI   C3B 3999   5.650   1.374   8.706  0.0135 -0.0960  0.0806
  250loPI   C4B 4000   5.731   1.262   8.208 -0.2645 -0.1411 -0.0737
  251loPI    C1 4001  12.480  13.219  11.042 -0.2093  0.1138 -0.0353
  251loPI    C2 4002  12.424  13.484  11.337  0.1630  0.0508  0.0974
  251loPI    C3 4003  12.501  13.101  11.423  0.3117  0.0394 -0.0798
  251loPI   PO4 4004  12.712  13.280  10.821 -0.0753  0.2386  0.1693
  251loPI   GL1 4005  13.036  13.360  10.416  0.3690  0.3162 -0.1974
  251loPI   GL2 4006  12.788  13.662  10.449  0.1579  0.0097 -0.1217
  251loPI   C1A 4007  13.043  13.207   9.975  0.0287  0.0484  0.2103
  251loPI   C2A 4008  13.152  13.319   9.538  0.2169 -0.1272 -0.0295
  251loPI   C3A 4009  13.199  13.332   9.103  0.0765 -0.1430  0.0226
  251loPI   C4A 4010  13.229  13.341   8.748 -0.1217 -0.4564 -0.1359
  251loPI   C5A 4011  13.353  13.234   8.453 -0.2753 -0.1913 -0.0745
  251loPI   C6A 4012  13.556  13.573   8.199 -0.3004  0.0269 -0.3102
  251loPI   C1B 4013  12.913  13.642  10.104  0.1151  0.2445 -0.0829
  251loPI   C2B 4014  12.989  13.746   9.746  0.1697 -0.2291 -0.1509
  251loPI   C3B 4015  12.951  13.848   9.349 -0.1509 -0.2104 -0.2734
  251loPI   C4B 4016  12.950  13.819   8.975  0.0150 -0.1256  0.2427
  252loPI    C1 4017   8.687  15.408  11.111  0.2304  0.1339  0.2599
  252loPI    C2 4018   8.445  15.724  11.074 -0.0515 -0.0755  0.2865
  252loPI    C3 4019   8.828  15.777  11.177  0.0001  0.2845 -0.0662
  252loPI   PO4 4020   8.612  15.315  10.776 -0.2254 -0.2842 -0.1197
  252loPI   GL1 4021   8.886  15.167  10.505  0.0762  0.0684 -0.1413
  252loPI   GL2 4022   8.730  14.839  10.419 -0.2162  0.0476  0.0878
  252loPI   C1A 4023   9.034  15.110  10.068  0.2025  0.0628 -0.0987
  252loPI   C2A 4024   9.081  15.019   9.695  0.1235 -0.1392 -0.0301
  252loPI   C3A 4025   9.091  14.884   9.337  0.1746  0.1349  0.1889
  252loPI   C4A 4026   9.186  14.856   8.863 -0.1275  0.4072  0.1157
  252loPI   C5A 4027   9.257  14.775   8.479  0.3371  0.0230  0.1529
  252loPI   C6A 4028   9.396  14.639   8.043 -0.0437 -0.2711  0.0519
  252loPI   C1B 4029   8.601  14.867  10.011  0.1291  0.0114 -0.1870
  252loPI   C2B 4030   8.611  14.867   9.562 -0.2594  0.1537 -0.0981
  252loPI   C3B 4031   8.631  14.935   9.169 -0.0469 -0.0739  0.2276
  252loPI   C4B 4032   8.688  14.841   8.653 -0.0254 -0.3372 -0.1775
  253loPI    C1 4033   4.946   3.103  10.525 -0.0107  0.1412 -0.0131
  253loPI    C2 4034   5.284   3.001  10.338 -0.0879 -0.1277 -0.0095
  253loPI    C3 4035   5.208   2.861  10.705 -0.1294  0.0630  0.0558
  253loPI   PO4 4036   4.951   3.352  10.538  0.0820  0.2630 -0.3206
  253loPI   GL1 4037   4.865   3.479  10.197  0.1690  0.0452  0.0617
  253loPI   GL2 4038   4.868   3.705  10.110 -0.0193 -0.1309  0.0027
  253loPI   C1A 4039   5.074   3.287   9.895 -0.0058 -0.0235 -0.2579
  253loPI   C2A 4040   5.061   3.112   9.487  0.1193 -0.2807  0.0766
  253loPI   C3A 4041   5.128   3.072   9.145  0.3571 -0.0979  0.2173
  253loPI   C4A 4042   5.091   3.011   8.623 -0.1137 -0.1579  0.0290
  253loPI   C5A 4043   4.968   3.066   8.157 -0.0505  0.3167 -0.0560
  253loPI   C6A 4044   5.059   2.962   7.759  0.0623  0.1557 -0.0287
  253loPI   C1B 4045   4.881   3.680   9.635  0.3985 -0.1577  0.0040
  253loPI   C2B 4046   4.885   3.527   9.118  0.0725 -0.0022 -0.0485
  253loPI   C3B 4047   4.898   3.482   8.627  0.3021 -0.2247  0.1065
  253loPI   C4B 4048   4.793   3.517   8.162  0.0870  0.0207 -0.2049
  254loPI    C1 4049   0.304   2.817  10.350  0.1138  0.0491  0.0257
  254loPI    C2 4050   0.204   2.755  10.732  0.0001  0.1166  0.0072
  254loPI    C3 4051  -0.064   2.690  10.442  0.1312 -0.0737 -0.0724
  254loPI   PO4 4052   0.470   3.060  10.394 -0.0524  0.1051 -0.3041
  254loPI   GL1 4053   0.581   3.376  10.009 -0.1632  0.0676 -0.3231
  254loPI   GL2 4054   0.484   3.660   9.995  0.0988  0.0642 -0.0013
  254loPI   C1A 4055   0.390   3.194   9.697  0.1494  0.0141 -0.3543
  254loPI   C2A 4056   0.366   3.317   9.311  0.0214 -0.0063 -0.1909
  254loPI   C3A 4057   0.329   3.290   8.940 -0.0994  0.0056  0.1333
  254loPI   C4A 4058   0.330   3.411   8.474  0.0432  0.0859 -0.0193
  254loPI   C5A 4059   0.450   3.503   8.026  0.0684 -0.0060  0.0867
  254loPI   C6A 4060   0.422   3.772   7.641 -0.1780  0.0125  0.1767
  254loPI   C1B 4061   0.668   3.699   9.640 -0.0852 -0.1807 -0.0874
  254loPI   C2B 4062   0.699   3.708   9.226  0.0291 -0.1350  0.0007
  254loPI   C3B 4063   0.527   3.742   8.784 -0.0649 -0.1246 -0.1797
  254loPI   C4B 4064   0.429   3.865   8.387  0.3201  0.0249 -0.1958
  255loPI    C1 4065   9.394   8.980  10.890 -0.1087 -0.0266 -0.0968
  255loPI    C2 4066   9.590   8.926  11.235  0.0422  0.1665 -0.1502
  255loPI    C3 4067   9.190   8.925  11.230  0.0375  0.3696  0.0607
  255loPI   PO4 4068   9.625   9.066  10.736 -0.0157 -0.0682  0.0139
  255loPI   GL1 4069   9.942   9.020  10.442 -0.0939 -0.0019  0.0729
  255loPI   GL2 4070  10.056   8.788  10.308 -0.1086 -0.1277 -0.3265
  255loPI   C1A 4071  10.002   9.214  10.012  0.0400 -0.1108 -0.0041
  255loPI   C2A 4072  10.132   9.220   9.616 -0.1069 -0.0639  0.1501
  255loPI   C3A 4073  10.069   9.321   9.182 -0.1496 -0.0908  0.1923
  255loPI   C4A 4074  10.044   9.442   8.736  0.0608  0.1880  0.0049
  255loPI   C5A 4075   9.716   9.771   8.515  0.0895 -0.1320  0.2638
  255loPI   C6A 4076   9.393  10.005   8.376  0.2358 -0.0383  0.1459
  255loPI   C1B 4077  10.158   8.785   9.909  0.2732 -0.2987 -0.1113
  255loPI   C2B 4078  10.264   8.791   9.511  0.2344  0.0710 -0.4792
  255loPI   C3B 4079  10.335   8.856   9.176 -0.0796  0.1170  0.0735
  255loPI   C4B 4080  10.259   8.946   8.845  0.0952  0.1745 -0.1512
  256loPI    C1 4081   3.482  15.392  11.096 -0.0265  0.1969  0.3268
  256loPI    C2 4082   3.854  15.357  10.953 -0.1217  0.2877  0.0514
  256loPI    C3 4083   3.785  15.308  11.344  0.1471  0.0630  0.0738
  256loPI   PO4 4084   3.316  15.213  10.851 -0.1139 -0.1940  0.1697
  256loPI   GL1 4085   3.139  15.195  10.521  0.1059 -0.0952  0.4267
  256loPI   GL2 4086   2.886  15.371  10.429  0.3881 -0.0543 -0.4498
  256loPI   C1A 4087   3.346  15.136  10.070 -0.2150 -0.1640  0.2707
  256loPI   C2A 4088   3.451  15.105   9.654  0.0712 -0.0697 -0.2811
  256loPI   C3A 4089   3.450  15.115   9.135  0.0800 -0.0920  0.0055
  256loPI   C4A 4090   3.528  15.116   8.789  0.1842  0.1619  0.0339
  256loPI   C5A 4091   3.480  15.250   8.393  0.1160  0.3159  0.1775
  256loPI   C6A 4092   3.961  15.322   8.279  0.1673 -0.1487 -0.2265
  256loPI   C1B 4093   3.100  15.579  10.224  0.2495  0.1193  0.3283
  256loPI   C2B 4094   3.209  15.539   9.745  0.1608  0.0318  0.1025
  256loPI   C3B 4095   3.297  15.590   9.312 -0.0854  0.1089 -0.3059
  256loPI   C4B 4096   3.355  15.562   8.830 -0.1139  0.4108  0.0331
  257loPI    C1 4097   9.302   4.839  11.360  0.0061 -0.1734  0.0030
  257loPI    C2 4098   9.614   4.910  11.599  0.0796  0.0252 -0.1486
  257loPI    C3 4099   9.259   4.816  11.757  0.0774  0.3492  0.0482
  257loPI   PO4 4100   9.397   4.728  11.167  0.0649 -0.0047 -0.0376
  257loPI   GL1 4101   9.358   4.791  10.802  0.1237  0.0010  0.2323
  257loPI   GL2 4102   9.457   4.459  10.725  0.0224 -0.2414 -0.1124
  257loPI   C1A 4103   9.543   5.098  10.464  0.2230 -0.1026  0.3401
  257loPI   C2A 4104   9.543   5.194  10.044 -0.1058 -0.0151  0.0413
  257loPI   C3A 4105   9.645   5.154   9.603  0.0349  0.0929 -0.2785
  257loPI   C4A 4106   9.553   5.156   9.142 -0.0308 -0.2914 -0.2739
  257loPI   C5A 4107   9.835   5.149   8.695 -0.1081 -0.0788 -0.0265
  257loPI   C6A 4108  10.168   5.175   8.427  0.0243 -0.1169  0.0173
  257loPI   C1B 4109   9.324   4.597  10.361 -0.1066 -0.0316 -0.0976
  257loPI   C2B 4110   9.213   4.719   9.863 -0.0091  0.1156 -0.0772
  257loPI   C3B 4111   9.368   4.733   9.440 -0.0301  0.2561  0.0406
  257loPI   C4B 4112   9.298   4.743   9.065  0.1014 -0.0862  0.0478
  258loPI    C1 4113  15.456   0.677  11.060 -0.0515  0.0138  0.0510
  258loPI    C2 4114  15.122   0.457  11.066  0.0108 -0.0785  0.2809
  258loPI    C3 4115  15.206   0.702  11.371  0.0432  0.1143  0.1200
  258loPI   PO4 4116  15.659   0.484  10.996  0.0072  0.0517  0.0214
  258loPI   GL1 4117  15.953   0.284  10.573  0.0350  0.2172  0.1535
  258loPI   GL2 4118  15.605   0.293  10.491 -0.1870  0.0325 -0.3371
  258loPI   C1A 4119  16.038  -0.063  10.255 -0.0052  0.0094  0.0212
  258loPI   C2A 4120  15.962  -0.186   9.846 -0.0746  0.3629 -0.2793
  258loPI   C3A 4121  15.921  -0.263   9.416 -0.1011  0.1654  0.0012
  258loPI   C4A 4122  16.032  -0.268   8.986  0.0910 -0.1353  0.3506
  258loPI   C5A 4123  16.014  -0.162   8.486  0.0429  0.1010 -0.0481
  258loPI   C6A 4124  16.347  -0.178   8.194 -0.1969 -0.0014 -0.1425
  258loPI   C1B 4125  15.741   0.337  10.014  0.1702  0.0704  0.2082
  258loPI   C2B 4126  15.655   0.243   9.527 -0.0966  0.0143  0.1782
  258loPI   C3B 4127  15.739   0.201   9.152 -0.3049 -0.0666  0.1687
  258loPI   C4B 4128  15.763   0.197   8.676 -0.3113  0.1999  0.0687
  259loPI    C1 4129   2.155   0.150  10.682  0.0627  0.2177  0.1040
  259loPI    C2 4130   2.056   0.389  10.987 -0.0579  0.1174  0.1447
  259loPI    C3 4131   2.358   0.130  11.027 -0.1289  0.0441  0.2089
  259loPI   PO4 4132   1.994   0.074  10.529  0.2182  0.1753 -0.4253
  259loPI   GL1 4133   2.058  -0.156  10.208 -0.0704 -0.0256 -0.0526
  259loPI   GL2 4134   2.185   0.018  10.059  0.0627  0.0474 -0.1899
  259loPI   C1A 4135   1.890  -0.481  10.004 -0.1574  0.1544  0.1282
  259loPI   C2A 4136   1.664  -0.571   9.657 -0.1100  0.2059 -0.2592
  259loPI   C3A 4137   1.684  -0.554   9.249  0.0048  0.0579 -0.2684
  259loPI   C4A 4138   1.677  -0.498   8.783 -0.0822 -0.0069  0.4207
  259loPI   C5A 4139   1.618  -0.254   8.310 -0.0068  0.0400  0.1119
  259loPI   C6A 4140   1.628   0.177   8.311  0.0070  0.0782 -0.1086
  259loPI   C1B 4141   2.099   0.310   9.710  0.1432  0.1050 -0.1151
  259loPI   C2B 4142   1.917   0.299   9.269  0.0613  0.0769 -0.0244
  259loPI   C3B 4143   1.763   0.379   8.971 -0.0892  0.0911 -0.1648
  259loPI   C4B 4144   1.718   0.545   8.615  0.2203  0.3236 -0.4803
  260loPI    C1 4145  14.650  11.390  10.978  0.1368 -0.1367  0.0461
  260loPI    C2 4146  14.872  11.404  11.311  0.0314  0.1121  0.1081
  260loPI    C3 4147  14.522  11.211  11.312 -0.0586  0.2742  0.1981
  260loPI   PO4 4148  14.908  11.392  10.811  0.2975  0.1910  0.1959
  260loPI   GL1 4149  15.183  11.607  10.393  0.0946  0.1354 -0.0300
  260loPI   GL2 4150  15.248  11.856  10.463  0.1449  0.1356  0.0272
  260loPI   C1A 4151  15.188  11.429   9.989 -0.1985 -0.0842 -0.1683
  260loPI   C2A 4152  15.218  11.381   9.615  0.0665  0.1278  0.2822
  260loPI   C3A 4153  15.156  11.327   9.181 -0.0114  0.2545 -0.1454
  260loPI   C4A 4154  15.134  11.346   8.757  0.0426  0.0805 -0.1167
  260loPI   C5A 4155  15.174  11.202   8.327 -0.1121 -0.3821  0.0730
  260loPI   C6A 4156  15.265  10.875   8.045 -0.0224 -0.0025  0.0394
  260loPI   C1B 4157  15.483  11.822   9.994 -0.3988 -0.1390 -0.2446
  260loPI   C2B 4158  15.488  11.858   9.567 -0.0207  0.3357 -0.1434
  260loPI   C3B 4159  15.442  11.732   9.165 -0.0826  0.1623 -0.1546
  260loPI   C4B 4160  15.393  11.730   8.706 -0.0390 -0.3752  0.1363
  261loPI    C1 4161   7.405   1.058  11.397  0.0679  0.2041  0.1839
  261loPI    C2 4162   7.683   0.865  11.609 -0.1747 -0.0405  0.2859
  261loPI    C3 4163   7.296   0.779  11.662 -0.2579  0.1269 -0.0247
  261loPI   PO4 4164   7.513   1.058  11.129 -0.1949 -0.0948 -0.0484
  261loPI   GL1 4165   7.441   1.198  10.703 -0.2079  0.2782 -0.1934
  261loPI   GL2 4166   7.631   1.116  10.421 -0.4053 -0.0109  0.2436
  261loPI   C1A 4167   7.100   1.297  10.522 -0.0492 -0.1898  0.2288
  261loPI   C2A 4168   6.900   1.278  10.142  0.1422 -0.3772 -0.1771
  261loPI   C3A 4169   7.065   1.267   9.795 -0.1558 -0.0100  0.0181
  261loPI   C4A 4170   7.104   1.188   9.356  0.0201  0.0768  0.2197
  261loPI   C5A 4171   7.167   1.224   8.889  0.4754  0.0407  0.0822
  261loPI   C6A 4172   7.122   1.106   8.368 -0.0172  0.1104 -0.0589
  261loPI   C1B 4173   7.566   1.278   9.951  0.2134  0.2938  0.1214
  261loPI   C2B 4174   7.581   1.254   9.539 -0.0881  0.2974 -0.0860
  261loPI   C3B 4175   7.644   1.065   9.137  0.0412  0.0733  0.0914
  261loPI   C4B 4176   7.652   1.088   8.745  0.4109  0.1662  0.2194
  262loPI    C1 4177  10.532   3.726  11.549  0.0791 -0.2959  0.2832
  262loPI    C2 4178  10.173   3.822  11.697  0.0825  0.0965  0.0508
  262loPI    C3 4179  10.502   3.885  11.915  0.0344  0.0108  0.1493
  262loPI   PO4 4180  10.550   3.894  11.283  0.0242 -0.5029 -0.1794
  262loPI   GL1 4181  10.648   3.892  10.905  0.3302 -0.1481 -0.0031
  262loPI   GL2 4182  10.310   3.885  10.808 -0.1227 -0.2641 -0.0211
  262loPI   C1A 4183  10.625   4.202  10.556 -0.1784  0.2959  0.0186
  262loPI   C2A 4184  10.616   4.232  10.093  0.2242  0.0755  0.3141
  262loPI   C3A 4185  10.513   4.181   9.672 -0.1053 -0.1590 -0.2519
  262loPI   C4A 4186  10.707   4.220   9.178 -0.4154  0.1385  0.3597
  262loPI   C5A 4187  10.723   4.343   8.764 -0.0457  0.1411  0.0375
  262loPI   C6A 4188  10.545   4.446   8.472 -0.1421 -0.0612 -0.0197
  262loPI   C1B 4189  10.427   3.783  10.360 -0.1033  0.0207  0.3784
  262loPI   C2B 4190  10.352   3.805   9.978 -0.0460  0.1443 -0.3957
  262loPI   C3B 4191  10.305   3.696   9.605  0.3369 -0.3089 -0.0425
  262loPI   C4B 4192  10.423   3.825   9.077  0.0991  0.1839 -0.2880
  263loPI    C1 4193   3.775   9.290   9.967  0.1546  0.1046  0.0895
  263loPI    C2 4194   3.399   9.423   9.931  0.1487  0.0310 -0.1380
  263loPI    C3 4195   3.534   9.296  10.286  0.0087  0.2051 -0.0210
  263loPI   PO4 4196   3.796   9.154   9.715  0.2385  0.0837 -0.1642
  263loPI   GL1 4197   3.524   9.146   9.450  0.1171 -0.1717  0.1243
  263loPI   GL2 4198   3.186   9.324   9.424 -0.1511  0.0972 -0.2840
  263loPI   C1A 4199   3.648   9.261   9.060  0.1901 -0.0574 -0.1880
  263loPI   C2A 4200   3.700   9.427   8.637 -0.2872 -0.2018 -0.2462
  263loPI   C3A 4201   3.655   9.451   8.174 -0.3924  0.1649 -0.1278
  263loPI   C4A 4202   3.667   9.436   7.699  0.2220 -0.3438 -0.2043
  263loPI   C5A 4203   3.597   9.212   7.352  0.1411 -0.2549  0.0398
  263loPI   C6A 4204   3.614   8.981   6.959 -0.1902  0.1115  0.0049
  263loPI   C1B 4205   3.158   9.180   9.058  0.3705 -0.1237 -0.0199
  263loPI   C2B 4206   3.225   9.339   8.733 -0.0357 -0.0712 -0.0794
  263loPI   C3B 4207   3.211   9.400   8.393 -0.1707  0.2056 -0.1822
  263loPI   C4B 4208   3.266   9.282   7.932 -0.0538 -0.2371  0.0454
  264loPI    C1 4209   0.271  14.683  11.075  0.0519  0.0039  0.0396
  264loPI    C2 4210   0.093  14.327  11.030  0.1125 -0.0272  0.0448
  264loPI    C3 4211   0.460  14.348  11.187  0.1601  0.0268 -0.0721
  264loPI   PO4 4212   0.364  14.808  10.854 -0.2512  0.3266  0.1809
  264loPI   GL1 4213   0.442  14.871  10.360  0.1816 -0.1711  0.3929
  264loPI   GL2 4214   0.211  14.591  10.386 -0.0794  0.2172  0.1983
  264loPI   C1A 4215   0.512  14.596   9.943 -0.3090  0.2572 -0.1101
  264loPI   C2A 4216   0.577  14.708   9.406 -0.1098  0.1216 -0.0272
  264loPI   C3A 4217   0.535  14.963   9.044  0.1718 -0.0614 -0.0171
  264loPI   C4A 4218   0.769  15.209   8.710  0.2393 -0.1571  0.0384
  264loPI   C5A 4219   1.230  15.365   8.534  0.0918 -0.3114 -0.0101
  264loPI   C6A 4220   1.440  15.311   8.234 -0.2667 -0.1762  0.2668
  264loPI   C1B 4221   0.091  14.775   9.999 -0.1179 -0.2101  0.0955
  264loPI   C2B 4222   0.145  14.834   9.651  0.1860 -0.4146  0.0901
  264loPI   C3B 4223  -0.157  14.840   9.307 -0.1200 -0.0257  0.1467
  264loPI   C4B 4224  -0.033  14.975   8.861 -0.1115  0.1201 -0.1169
  265loPI    C1 4225   5.054   1.453  10.953 -0.1913 -0.1799  0.2555
  265loPI    C2 4226   5.076   1.803  11.147  0.1817  0.0449 -0.1733
  265loPI    C3 4227   5.140   1.460  11.344  0.1545  0.2379  0.1794
  265loPI   PO4 4228   5.140   1.454  10.683 -0.2349  0.0630  0.0802
  265loPI   GL1 4229   5.184   1.551  10.279  0.0093 -0.1769 -0.0319
  265loPI   GL2 4230   5.570   1.705  10.202  0.1150 -0.2284  0.1532
  265loPI   C1A 4231   5.186   1.639   9.927 -0.2383  0.2711 -0.1916
  265loPI   C2A 4232   5.229   1.732   9.461 -0.0301  0.1233 -0.0197
  265loPI   C3A 4233   5.215   1.689   9.024 -0.0683  0.1388  0.1936
  265loPI   C4A 4234   5.332   1.790   8.623 -0.2058  0.0831  0.1326
  265loPI   C5A 4235   5.379   1.675   8.245  0.3934  0.0506 -0.0218
  265loPI   C6A 4236   5.156   1.514   7.954  0.1684 -0.1066  0.2085
  265loPI   C1B 4237   5.724   1.709   9.747  0.0802 -0.2680  0.0336
  265loPI   C2B 4238   5.774   1.720   9.273  0.0439 -0.0850 -0.4327
  265loPI   C3B 4239   5.817   1.765   8.909 -0.0140 -0.0110  0.3711
  265loPI   C4B 4240   5.935   1.636   8.434  0.0345 -0.3585  0.0390
  266loPI    C1 4241  14.063  14.698  10.782 -0.1181  0.0493 -0.0117
  266loPI    C2 4242  14.022  15.095  10.768 -0.0083  0.0611 -0.0030
  266loPI    C3 4243  14.118  14.916  11.113  0.2099  0.0541 -0.0655
  266loPI   PO4 4244  13.850  14.591  10.744 -0.0612  0.1275  0.2043
  266loPI   GL1 4245  13.532  14.431  10.437 -0.3452  0.1163  0.2514
  266loPI   GL2 4246  13.563  14.682  10.295 -0.2757 -0.0079  0.1961
  266loPI   C1A 4247  13.685  14.173  10.197 -0.0395  0.2453  0.0101
  266loPI   C2A 4248  13.663  14.176   9.782 -0.1485  0.0803  0.1001
  266loPI   C3A 4249  13.666  14.167   9.342 -0.1049 -0.1353 -0.0785
  266loPI   C4A 4250  13.794  14.177   8.839 -0.0920  0.1378  0.1770
  266loPI   C5A 4251  13.906  14.358   8.506 -0.0589  0.0826 -0.1628
  266loPI   C6A 4252  14.092  14.708   8.203  0.2838 -0.0634 -0.1353
  266loPI   C1B 4253  13.425  14.569   9.948  0.2897 -0.1860  0.2898
  266loPI   C2B 4254  13.413  14.655   9.542  0.2625 -0.0180 -0.1115
  266loPI   C3B 4255  13.627  14.589   9.120  0.0256  0.1713 -0.1034
  266loPI   C4B 4256  13.602  14.711   8.721  0.1931  0.1337  0.0337
  267loPI    C1 4257  16.223  16.453  11.363 -0.3945 -0.1854 -0.1372
  267loPI    C2 4258  16.530  16.346  11.596 -0.2066  0.3046 -0.1476
  267loPI    C3 4259  16.248  16.078  11.500  0.0257 -0.0575  0.1539
  267loPI   PO4 4260  16.357  16.542  11.117  0.0534  0.0286 -0.2396
  267loPI   GL1 4261  16.354  16.452  10.703 -0.1983 -0.0055  0.0032
  267loPI   GL2 4262  16.091  16.344  10.517  0.3731 -0.0864  0.1999
  267loPI   C1A 4263  16.471  16.598  10.368 -0.4241  0.5834  0.1406
  267loPI   C2A 4264  16.480  16.872   9.908  0.0462  0.1171 -0.1491
  267loPI   C3A 4265  16.410  16.850   9.485 -0.2452  0.1335  0.1449
  267loPI   C4A 4266  16.430  16.785   9.140 -0.1916  0.0044 -0.0683
  267loPI   C5A 4267  16.549  16.695   8.665 -0.1013 -0.1016 -0.3099
  267loPI   C6A 4268  16.819  16.438   8.545  0.1831 -0.0689 -0.0292
  267loPI   C1B 4269  16.124  16.371   9.910  0.2123  0.1020 -0.1517
  267loPI   C2B 4270  16.178  16.406   9.407  0.0650  0.1629  0.0859
  267loPI   C3B 4271  16.125  16.330   8.968 -0.0461 -0.2265  0.0225
  267loPI   C4B 4272  16.112  16.419   8.472 -0.0368  0.0017  0.0342
  268loPI    C1 4273   7.262   0.207  10.998  0.0305  0.0202 -0.0033
  268loPI    C2 4274   7.410  -0.116  10.814  0.0429  0.1521 -0.2272
  268loPI    C3 4275   7.310  -0.135  11.200  0.2739 -0.0500 -0.1752
  268loPI   PO4 4276   7.051   0.323  10.759  0.1168 -0.2794 -0.0042
  268loPI   GL1 4277   7.131   0.583  10.467 -0.0070 -0.0220  0.0238
  268loPI   GL2 4278   6.903   0.324  10.275  0.1730  0.0575  0.0251
  268loPI   C1A 4279   7.289   0.850  10.198  0.0979  0.3008 -0.2063
  268loPI   C2A 4280   7.222   0.813   9.761  0.0553 -0.0448 -0.0618
  268loPI   C3A 4281   7.341   0.699   9.299  0.1418  0.3078 -0.0093
  268loPI   C4A 4282   7.483   0.618   8.876  0.1061  0.0790 -0.3414
  268loPI   C5A 4283   7.725   0.426   8.537  0.2156  0.0172 -0.3139
  268loPI   C6A 4284   8.035   0.180   8.460  0.1031  0.0864  0.2523
  268loPI   C1B 4285   6.906   0.322   9.827 -0.0396 -0.2490  0.0225
  268loPI   C2B 4286   7.051   0.300   9.408  0.1160 -0.1384  0.1868
  268loPI   C3B 4287   7.162   0.301   9.035 -0.2300 -0.2727 -0.0293
  268loPI   C4B 4288   7.198   0.261   8.547 -0.1552  0.0735 -0.0532
  269loPI    C1 4289   1.279   7.750  10.340  0.3668 -0.0080 -0.2227
  269loPI    C2 4290   1.421   7.442  10.553  0.2767 -0.1204 -0.3232
  269loPI    C3 4291   1.358   7.796  10.729 -0.1108 -0.3030 -0.0815
  269loPI   PO4 4292   1.171   7.579  10.154 -0.0867  0.2600  0.1062
  269loPI   GL1 4293   1.134   7.383   9.790 -0.0188 -0.3509 -0.1345
  269loPI   GL2 4294   0.874   7.637   9.760 -0.0914  0.1374 -0.4164
  269loPI   C1A 4295   0.954   7.222   9.397 -0.1868  0.1747 -0.0443
  269loPI   C2A 4296   0.865   7.113   9.015 -0.1018 -0.2149  0.2783
  269loPI   C3A 4297   0.839   7.020   8.645 -0.0566  0.0247 -0.2087
  269loPI   C4A 4298   1.018   7.080   8.322 -0.1296  0.3451  0.3384
  269loPI   C5A 4299   1.211   7.499   8.109 -0.2356 -0.1056  0.1115
  269loPI   C6A 4300   1.474   7.676   7.777 -0.0438 -0.1879  0.0707
  269loPI   C1B 4301   0.880   7.710   9.330 -0.1001 -0.1706 -0.0593
  269loPI   C2B 4302   0.812   7.658   8.890  0.3129 -0.2145 -0.2047
  269loPI   C3B 4303   0.619   7.476   8.569  0.0253 -0.2633 -0.0888
  269loPI   C4B 4304   0.639   7.378   8.159 -0.1546  0.1064  0.1398
  270loPI    C1 4305   3.463   1.981  10.548  0.0202  0.1748 -0.1550
  270loPI    C2 4306   3.835   2.070  10.665  0.0690 -0.0808 -0.1103
  270loPI    C3 4307   3.536   2.072  10.931  0.0437  0.0893 -0.1390
  270loPI   PO4 4308   3.421   1.955  10.288  0.1717 -0.0559  0.0948
  270loPI   GL1 4309   3.805   2.037  10.083 -0.0343 -0.1507  0.0583
  270loPI   GL2 4310   3.716   1.827   9.916  0.2459 -0.3299  0.0679
  270loPI   C1A 4311   3.982   2.319   9.756  0.1744 -0.0236 -0.1666
  270loPI   C2A 4312   4.049   2.341   9.409 -0.3007  0.2001  0.4121
  270loPI   C3A 4313   4.053   2.327   8.978 -0.2016  0.2851 -0.1821
  270loPI   C4A 4314   3.918   2.123   8.542  0.0623 -0.3561 -0.0333
  270loPI   C5A 4315   3.828   2.030   8.107  0.1808 -0.2060 -0.0368
  270loPI   C6A 4316   3.719   2.170   7.729  0.1076 -0.3377  0.1055
  270loPI   C1B 4317   3.475   1.683   9.450  0.0335 -0.0193 -0.0196
  270loPI   C2B 4318   3.534   1.537   9.058 -0.1850 -0.1646  0.0593
  270loPI   C3B 4319   3.319   1.330   8.632 -0.2682 -0.0774 -0.0368
  270loPI   C4B 4320   3.241   1.258   8.152  0.0198 -0.1280  0.1343
  271loPI    C1 4321   3.141   7.012  10.507 -0.1539 -0.0168 -0.1524
  271loPI    C2 4322   2.856   7.049  10.784  0.0240  0.2882 -0.0051
  271loPI    C3 4323   3.186   6.838  10.864 -0.1062  0.0312 -0.1349
  271loPI   PO4 4324   3.122   6.934  10.254 -0.1732  0.0861  0.0215
  271loPI   GL1 4325   2.869   6.931   9.936 -0.2664  0.0014  0.1990
  271loPI   GL2 4326   3.095   6.968   9.718  0.1844  0.2023  0.2205
  271loPI   C1A 4327   2.609   6.861   9.551 -0.0771  0.1242 -0.4164
  271loPI   C2A 4328   2.540   6.930   9.102 -0.0613  0.2013  0.3245
  271loPI   C3A 4329   2.535   6.940   8.654 -0.0528  0.3352  0.1354
  271loPI   C4A 4330   2.484   6.954   8.216 -0.3014  0.0089  0.0517
  271loPI   C5A 4331   2.286   6.890   7.829  0.1406 -0.0681  0.0432
  271loPI   C6A 4332   2.425   6.498   7.713  0.0527  0.1614  0.1945
  271loPI   C1B 4333   3.006   6.944   9.276 -0.2823 -0.1651  0.0123
  271loPI   C2B 4334   3.040   6.956   8.788  0.0827 -0.3134  0.2929
  271loPI   C3B 4335   2.935   6.889   8.346  0.0972  0.0348 -0.2411
  271loPI   C4B 4336   2.838   6.704   7.891  0.2889  0.2324 -0.0265
  272loPI    C1 4337  11.766   8.857  10.965  0.1168 -0.0565  0.2021
  272loPI    C2 4338  11.647   8.911  11.343  0.1184  0.0603  0.1861
  272loPI    C3 4339  11.377   8.846  11.055  0.1052  0.1391  0.1803
  272loPI   PO4 4340  11.900   9.084  10.902  0.1867 -0.0967  0.1000
  272loPI   GL1 4341  12.153   9.205  10.536  0.1870  0.1726 -0.0509
  272loPI   GL2 4342  12.058   9.536  10.532  0.1686  0.3063  0.2269
  272loPI   C1A 4343  12.239   9.195  10.122 -0.2445  0.3718  0.1974
  272loPI   C2A 4344  12.209   9.118   9.784  0.0707  0.0437  0.1006
  272loPI   C3A 4345  12.229   9.302   9.361 -0.0309  0.3716 -0.1070
  272loPI   C4A 4346  12.073   9.295   8.879 -0.4126 -0.0363 -0.2496
  272loPI   C5A 4347  12.068   9.197   8.486  0.0060 -0.1753  0.3624
  272loPI   C6A 4348  12.257   9.543   8.173 -0.1344 -0.0943 -0.0451
  272loPI   C1B 4349  11.900   9.593  10.043  0.2014 -0.0808  0.3217
  272loPI   C2B 4350  11.874   9.621   9.469 -0.0525  0.3718 -0.1612
  272loPI   C3B 4351  11.944   9.806   9.018 -0.1422 -0.2896  0.1279
  272loPI   C4B 4352  11.933   9.864   8.504 -0.1130  0.2102  0.0269
  273loPI    C1 4353   9.079   2.214  11.405 -0.0434 -0.0346  0.0082
  273loPI    C2 4354   8.930   2.559  11.543 -0.3620 -0.0949 -0.1765
  273loPI    C3 4355   8.899   2.225  11.761  0.1625  0.0339  0.1122
  273loPI   PO4 4356   8.932   2.192  11.177 -0.0074  0.1268 -0.0631
  273loPI   GL1 4357   8.737   2.235  10.770  0.1118 -0.1820  0.1367
  273loPI   GL2 4358   8.882   2.460  10.660 -0.1792  0.1734  0.1698
  273loPI   C1A 4359   8.653   2.147  10.364 -0.2299 -0.2207 -0.1830
  273loPI   C2A 4360   8.766   2.038   9.994 -0.1512 -0.0163  0.0222
  273loPI   C3A 4361   8.746   2.086   9.522 -0.0577  0.0768  0.2266
  273loPI   C4A 4362   8.800   1.937   9.112  0.0751 -0.2095 -0.4633
  273loPI   C5A 4363   8.735   2.020   8.621  0.1369  0.2001 -0.2094
  273loPI   C6A 4364   8.318   1.830   8.452  0.2059  0.0572 -0.0960
  273loPI   C1B 4365   9.031   2.438  10.173  0.0926 -0.0422  0.0904
  273loPI   C2B 4366   9.005   2.478   9.679  0.0792 -0.0109 -0.2119
  273loPI   C3B 4367   9.057   2.418   9.206  0.3975 -0.0445  0.0592
  273loPI   C4B 4368   9.147   2.361   8.746 -0.0369 -0.0577  0.0264
  274loPI    C1 4369  11.207   9.344  11.139  0.0732  0.2417 -0.0373
  274loPI    C2 4370  11.566   9.361  11.314  0.0929  0.0194 -0.0531
  274loPI    C3 4371  11.303   9.658  11.368  0.1043 -0.0366  0.3394
  274loPI   PO4 4372  11.262   9.397  10.792 -0.1732  0.0641  0.2069
  274loPI   GL1 4373  11.528   9.199  10.584  0.0081 -0.3542 -0.0121
  274loPI   GL2 4374  11.373   8.945  10.567  0.0494  0.1682 -0.0836
  274loPI   C1A 4375  11.661   9.149  10.237  0.0293 -0.0323  0.0303
  274loPI   C2A 4376  11.633   9.170   9.820  0.0573 -0.2057 -0.1886
  274loPI   C3A 4377  11.522   9.297   9.362  0.0099 -0.1356 -0.0610
  274loPI   C4A 4378  11.583   9.357   9.014  0.1532  0.2188 -0.0018
  274loPI   C5A 4379  11.583   9.210   8.620  0.0118  0.0659 -0.1956
  274loPI   C6A 4380  11.724   9.114   8.117 -0.1295 -0.2244  0.1731
  274loPI   C1B 4381  11.417   8.705  10.207 -0.1800 -0.0615 -0.0982
  274loPI   C2B 4382  11.259   8.812   9.782 -0.1107 -0.2801 -0.0282
  274loPI   C3B 4383  11.323   8.767   9.429 -0.3701 -0.1272  0.1899
  274loPI   C4B 4384  11.305   8.900   8.992 -0.0135  0.0162 -0.0018
  275loPI    C1 4385  16.223  12.590  11.013  0.4601 -0.2298 -0.2581
  275loPI    C2 4386  15.998  12.283  11.136  0.1763  0.0534 -0.0544
  275loPI    C3 4387  16.259  12.452  11.387  0.2444  0.0573 -0.1278
  275loPI   PO4 4388  15.945  12.726  10.869 -0.0516 -0.4359  0.1258
  275loPI   GL1 4389  15.743  12.809  10.543 -0.3150  0.1130  0.0656
  275loPI   GL2 4390  15.975  12.734  10.297 -0.1496  0.0937  0.0680
  275loPI   C1A 4391  15.754  13.145  10.139  0.1153  0.0240 -0.0720
  275loPI   C2A 4392  15.760  13.194   9.695  0.1533 -0.0972  0.0598
  275loPI   C3A 4393  15.793  13.181   9.223 -0.2679 -0.0764 -0.0368
  275loPI   C4A 4394  15.681  13.249   8.863 -0.1687  0.1255 -0.2811
  275loPI   C5A 4395  15.611  13.157   8.378  0.2027  0.1952 -0.0384
  275loPI   C6A 4396  15.535  13.506   8.003 -0.0444 -0.0539 -0.2706
  275loPI   C1B 4397  15.908  12.733   9.888 -0.3674  0.0168 -0.0097
  275loPI   C2B 4398  15.977  12.773   9.485  0.0305 -0.4938  0.0517
  275loPI   C3B 4399  16.045  12.669   9.051 -0.0474 -0.1665 -0.2034
  275loPI   C4B 4400  15.818  12.635   8.607 -0.0206  0.1819  0.0824
  276loPI    C1 4401   4.771   0.414  10.556  0.2649 -0.1991 -0.1193
  276loPI    C2 4402   4.560   0.083  10.482  0.1294 -0.1408  0.0010
  276loPI    C3 4403   4.797   0.100  10.803 -0.0517 -0.0350  0.1312
  276loPI   PO4 4404   4.799   0.529  10.332  0.2222  0.2298 -0.1763
  276loPI   GL1 4405   5.092   0.678   9.945 -0.0903  0.2412  0.1308
  276loPI   GL2 4406   5.032   0.361   9.919  0.1155  0.1391 -0.0141
  276loPI   C1A 4407   5.222   0.868   9.596 -0.2565 -0.1278  0.0244
  276loPI   C2A 4408   5.183   0.825   9.179  0.1507  0.0970  0.0977
  276loPI   C3A 4409   5.201   0.792   8.664 -0.1625 -0.1320  0.0956
  276loPI   C4A 4410   5.148   0.771   8.290 -0.0227  0.0461 -0.0813
  276loPI   C5A 4411   5.169   0.617   7.886  0.0910 -0.1633 -0.3056
  276loPI   C6A 4412   5.062   0.251   7.705  0.0596 -0.1642 -0.0917
  276loPI   C1B 4413   4.942   0.431   9.474 -0.1152 -0.1619 -0.0768
  276loPI   C2B 4414   4.850   0.383   9.033 -0.2560  0.0021  0.0522
  276loPI   C3B 4415   5.004   0.310   8.649 -0.1034 -0.1294 -0.0674
  276loPI   C4B 4416   4.984   0.297   8.234  0.2935 -0.2241 -0.1849
  277loPI    C1 4417   4.055   8.441  10.014  0.0096  0.0638 -0.0436
  277loPI    C2 4418   3.998   8.371  10.404  0.1694  0.3018  0.0243
  277loPI    C3 4419   4.258   8.148  10.197  0.0053  0.1047  0.0273
  277loPI   PO4 4420   3.891   8.443   9.886  0.0975 -0.2224  0.0857
  277loPI   GL1 4421   3.645   8.573   9.562 -0.0132 -0.1446 -0.1437
  277loPI   GL2 4422   3.844   8.314   9.403 -0.0631  0.3942 -0.1377
  277loPI   C1A 4423   3.769   8.738   9.141  0.0015 -0.1162  0.1279
  277loPI   C2A 4424   3.573   8.887   8.745 -0.0562  0.0584  0.1897
  277loPI   C3A 4425   3.566   8.988   8.409  0.4630  0.0241  0.0905
  277loPI   C4A 4426   3.549   8.852   7.959  0.2599 -0.0764  0.1887
  277loPI   C5A 4427   3.662   8.738   7.496  0.1937  0.0070  0.0888
  277loPI   C6A 4428   3.949   8.507   7.204 -0.0872  0.0735  0.4422
  277loPI   C1B 4429   3.979   8.231   8.988  0.1125 -0.0698 -0.2102
  277loPI   C2B 4430   3.905   8.087   8.503  0.2620 -0.2906  0.1518
  277loPI   C3B 4431   3.774   8.140   8.096  0.1244  0.2383 -0.1916
  277loPI   C4B 4432   3.713   8.251   7.679  0.2704  0.1594 -0.2620
  278loPI    C1 4433  10.952  11.766  11.312  0.0328 -0.2710  0.3155
  278loPI    C2 4434  11.350  11.792  11.281  0.0145 -0.0398  0.2535
  278loPI    C3 4435  11.156  12.019  11.547 -0.1196  0.1950 -0.0391
  278loPI   PO4 4436  10.988  11.635  10.993  0.0782 -0.0059  0.0601
  278loPI   GL1 4437  11.158  11.499  10.546  0.1571  0.1205  0.1689
  278loPI   GL2 4438  10.867  11.317  10.583  0.2231  0.0492 -0.0672
  278loPI   C1A 4439  11.022  11.499  10.127 -0.0500  0.1342  0.2374
  278loPI   C2A 4440  10.828  11.491   9.761  0.0823 -0.2355 -0.0938
  278loPI   C3A 4441  10.752  11.466   9.369 -0.2267  0.0340  0.0678
  278loPI   C4A 4442  10.902  11.568   9.016  0.0303  0.2165 -0.2574
  278loPI   C5A 4443  11.032  11.608   8.643 -0.0985 -0.1045 -0.0664
  278loPI   C6A 4444  10.886  11.768   8.301  0.0958 -0.2673  0.0162
  278loPI   C1B 4445  10.617  11.119  10.168  0.1678  0.3142  0.0738
  278loPI   C2B 4446  10.522  11.040   9.693  0.0883 -0.0255 -0.0592
  278loPI   C3B 4447  10.551  11.052   9.213 -0.0302 -0.0185  0.3335
  278loPI   C4B 4448  10.768  11.086   8.835 -0.0232 -0.0715  0.1443
  279loPI    C1 4449  15.179   4.571  10.696  0.1803  0.2439  0.0347
  279loPI    C2 4450  14.977   4.677  11.025  0.0400  0.0593  0.0101
  279loPI    C3 4451  15.266   4.401  11.048 -0.0243 -0.0120 -0.0351
  279loPI   PO4 4452  15.034   4.609  10.486 -0.2214  0.1554  0.0547
  279loPI   GL1 4453  14.663   4.416  10.169 -0.1331  0.0089  0.1277
  279loPI   GL2 4454  14.403   4.238  10.206 -0.0812  0.0030  0.1331
  279loPI   C1A 4455  14.808   4.535   9.802 -0.1537 -0.1605 -0.0479
  279loPI   C2A 4456  14.757   4.439   9.379  0.2230  0.0058 -0.1945
  279loPI   C3A 4457  14.570   4.551   9.010 -0.2162 -0.0744 -0.0875
  279loPI   C4A 4458  14.244   4.397   8.669 -0.0640 -0.3442  0.0008
  279loPI   C5A 4459  13.892   4.252   8.409  0.4586 -0.0986  0.0571
  279loPI   C6A 4460  13.663   3.931   8.522 -0.0904  0.1892 -0.1747
  279loPI   C1B 4461  14.410   4.238   9.727  0.2296  0.0251  0.0355
  279loPI   C2B 4462  14.323   4.086   9.229  0.0221  0.0308  0.0220
  279loPI   C3B 4463  14.290   3.873   8.795 -0.0140 -0.2942 -0.0173
  279loPI   C4B 4464  14.270   3.803   8.376  0.0663  0.1437 -0.2409
  280loPI    C1 4465  16.068  10.188  10.898 -0.1017  0.1609 -0.0286
  280loPI    C2 4466  16.011   9.909  11.180  0.2780  0.0384 -0.0673
  280loPI    C3 4467  16.237  10.230  11.259  0.2570  0.0819 -0.1826
  280loPI   PO4 4468  15.857  10.358  10.826 -0.0525  0.1720  0.0693
  280loPI   GL1 4469  15.574  10.194  10.519  0.2196  0.2127  0.1185
  280loPI   GL2 4470  15.962  10.132  10.368 -0.1799  0.2099  0.0174
  280loPI   C1A 4471  15.703  10.477  10.159 -0.1257 -0.0115  0.0512
  280loPI   C2A 4472  15.680  10.558   9.706  0.2344  0.1196 -0.0627
  280loPI   C3A 4473  15.615  10.441   9.265  0.0666  0.2899  0.3315
  280loPI   C4A 4474  15.443  10.363   8.824 -0.0169  0.1897 -0.0459
  280loPI   C5A 4475  15.746  10.402   8.510 -0.2981 -0.0809 -0.0872
  280loPI   C6A 4476  16.155  10.455   8.317  0.0886 -0.3420 -0.3313
  280loPI   C1B 4477  15.862  10.047   9.993 -0.0503 -0.2092  0.2127
  280loPI   C2B 4478  15.793  10.059   9.528 -0.0846 -0.0512  0.0937
  280loPI   C3B 4479  15.841  10.068   9.057 -0.0296 -0.1063  0.0248
  280loPI   C4B 4480  15.738   9.944   8.608  0.0378  0.0485 -0.1780
  281loPI    C1 4481  12.307  10.354  11.128  0.0891 -0.0226  0.1534
  281loPI    C2 4482  12.467  10.707  11.228  0.0739  0.0074  0.0727
  281loPI    C3 4483  12.351  10.452  11.513 -0.1734  0.1845  0.1333
  281loPI   PO4 4484  12.189  10.434  10.827 -0.0946 -0.0826  0.3951
  281loPI   GL1 4485  12.279  10.555  10.435  0.0689 -0.2187 -0.1393
  281loPI   GL2 4486  11.967  10.756  10.489  0.0847  0.5079  0.0717
  281loPI   C1A 4487  12.380  10.600  10.039 -0.2381 -0.0657 -0.0969
  281loPI   C2A 4488  12.366  10.492   9.577  0.0208 -0.2009  0.0516
  281loPI   C3A 4489  12.493  10.578   9.182  0.0615 -0.1082 -0.2255
  281loPI   C4A 4490  12.508  10.689   8.859  0.3344 -0.1132  0.0795
  281loPI   C5A 4491  12.641  10.554   8.445  0.0647 -0.2749 -0.1453
  281loPI   C6A 4492  12.593  10.511   7.905 -0.1284 -0.0420 -0.2993
  281loPI   C1B 4493  11.886  10.567  10.191 -0.1276  0.0081  0.2901
  281loPI   C2B 4494  11.887  10.509   9.727  0.0881 -0.0542 -0.1992
  281loPI   C3B 4495  11.977  10.574   9.299 -0.3088  0.0413 -0.0394
  281loPI   C4B 4496  11.950  10.747   8.879 -0.0752 -0.0547 -0.0763
  282loPI    C1 4497  11.928   6.424  11.050 -0.0333  0.1855  0.1276
  282loPI    C2 4498  12.186   6.325  11.339 -0.0688 -0.3916 -0.0242
  282loPI    C3 4499  11.824   6.155  11.327 -0.3140  0.1121 -0.0449
  282loPI   PO4 4500  12.086   6.513  10.759  0.2544 -0.1052  0.0739
  282loPI   GL1 4501  12.335   6.444  10.514  0.1947  0.1233  0.0645
  282loPI   GL2 4502  12.579   6.429  10.338  0.2120 -0.1334  0.1271
  282loPI   C1A 4503  12.103   6.463  10.083 -0.1215 -0.1090 -0.1229
  282loPI   C2A 4504  12.104   6.459   9.651  0.4260 -0.0228  0.2832
  282loPI   C3A 4505  11.976   6.454   9.292  0.0233 -0.0117 -0.1252
  282loPI   C4A 4506  11.918   6.581   8.850 -0.1308  0.2174  0.1539
  282loPI   C5A 4507  12.015   6.155   8.621  0.0253  0.1641  0.1851
  282loPI   C6A 4508  12.133   6.116   8.142 -0.0785 -0.2484  0.0110
  282loPI   C1B 4509  12.708   6.434   9.925  0.1866  0.2627  0.3126
  282loPI   C2B 4510  12.573   6.449   9.479 -0.0245 -0.0046  0.1608
  282loPI   C3B 4511  12.418   6.421   9.032 -0.0534 -0.0589  0.3353
  282loPI   C4B 4512  12.374   6.643   8.709  0.1828 -0.3346  0.3071
  283loPI    C1 4513   7.467  16.426  11.029  0.1450  0.2298  0.1083
  283loPI    C2 4514   7.193  16.183  11.190  0.0539  0.0813 -0.2625
  283loPI    C3 4515   7.509  16.299  11.406  0.0071 -0.2235 -0.0233
  283loPI   PO4 4516   7.464  16.382  10.851 -0.0163  0.1066 -0.0876
  283loPI   GL1 4517   7.626  16.184  10.588  0.0349  0.1660 -0.0651
  283loPI   GL2 4518   7.736  15.929  10.453 -0.0874 -0.1433 -0.0209
  283loPI   C1A 4519   7.438  16.397  10.237 -0.0494 -0.1442  0.1246
  283loPI   C2A 4520   7.515  16.452   9.779  0.0956  0.3024  0.1507
  283loPI   C3A 4521   7.476  16.379   9.300  0.1303 -0.0702 -0.2054
  283loPI   C4A 4522   7.505  16.518   8.841 -0.0755  0.2872 -0.1466
  283loPI   C5A 4523   7.571  16.952   8.517 -0.0706  0.2883 -0.3022
  283loPI   C6A 4524   7.620  17.351   8.340 -0.2388 -0.3085  0.2032
  283loPI   C1B 4525   7.657  15.955  10.082  0.1861 -0.3198  0.0242
  283loPI   C2B 4526   7.733  15.979   9.692  0.1235 -0.0364  0.2139
  283loPI   C3B 4527   7.789  15.939   9.168 -0.0419  0.2673 -0.1793
  283loPI   C4B 4528   7.760  15.890   8.776 -0.0219  0.1023  0.2545
  284loPI    C1 4529  13.419   9.623  11.319 -0.3929 -0.2387 -0.5554
  284loPI    C2 4530  13.150   9.465  11.569 -0.2035 -0.0307 -0.2140
  284loPI    C3 4531  13.476   9.256  11.468 -0.0547  0.0545  0.0763
  284loPI   PO4 4532  13.261   9.764  11.156 -0.1380 -0.0119 -0.1879
  284loPI   GL1 4533  13.261   9.789  10.735  0.0629 -0.0600 -0.1016
  284loPI   GL2 4534  13.060   9.766  10.672 -0.0061  0.0396 -0.2062
  284loPI   C1A 4535  13.611   9.484  10.505 -0.3081  0.1338 -0.0989
  284loPI   C2A 4536  13.725   9.204  10.125  0.2422 -0.0696 -0.0513
  284loPI   C3A 4537  13.718   9.164   9.722 -0.1385  0.0111 -0.1564
  284loPI   C4A 4538  13.773   9.227   9.325  0.2805  0.3895 -0.0920
  284loPI   C5A 4539  13.601   9.079   8.891 -0.2524 -0.0024 -0.1878
  284loPI   C6A 4540  13.797   9.182   8.508 -0.0298 -0.0602  0.0427
  284loPI   C1B 4541  12.955   9.733  10.229  0.2127 -0.0608  0.1379
  284loPI   C2B 4542  12.889   9.635   9.749 -0.0165  0.2527 -0.3083
  284loPI   C3B 4543  12.938   9.550   9.338 -0.0054 -0.0306  0.0940
  284loPI   C4B 4544  12.877   9.670   8.973  0.0843 -0.1117  0.0131
  285loPI    C1 4545   3.014  16.826  10.755  0.0700 -0.1272  0.0897
  285loPI    C2 4546   3.088  17.215  10.816 -0.0249 -0.1153  0.1297
  285loPI    C3 4547   3.391  16.960  10.766  0.0335 -0.0065 -0.0838
  285loPI   PO4 4548   2.851  16.839  10.580 -0.4093 -0.2186 -0.1226
  285loPI   GL1 4549   2.804  16.609  10.263  0.0512  0.0140  0.1035
  285loPI   GL2 4550   2.813  16.958  10.057  0.0008  0.0476  0.0692
  285loPI   C1A 4551   2.771  16.502   9.870 -0.2110  0.1325 -0.0783
  285loPI   C2A 4552   2.855  16.469   9.384  0.1942 -0.2099  0.1335
  285loPI   C3A 4553   2.826  16.623   8.948 -0.0541  0.1344 -0.0612
  285loPI   C4A 4554   2.675  16.566   8.556 -0.3081 -0.2929  0.0518
  285loPI   C5A 4555   2.371  16.468   8.217  0.1222 -0.3853  0.0035
  285loPI   C6A 4556   2.048  16.696   8.078  0.0584  0.1618  0.1612
  285loPI   C1B 4557   2.791  16.993   9.565 -0.0761 -0.1609 -0.0256
  285loPI   C2B 4558   2.715  17.076   9.232 -0.0317 -0.2480  0.2203
  285loPI   C3B 4559   2.516  17.118   8.764  0.0620 -0.1400 -0.1742
  285loPI   C4B 4560   2.327  17.050   8.360  0.3649  0.2344  0.1754
  286loPI    C1 4561  15.852   3.623  10.792 -0.1082  0.0971 -0.0469
  286loPI    C2 4562  15.517   3.733  10.981 -0.0356 -0.0128  0.1496
  286loPI    C3 4563  15.643   3.354  11.002  0.1651  0.0546  0.1770
  286loPI   PO4 4564  15.741   3.823  10.445  0.2876  0.0273  0.0730
  286loPI   GL1 4565  15.492   3.819   9.958 -0.0348  0.0705 -0.3151
  286loPI   GL2 4566  15.529   3.484  10.072 -0.1715 -0.3303  0.0264
  286loPI   C1A 4567  15.377   3.794   9.510  0.0830 -0.0853  0.0511
  286loPI   C2A 4568  15.300   3.865   9.010 -0.0854 -0.1049  0.0524
  286loPI   C3A 4569  15.278   3.893   8.601 -0.3039 -0.1639  0.1973
  286loPI   C4A 4570  15.382   4.005   8.202 -0.4220 -0.2387 -0.1549
  286loPI   C5A 4571  14.928   4.126   8.076  0.2039 -0.0639 -0.0228
  286loPI   C6A 4572  14.602   4.309   8.134 -0.2546  0.0287  0.2233
  286loPI   C1B 4573  15.523   3.325   9.555 -0.1575 -0.5039 -0.0316
  286loPI   C2B 4574  15.537   3.479   9.154 -0.3119  0.0329 -0.1101
  286loPI   C3B 4575  15.505   3.495   8.744 -0.1638  0.0719  0.1286
  286loPI   C4B 4576  15.271   3.350   8.387 -0.0481  0.2370 -0.0507
  287loPI    C1 4577   5.105   3.934  10.833  0.0103  0.0428 -0.3674
  287loPI    C2 4578   4.742   4.101  10.819 -0.0050  0.0445 -0.0306
  287loPI    C3 4579   5.028   4.265  11.044  0.1570 -0.0503 -0.1653
  287loPI   PO4 4580   5.115   3.860  10.575  0.0912  0.3926  0.2611
  287loPI   GL1 4581   5.254   4.001  10.167 -0.1487  0.0506 -0.2830
  287loPI   GL2 4582   5.110   4.133   9.875 -0.0291  0.0350  0.0694
  287loPI   C1A 4583   5.354   3.668   9.833 -0.0048 -0.1373  0.1929
  287loPI   C2A 4584   5.332   3.589   9.351 -0.3207 -0.1911 -0.1934
  287loPI   C3A 4585   5.342   3.506   8.943  0.1507 -0.0823 -0.1287
  287loPI   C4A 4586   5.414   3.436   8.511  0.0364 -0.2189 -0.1155
  287loPI   C5A 4587   5.306   3.431   8.035  0.0638  0.0660  0.0221
  287loPI   C6A 4588   5.460   3.768   7.824 -0.0358  0.0443  0.1162
  287loPI   C1B 4589   5.166   4.073   9.462 -0.2925  0.2289  0.1050
  287loPI   C2B 4590   5.133   3.924   9.021 -0.0544  0.0303  0.0226
  287loPI   C3B 4591   5.219   3.878   8.636  0.1884 -0.1302 -0.3092
  287loPI   C4B 4592   5.132   3.904   8.166  0.0684 -0.0259 -0.1288
  288loPI    C1 4593   9.167  14.143  11.108  0.1525  0.1742 -0.0078
  288loPI    C2 4594   9.193  13.805  11.321 -0.0481  0.0179 -0.2249
  288loPI    C3 4595   9.110  14.151  11.504  0.1999 -0.0405  0.0047
  288loPI   PO4 4596   9.244  14.072  10.925  0.1182 -0.2342 -0.1201
  288loPI   GL1 4597   9.279  13.771  10.541  0.0083  0.2160 -0.1023
  288loPI   GL2 4598   9.562  14.014  10.544 -0.0665 -0.0095 -0.1253
  288loPI   C1A 4599   9.094  13.759  10.146  0.0118 -0.1601 -0.0597
  288loPI   C2A 4600   9.144  13.880   9.775 -0.0207  0.1045 -0.0600
  288loPI   C3A 4601   9.201  13.906   9.324 -0.0030 -0.2688 -0.2112
  288loPI   C4A 4602   9.228  13.824   8.871 -0.1362 -0.2137  0.0395
  288loPI   C5A 4603   9.393  13.836   8.486 -0.2725  0.0314  0.0072
  288loPI   C6A 4604   9.714  13.597   8.284 -0.0009 -0.3852  0.0463
  288loPI   C1B 4605   9.362  14.257  10.170  0.0233  0.0170  0.0427
  288loPI   C2B 4606   9.390  14.312   9.681 -0.3255  0.2110  0.1462
  288loPI   C3B 4607   9.427  14.464   9.227 -0.0331 -0.0564  0.2860
  288loPI   C4B 4608   9.621  14.294   8.803 -0.0631  0.1175  0.0474
  289loPI    C1 4609  13.670  12.756  11.072  0.0204 -0.1429 -0.1341
  289loPI    C2 4610  13.482  13.052  11.264  0.2582 -0.0370 -0.0605
  289loPI    C3 4611  13.357  12.674  11.307  0.0399  0.0356 -0.0443
  289loPI   PO4 4612  13.706  12.882  10.840  0.0971  0.0776 -0.1525
  289loPI   GL1 4613  13.702  13.156  10.507  0.0807  0.1741  0.2405
  289loPI   GL2 4614  13.510  13.299  10.349 -0.3273 -0.0300  0.0723
  289loPI   C1A 4615  14.011  13.264  10.231  0.1904 -0.2105  0.3430
  289loPI   C2A 4616  14.137  13.241   9.882 -0.1201  0.0931  0.2493
  289loPI   C3A 4617  14.187  13.288   9.461  0.2431 -0.2199  0.0527
  289loPI   C4A 4618  14.212  13.267   9.106  0.1720 -0.1008 -0.6123
  289loPI   C5A 4619  14.218  13.315   8.694  0.1428 -0.3804 -0.2259
  289loPI   C6A 4620  14.324  13.041   8.345  0.0269  0.2129  0.1091
  289loPI   C1B 4621  13.613  13.319   9.966 -0.0226  0.1490  0.0039
  289loPI   C2B 4622  13.682  13.268   9.654  0.1843 -0.0023  0.0737
  289loPI   C3B 4623  13.675  13.326   9.266  0.4243  0.1348  0.3400
  289loPI   C4B 4624  13.731  13.220   8.908 -0.3014 -0.1387 -0.0743
  290loPI    C1 4625  13.694   3.440  11.022 -0.0130 -0.1053 -0.0628
  290loPI    C2 4626  13.994   3.643  11.192  0.0873 -0.2335 -0.0846
  290loPI    C3 4627  13.780   3.384  11.409 -0.1631  0.0310 -0.0085
  290loPI   PO4 4628  13.773   3.372  10.770  0.0825 -0.0930  0.2373
  290loPI   GL1 4629  13.982   3.175  10.463  0.2156  0.1033 -0.1911
  290loPI   GL2 4630  14.150   3.386  10.329  0.1819  0.0576  0.3723
  290loPI   C1A 4631  13.789   3.027  10.051  0.0687  0.0253 -0.0662
  290loPI   C2A 4632  13.751   3.000   9.607  0.1068 -0.1934 -0.2684
  290loPI   C3A 4633  13.729   3.025   9.136 -0.0036 -0.3206  0.0132
  290loPI   C4A 4634  13.773   3.064   8.658  0.0988  0.1728 -0.0762
  290loPI   C5A 4635  14.097   3.068   8.319  0.2873  0.0135 -0.0352
  290loPI   C6A 4636  14.380   3.356   8.180 -0.0013  0.2771 -0.2686
  290loPI   C1B 4637  14.076   3.308   9.794 -0.3306 -0.3638 -0.0672
  290loPI   C2B 4638  14.076   3.303   9.403 -0.1399 -0.0409  0.0220
  290loPI   C3B 4639  14.234   3.113   9.071  0.2277 -0.3874  0.1305
  290loPI   C4B 4640  14.310   2.916   8.710 -0.1374  0.1848 -0.0792
  291loPI    C1 4641  16.392   3.371  10.772 -0.0935  0.0181 -0.1601
  291loPI    C2 4642  16.774   3.276  10.702 -0.1321 -0.0813 -0.2377
  291loPI    C3 4643  16.561   3.066  10.967 -0.0366  0.1859  0.0575
  291loPI   PO4 4644  16.209   3.389  10.585  0.0860  0.1188  0.0435
  291loPI   GL1 4645  16.047   3.488  10.201 -0.2287 -0.2272  0.2205
  291loPI   GL2 4646  16.075   3.134  10.173 -0.3118 -0.0756  0.1072
  291loPI   C1A 4647  15.998   3.591   9.755 -0.0520 -0.0882  0.0432
  291loPI   C2A 4648  16.070   3.512   9.408  0.2115 -0.2712 -0.0201
  291loPI   C3A 4649  16.234   3.369   9.086  0.2043 -0.2153  0.0943
  291loPI   C4A 4650  16.134   3.378   8.637  0.0671 -0.1795 -0.0729
  291loPI   C5A 4651  16.210   3.378   8.181  0.0201  0.2111 -0.2892
  291loPI   C6A 4652  16.401   3.053   7.864  0.0963 -0.3093 -0.1953
  291loPI   C1B 4653  15.963   3.062   9.728 -0.1379 -0.4045 -0.0660
  291loPI   C2B 4654  15.906   2.988   9.321  0.2542 -0.0360 -0.0915
  291loPI   C3B 4655  15.891   2.926   8.783  0.0326  0.2492 -0.2452
  291loPI   C4B 4656  15.712   3.045   8.338  0.0117  0.1000 -0.2646
  292loPI    C1 4657  14.656   3.938  10.941 -0.1011  0.1570  0.0318
  292loPI    C2 4658  14.699   4.208  10.650 -0.0450  0.0384 -0.0708
  292loPI    C3 4659  15.022   4.049  10.823 -0.0780  0.0648  0.0152
  292loPI   PO4 4660  14.464   3.840  10.905  0.0774 -0.2834 -0.0624
  292loPI   GL1 4661  14.338   3.814  10.458 -0.1258 -0.1146 -0.1496
  292loPI   GL2 4662  14.544   3.803  10.346  0.3140  0.2642  0.1962
  292loPI   C1A 4663  14.149   3.768  10.033  0.1693 -0.1012  0.4134
  292loPI   C2A 4664  14.184   3.747   9.572 -0.1477 -0.2107  0.3078
  292loPI   C3A 4665  13.984   3.684   9.108  0.1161  0.2284  0.3562
  292loPI   C4A 4666  13.982   3.516   8.688 -0.1724  0.0189 -0.1024
  292loPI   C5A 4667  13.869   3.554   8.276  0.2477  0.1644 -0.0227
  292loPI   C6A 4668  14.033   3.609   7.905 -0.3500  0.4416 -0.0017
  292loPI   C1B 4669  14.541   3.501   9.945  0.0089 -0.0896 -0.0830
  292loPI   C2B 4670  14.533   3.408   9.483  0.0334 -0.2092 -0.0523
  292loPI   C3B 4671  14.568   3.499   9.073  0.0977  0.0960  0.0532
  292loPI   C4B 4672  14.469   3.363   8.671 -0.1002 -0.0150 -0.0879
  293loPI    C1 4673   6.405  10.612  10.329 -0.0927 -0.1265 -0.0217
  293loPI    C2 4674   6.237  10.251  10.371  0.0798 -0.1628  0.3991
  293loPI    C3 4675   6.358  10.455  10.694  0.1330  0.2029  0.1540
  293loPI   PO4 4676   6.512  10.591  10.104 -0.1079 -0.2107  0.1246
  293loPI   GL1 4677   6.640  10.874   9.829 -0.1661  0.2194  0.1816
  293loPI   GL2 4678   6.349  10.979   9.778 -0.0528  0.0533  0.2060
  293loPI   C1A 4679   6.767  10.652   9.436  0.1532  0.0181 -0.0748
  293loPI   C2A 4680   6.776  10.675   9.063 -0.0427  0.0597  0.0363
  293loPI   C3A 4681   6.748  10.802   8.652  0.0196 -0.0681  0.2824
  293loPI   C4A 4682   6.615  11.040   8.332 -0.1557 -0.2976  0.1056
  293loPI   C5A 4683   6.623  11.390   7.934 -0.2007  0.1058 -0.0040
  293loPI   C6A 4684   6.571  11.676   7.580  0.1677 -0.0415 -0.0107
  293loPI   C1B 4685   6.386  10.988   9.338 -0.1347 -0.3139 -0.3825
  293loPI   C2B 4686   6.336  10.966   8.972  0.1790 -0.0342  0.1892
  293loPI   C3B 4687   6.181  10.908   8.703  0.0815  0.0713 -0.0853
  293loPI   C4B 4688   6.268  10.729   8.306  0.0532 -0.1201  0.0164
  294loPI    C1 4689  17.785  13.771  10.822  0.1179  0.0324  0.0303
  294loPI    C2 4690  17.664  13.790  11.202  0.2147  0.1746  0.0551
  294loPI    C3 4691  17.395  13.797  10.906  0.1411  0.0974  0.1192
  294loPI   PO4 4692  17.939  13.546  10.735  0.3618 -0.1017 -0.1045
  294loPI   GL1 4693  17.991  13.482  10.319  0.2533 -0.0697  0.1024
  294loPI   GL2 4694  17.832  13.807  10.293 -0.0181 -0.0650  0.2883
  294loPI   C1A 4695  17.618  13.470   9.969  0.2436 -0.1214 -0.0210
  294loPI   C2A 4696  17.597  13.549   9.539  0.2288  0.3028 -0.0057
  294loPI   C3A 4697  17.548  13.478   9.167 -0.2249 -0.1279 -0.1768
  294loPI   C4A 4698  17.629  13.600   8.751  0.0955  0.1479 -0.1487
  294loPI   C5A 4699  17.715  13.731   8.265 -0.0992 -0.3236 -0.1760
  294loPI   C6A 4700  17.957  13.954   8.069  0.0799  0.2276 -0.1127
  294loPI   C1B 4701  17.881  13.883   9.841 -0.0579  0.1655  0.3209
  294loPI   C2B 4702  17.958  13.940   9.421  0.0310  0.0273  0.4759
  294loPI   C3B 4703  17.899  13.974   8.984 -0.0286  0.1244 -0.0187
  294loPI   C4B 4704  17.917  14.176   8.619 -0.2600  0.0357 -0.1092
  295loPI    C1 4705  12.613  16.902  10.826  0.0698 -0.0866 -0.3082
  295loPI    C2 4706  13.011  16.902  10.868  0.0491  0.0818 -0.0917
  295loPI    C3 4707  12.798  16.580  10.974  0.0982  0.1132  0.1065
  295loPI   PO4 4708  12.574  17.009  10.632 -0.3519 -0.0389  0.0964
  295loPI   GL1 4709  12.768  16.808  10.282 -0.2888 -0.2798  0.1104
  295loPI   GL2 4710  13.143  16.951  10.177 -0.4255 -0.0308  0.0510
  295loPI   C1A 4711  12.674  17.049   9.877 -0.0877 -0.0179  0.2148
  295loPI   C2A 4712  12.719  16.995   9.481  0.0144  0.1434 -0.2658
  295loPI   C3A 4713  12.824  17.013   9.073  0.0078  0.1953  0.0529
  295loPI   C4A 4714  12.910  17.019   8.656  0.1237  0.1205 -0.0301
  295loPI   C5A 4715  12.712  16.877   8.436 -0.0993 -0.1832  0.3601
  295loPI   C6A 4716  12.394  16.590   8.388 -0.1493 -0.1344 -0.0882
  295loPI   C1B 4717  13.165  17.025   9.706 -0.1199 -0.0503 -0.2017
  295loPI   C2B 4718  13.272  17.027   9.288 -0.0037  0.0235 -0.0950
  295loPI   C3B 4719  13.320  16.819   8.842  0.1501 -0.0368  0.1958
  295loPI   C4B 4720  13.258  16.774   8.395 -0.1872  0.0481  0.0942
  296loPI    C1 4721   5.732  16.385  10.784  0.0495  0.1170  0.1562
  296loPI    C2 4722   5.571  16.036  10.895  0.0850  0.1372  0.2715
  296loPI    C3 4723   5.857  16.206  11.119  0.1940  0.1527  0.1223
  296loPI   PO4 4724   5.608  16.433  10.543 -0.1988 -0.0850 -0.0721
  296loPI   GL1 4725   5.576  16.611  10.225 -0.0119 -0.2814  0.0434
  296loPI   GL2 4726   5.795  16.675  10.098 -0.2246 -0.1918 -0.0073
  296loPI   C1A 4727   5.307  16.454   9.930 -0.0487  0.0962  0.5886
  296loPI   C2A 4728   5.385  16.513   9.434 -0.1589  0.1546  0.2574
  296loPI   C3A 4729   5.415  16.511   8.995  0.2800 -0.1381 -0.1176
  296loPI   C4A 4730   5.569  16.630   8.560  0.0552 -0.1870  0.0661
  296loPI   C5A 4731   5.556  16.714   8.080  0.1871  0.1246 -0.3888
  296loPI   C6A 4732   5.178  16.755   7.879  0.1699 -0.0526  0.1890
  296loPI   C1B 4733   5.938  16.563   9.705 -0.1178 -0.0146  0.0141
  296loPI   C2B 4734   5.863  16.490   9.267 -0.1258 -0.2367 -0.0230
  296loPI   C3B 4735   6.027  16.519   8.772  0.1935 -0.1076  0.0165
  296loPI   C4B 4736   6.024  16.629   8.344 -0.1439 -0.0785  0.1088
  297loPI    C1 4737   7.619   1.583  11.199 -0.1585 -0.0587  0.0669
  297loPI    C2 4738   7.509   1.864  11.461 -0.3922  0.0091 -0.0997
  297loPI    C3 4739   7.289   1.533  11.420 -0.1532 -0.1717  0.0498
  297loPI   PO4 4740   7.633   1.688  10.957  0.1331 -0.1444 -0.1096
  297loPI   GL1 4741   7.742   1.551  10.606  0.0587  0.3195  0.1526
  297loPI   GL2 4742   7.953   1.729  10.558  0.1079  0.0741  0.1499
  297loPI   C1A 4743   7.724   1.689  10.149 -0.0472 -0.2223 -0.0521
  297loPI   C2A 4744   7.839   1.728   9.616  0.3380  0.0229  0.3984
  297loPI   C3A 4745   7.891   1.528   9.267 -0.0124  0.0054 -0.0206
  297loPI   C4A 4746   8.058   1.513   8.788  0.3421  0.1253 -0.2653
  297loPI   C5A 4747   7.941   1.508   8.349 -0.1546  0.1061 -0.3070
  297loPI   C6A 4748   7.912   1.252   7.868  0.3361 -0.0835 -0.2917
  297loPI   C1B 4749   8.092   2.003  10.133 -0.2164 -0.1602  0.0650
  297loPI   C2B 4750   8.034   2.157   9.729 -0.1709  0.0303 -0.0167
  297loPI   C3B 4751   8.187   1.961   9.385 -0.1473  0.0673  0.2227
  297loPI   C4B 4752   8.304   1.955   8.905 -0.0552  0.0792 -0.0671
  298loPI    C1 4753  16.542   7.067  10.851 -0.1783 -0.4225 -0.0551
  298loPI    C2 4754  16.635   6.927  10.488  0.2110 -0.0206 -0.1191
  298loPI    C3 4755  16.914   6.940  10.774 -0.0599 -0.2135  0.1594
  298loPI   PO4 4756  16.447   7.295  10.792 -0.0126 -0.0449 -0.3309
  298loPI   GL1 4757  16.390   7.422  10.405  0.0965 -0.2709  0.0453
  298loPI   GL2 4758  16.175   7.196  10.401  0.0022 -0.2856  0.2550
  298loPI   C1A 4759  16.171   7.629  10.018 -0.1283  0.0918  0.0043
  298loPI   C2A 4760  16.120   7.684   9.678  0.0269  0.0144 -0.1723
  298loPI   C3A 4761  16.036   7.657   9.239 -0.3191  0.2177 -0.2166
  298loPI   C4A 4762  16.051   7.716   8.795 -0.1400  0.1727  0.0823
  298loPI   C5A 4763  15.926   7.482   8.514  0.3171  0.0262  0.0162
  298loPI   C6A 4764  15.934   7.483   8.042  0.0831 -0.0652 -0.2294
  298loPI   C1B 4765  16.381   7.096  10.012  0.0709  0.4104  0.2058
  298loPI   C2B 4766  16.359   7.155   9.651 -0.0105 -0.1264  0.1604
  298loPI   C3B 4767  16.225   7.191   9.219  0.1713 -0.0439 -0.0906
  298loPI   C4B 4768  16.160   7.053   8.756  0.4970  0.1954 -0.0781
  299loPI    C1 4769  10.376   0.323  11.307  0.0352  0.3143  0.0369
  299loPI    C2 4770  10.711   0.113  11.246 -0.0896  0.1174  0.0211
  299loPI    C3 4771  10.592   0.195  11.619 -0.1361  0.0032  0.0319
  299loPI   PO4 4772  10.329   0.563  11.129 -0.1018  0.1274  0.0635
  299loPI   GL1 4773  10.327   0.700  10.628  0.1467 -0.1302 -0.2371
  299loPI   GL2 4774   9.976   0.586  10.660  0.1661  0.1456 -0.0330
  299loPI   C1A 4775  10.455   0.632  10.229 -0.1704 -0.0766  0.1080
  299loPI   C2A 4776  10.351   0.500   9.737 -0.2765  0.0169 -0.0371
  299loPI   C3A 4777  10.466   0.598   9.304  0.2243 -0.0903 -0.0063
  299loPI   C4A 4778  10.559   0.597   8.765  0.2881  0.1836 -0.3578
  299loPI   C5A 4779  10.517   0.595   8.363 -0.2438 -0.0439  0.0113
  299loPI   C6A 4780  10.433   0.387   7.904 -0.1111  0.1302 -0.1988
  299loPI   C1B 4781   9.958   0.625  10.210 -0.0678 -0.0732  0.1239
  299loPI   C2B 4782   9.864   0.560   9.673  0.2742  0.1844 -0.0050
  299loPI   C3B 4783   9.961   0.566   9.263 -0.1084 -0.0056  0.1440
  299loPI   C4B 4784  10.037   0.588   8.802 -0.4032  0.2691 -0.0913
  300loPI    C1 4785   4.567  10.771  10.088 -0.0506  0.1524 -0.0486
  300loPI    C2 4786   4.510  10.755  10.483  0.1511  0.1119 -0.0199
  300loPI    C3 4787   4.555  10.417  10.274  0.0637  0.1342 -0.0754
  300loPI   PO4 4788   4.598  11.016  10.029 -0.0880  0.0239  0.1354
  300loPI   GL1 4789   4.511  11.086   9.589 -0.1270 -0.0124  0.3508
  300loPI   GL2 4790   4.305  10.848   9.635  0.1633  0.0910  0.2461
  300loPI   C1A 4791   4.496  11.416   9.367 -0.0316 -0.0828  0.0155
  300loPI   C2A 4792   4.471  11.540   8.888  0.4238 -0.1318 -0.0735
  300loPI   C3A 4793   4.327  11.465   8.484  0.1832  0.4312 -0.3354
  300loPI   C4A 4794   4.478  11.553   8.127  0.3423 -0.1465  0.1804
  300loPI   C5A 4795   4.529  11.329   7.719  0.0134 -0.0967  0.0718
  300loPI   C6A 4796   4.780  11.095   7.419  0.0836  0.0738  0.0586
  300loPI   C1B 4797   4.417  11.000   9.136  0.0820 -0.0924 -0.0310
  300loPI   C2B 4798   4.459  11.008   8.788 -0.0576  0.0697  0.3184
  300loPI   C3B 4799   4.122  10.981   8.448  0.1341 -0.2032 -0.0903
  300loPI   C4B 4800   4.090  11.152   8.128 -0.3686 -0.1435 -0.0744
  301loPI    C1 4801   9.283  15.570  11.191 -0.4388  0.3652  0.0420
  301loPI    C2 4802   9.481  15.501  11.531 -0.1588  0.1119 -0.1667
  301loPI    C3 4803   9.097  15.395  11.498 -0.0756 -0.2361 -0.0634
  301loPI   PO4 4804   9.486  15.616  10.969  0.2104 -0.0238 -0.0291
  301loPI   GL1 4805   9.435  15.919  10.579  0.0541 -0.2351 -0.1039
  301loPI   GL2 4806   9.169  15.917  10.292  0.1525  0.2671  0.1401
  301loPI   C1A 4807   9.728  15.755  10.284  0.0503 -0.3563 -0.2150
  301loPI   C2A 4808   9.812  15.786   9.830  0.1068  0.3997 -0.0209
  301loPI   C3A 4809   9.880  15.826   9.344  0.1029  0.1284 -0.1508
  301loPI   C4A 4810   9.736  15.656   8.931 -0.1367 -0.1377 -0.2076
  301loPI   C5A 4811   9.951  15.807   8.496  0.1959  0.2160  0.2525
  301loPI   C6A 4812   9.992  15.985   8.041  0.1068  0.1191  0.0158
  301loPI   C1B 4813   9.315  15.965   9.876  0.0626 -0.3636 -0.2482
  301loPI   C2B 4814   9.384  15.889   9.501  0.1820 -0.4752  0.0680
  301loPI   C3B 4815   9.296  15.867   9.148  0.1580  0.0300 -0.1588
  301loPI   C4B 4816   9.124  15.827   8.777  0.1013  0.2258  0.1251
  302loPI    C1 4817   7.292   9.968  10.738  0.2983  0.0165 -0.1158
  302loPI    C2 4818   7.511   9.641  10.811 -0.1404 -0.2658 -0.0291
  302loPI    C3 4819   7.131   9.660  10.935 -0.0847  0.3345  0.0827
  302loPI   PO4 4820   7.270  10.007  10.459  0.1401 -0.0217  0.1052
  302loPI   GL1 4821   7.299   9.855  10.020  0.1376  0.2231  0.1045
  302loPI   GL2 4822   7.021   9.950  10.012 -0.2103  0.0820 -0.4152
  302loPI   C1A 4823   7.586   9.737   9.809  0.0886 -0.0342 -0.1555
  302loPI   C2A 4824   7.664   9.738   9.478 -0.1613 -0.3262 -0.3330
  302loPI   C3A 4825   7.661   9.829   9.114  0.0600  0.0729 -0.0369
  302loPI   C4A 4826   7.816   9.837   8.632 -0.3077 -0.2649 -0.0514
  302loPI   C5A 4827   7.836   9.910   8.204 -0.2033 -0.1818  0.1562
  302loPI   C6A 4828   7.753  10.264   7.936 -0.2896  0.3213 -0.2033
  302loPI   C1B 4829   7.077   9.762   9.580  0.1331 -0.2365 -0.2124
  302loPI   C2B 4830   7.168   9.750   9.327 -0.1339  0.2614  0.2824
  302loPI   C3B 4831   7.248   9.623   8.913 -0.0602  0.4322 -0.0340
  302loPI   C4B 4832   7.365   9.615   8.459 -0.2574  0.3620  0.1473
  303loPI    C1 4833  14.999   2.451  10.520 -0.0701  0.0711 -0.0402
  303loPI    C2 4834  15.124   2.707  10.239 -0.0273  0.0735 -0.0191
  303loPI    C3 4835  15.345   2.387  10.330 -0.0092  0.1077  0.0580
  303loPI   PO4 4836  14.653   2.521  10.399 -0.1695 -0.0165 -0.3128
  303loPI   GL1 4837  14.658   2.571  10.019 -0.0205  0.1975  0.1291
  303loPI   GL2 4838  14.949   2.573   9.788  0.1970  0.0321 -0.0451
  303loPI   C1A 4839  14.492   2.491   9.584 -0.3252 -0.0287 -0.2110
  303loPI   C2A 4840  14.519   2.549   9.117 -0.0642 -0.1441 -0.1999
  303loPI   C3A 4841  14.545   2.526   8.660 -0.0978  0.0356 -0.0876
  303loPI   C4A 4842  14.395   2.627   8.301  0.0144  0.3507  0.1796
  303loPI   C5A 4843  14.492   2.920   7.950  0.0384  0.0393  0.2628
  303loPI   C6A 4844  14.393   3.197   7.658  0.5505 -0.0892 -0.2444
  303loPI   C1B 4845  15.018   2.534   9.339 -0.1852  0.0793 -0.2932
  303loPI   C2B 4846  15.181   2.546   8.936 -0.0635  0.2391  0.4621
  303loPI   C3B 4847  15.171   2.566   8.499  0.0976 -0.2195  0.2191
  303loPI   C4B 4848  15.600   2.556   8.331 -0.3500 -0.1919  0.0492
  304loPI    C1 4849   3.018   4.906  10.124 -0.0163  0.1264 -0.1530
  304loPI    C2 4850   3.185   5.226  10.297 -0.0793  0.0604  0.0320
  304loPI    C3 4851   3.072   4.914  10.520 -0.0297 -0.0865 -0.1459
  304loPI   PO4 4852   2.788   4.962   9.939 -0.8043 -0.0556  0.0514
  304loPI   GL1 4853   2.447   4.852   9.675  0.1676 -0.0561  0.1920
  304loPI   GL2 4854   2.634   4.464   9.723 -0.2007  0.0348 -0.0320
  304loPI   C1A 4855   2.636   4.811   9.328  0.1520  0.0593  0.0709
  304loPI   C2A 4856   2.557   4.961   8.952  0.1126 -0.1319  0.0448
  304loPI   C3A 4857   2.513   5.003   8.497 -0.1023  0.1516 -0.0297
  304loPI   C4A 4858   2.518   4.907   8.191  0.0255  0.0218 -0.1208
  304loPI   C5A 4859   2.485   4.507   7.967 -0.1345  0.1305  0.1753
  304loPI   C6A 4860   2.691   4.095   7.979  0.2796 -0.2942  0.0168
  304loPI   C1B 4861   2.784   4.302   9.246 -0.3535  0.1126  0.0992
  304loPI   C2B 4862   2.737   4.468   8.889  0.2086  0.1060 -0.1575
  304loPI   C3B 4863   2.633   4.449   8.429  0.1174 -0.1206 -0.1258
  304loPI   C4B 4864   2.278   4.141   8.321 -0.2722 -0.1002 -0.1070
  305loPI    C1 4865   7.605  14.665  11.029 -0.0647  0.1616 -0.2444
  305loPI    C2 4866   7.860  14.967  10.975  0.1851 -0.0285 -0.1480
  305loPI    C3 4867   7.893  14.733  11.298 -0.0862 -0.0819 -0.1568
  305loPI   PO4 4868   7.530  14.590  10.667 -0.1703 -0.1972 -0.0686
  305loPI   GL1 4869   7.435  14.529  10.302  0.0981 -0.2697 -0.0524
  305loPI   GL2 4870   7.241  14.864  10.333 -0.0039  0.0997 -0.1361
  305loPI   C1A 4871   7.388  14.529   9.907  0.0437  0.1546 -0.0519
  305loPI   C2A 4872   7.324  14.587   9.449  0.0390 -0.1565  0.0068
  305loPI   C3A 4873   7.420  14.526   9.029 -0.3563  0.0769 -0.0078
  305loPI   C4A 4874   7.407  14.447   8.585 -0.4033 -0.0154  0.0689
  305loPI   C5A 4875   7.477  14.362   8.220 -0.0540  0.1099  0.1316
  305loPI   C6A 4876   7.689  14.100   7.798  0.0937  0.1839  0.0793
  305loPI   C1B 4877   7.163  15.045   9.999  0.0401  0.3124 -0.1999
  305loPI   C2B 4878   7.114  15.019   9.638 -0.1628 -0.0562 -0.2755
  305loPI   C3B 4879   7.227  15.089   9.274 -0.1553  0.0316 -0.0119
  305loPI   C4B 4880   7.150  14.994   8.848  0.2354  0.2259  0.3156
  306loPI    C1 4881  10.072  17.094  11.534  0.0718  0.0422  0.0577
  306loPI    C2 4882  10.183  16.749  11.704  0.0330 -0.0395 -0.0810
  306loPI    C3 4883  10.457  16.983  11.530  0.0295 -0.1027 -0.1725
  306loPI   PO4 4884   9.856  17.036  11.355  0.1302 -0.1479 -0.0041
  306loPI   GL1 4885   9.818  16.781  10.903  0.1085 -0.0859 -0.0814
  306loPI   GL2 4886   9.512  16.919  10.668  0.2652  0.1946 -0.2543
  306loPI   C1A 4887   9.849  16.727  10.330  0.1407 -0.3137  0.1059
  306loPI   C2A 4888   9.861  16.767   9.827 -0.1628  0.0550  0.0580
  306loPI   C3A 4889   9.865  16.691   9.420  0.1408  0.0827  0.2056
  306loPI   C4A 4890   9.877  16.738   9.029 -0.3779 -0.1074 -0.1986
  306loPI   C5A 4891   9.859  16.536   8.694 -0.0718  0.0788 -0.3479
  306loPI   C6A 4892  10.044  16.297   8.421  0.1121  0.0624 -0.2770
  306loPI   C1B 4893   9.598  17.287  10.405 -0.0335  0.0761  0.2583
  306loPI   C2B 4894   9.571  17.257   9.976  0.0158  0.0774  0.0423
  306loPI   C3B 4895   9.664  17.189   9.553  0.0568  0.0796  0.3323
  306loPI   C4B 4896   9.801  17.193   9.126  0.2640 -0.0650  0.3156
  307loPI    C1 4897  11.430   6.508  11.339  0.2742  0.1562 -0.0976
  307loPI    C2 4898  11.434   6.263  11.655  0.1500  0.1125 -0.1294
  307loPI    C3 4899  11.350   6.651  11.704  0.4004  0.1615 -0.0715
  307loPI   PO4 4900  11.308   6.286  11.169 -0.1792  0.3783 -0.0344
  307loPI   GL1 4901  11.205   6.215  10.712  0.2901  0.1794  0.0902
  307loPI   GL2 4902  10.943   6.430  10.565 -0.1083 -0.1783  0.4397
  307loPI   C1A 4903  11.193   5.957  10.290  0.1981  0.0741  0.1803
  307loPI   C2A 4904  11.203   6.088   9.920 -0.1542 -0.2181 -0.2242
  307loPI   C3A 4905  11.252   5.977   9.440 -0.0032  0.2006  0.2722
  307loPI   C4A 4906  11.276   6.085   8.923 -0.1697  0.2215 -0.1103
  307loPI   C5A 4907  11.431   6.390   8.584 -0.0378 -0.1694 -0.1467
  307loPI   C6A 4908  11.560   6.877   8.685  0.0573 -0.2233 -0.0504
  307loPI   C1B 4909  10.955   6.447  10.084  0.0934  0.1974  0.1375
  307loPI   C2B 4910  10.969   6.445   9.564 -0.1795 -0.0455 -0.1539
  307loPI   C3B 4911  10.923   6.543   9.130  0.1277  0.1081 -0.0785
  307loPI   C4B 4912  11.022   6.614   8.760  0.3041  0.1339  0.2439
  308loPI    C1 4913  15.501  12.049  11.082 -0.1393  0.0008  0.1651
  308loPI    C2 4914  15.416  11.774  11.359 -0.0689 -0.0592  0.1273
  308loPI    C3 4915  15.620  12.103  11.460  0.0825 -0.1493  0.1181
  308loPI   PO4 4916  15.552  11.934  10.885 -0.2852  0.0744 -0.2358
  308loPI   GL1 4917  15.758  11.938  10.434  0.4534  0.1670 -0.3398
  308loPI   GL2 4918  15.914  11.824  10.262 -0.0191  0.1586  0.1468
  308loPI   C1A 4919  15.789  12.223  10.098 -0.2504  0.3315 -0.1487
  308loPI   C2A 4920  15.801  12.242   9.661  0.1696  0.1930 -0.3218
  308loPI   C3A 4921  15.729  12.370   9.251  0.0597  0.3749  0.1558
  308loPI   C4A 4922  15.647  12.150   8.935 -0.1573  0.2443  0.1377
  308loPI   C5A 4923  15.596  12.177   8.418  0.0288  0.2062  0.1143
  308loPI   C6A 4924  15.822  12.067   8.009  0.0622 -0.2947 -0.1021
  308loPI   C1B 4925  16.030  11.819   9.785  0.1294  0.1069  0.2966
  308loPI   C2B 4926  15.912  11.822   9.328 -0.3998  0.1460 -0.2110
  308loPI   C3B 4927  15.890  11.720   8.950  0.1220 -0.0845  0.0427
  308loPI   C4B 4928  15.965  11.800   8.476 -0.1134 -0.1386  0.1600
  309loPI    C1 4929   0.816   5.674  10.420 -0.0951  0.4729 -0.0814
  309loPI    C2 4930   1.144   5.746  10.637  0.0015  0.0978 -0.0952
  309loPI    C3 4931   0.825   5.576  10.808 -0.0790  0.1924 -0.1503
  309loPI   PO4 4932   0.738   5.924  10.304 -0.1048  0.2712  0.1009
  309loPI   GL1 4933   0.723   6.070   9.804 -0.3796 -0.0624  0.1986
  309loPI   GL2 4934   0.451   6.040   9.837  0.0436 -0.0342 -0.0428
  309loPI   C1A 4935   0.879   6.069   9.335  0.0273 -0.4088  0.0129
  309loPI   C2A 4936   0.947   6.109   9.032  0.0816  0.0399 -0.1474
  309loPI   C3A 4937   0.878   6.100   8.605  0.1977  0.0544  0.1529
  309loPI   C4A 4938   0.995   6.102   8.147  0.2270 -0.1175 -0.2087
  309loPI   C5A 4939   1.164   6.233   7.686 -0.0128 -0.4501 -0.1372
  309loPI   C6A 4940   1.284   6.065   7.297  0.2011 -0.0753 -0.2285
  309loPI   C1B 4941   0.358   6.086   9.375  0.0494 -0.0264  0.0581
  309loPI   C2B 4942   0.432   6.107   8.925 -0.0629  0.1374 -0.2638
  309loPI   C3B 4943   0.230   6.083   8.496  0.0804 -0.4933 -0.2251
  309loPI   C4B 4944   0.095   6.112   8.055 -0.1391  0.2881 -0.3326
  310loPI    C1 4945  14.092   1.438  10.841 -0.2529 -0.0605  0.1238
  310loPI    C2 4946  13.868   1.108  10.806  0.1044 -0.2905 -0.0532
  310loPI    C3 4947  14.044   1.194  11.154 -0.3248 -0.0591  0.1141
  310loPI   PO4 4948  14.199   1.405  10.584 -0.2894  0.3110  0.1965
  310loPI   GL1 4949  14.111   1.414  10.239 -0.2365  0.1547 -0.2776
  310loPI   GL2 4950  13.796   1.434  10.054 -0.0287 -0.1694 -0.1157
  310loPI   C1A 4951  14.192   1.236   9.853  0.0159  0.0432  0.0159
  310loPI   C2A 4952  14.163   1.183   9.425 -0.0710 -0.0320  0.3495
  310loPI   C3A 4953  14.134   1.228   8.968  0.1002 -0.2860 -0.0901
  310loPI   C4A 4954  14.097   1.099   8.518 -0.0517 -0.3393 -0.1398
  310loPI   C5A 4955  14.261   0.953   8.174 -0.0715 -0.1030 -0.0184
  310loPI   C6A 4956  14.594   1.075   7.897 -0.1895  0.2376 -0.0675
  310loPI   C1B 4957  13.697   1.360   9.666 -0.0403  0.1789  0.0914
  310loPI   C2B 4958  13.674   1.199   9.201  0.0881  0.3113  0.0898
  310loPI   C3B 4959  13.659   1.214   8.753 -0.0695 -0.0454  0.0552
  310loPI   C4B 4960  13.468   1.040   8.344 -0.2607 -0.2322  0.2188
  311loPI    C1 4961   4.800  17.215  10.876 -0.1292 -0.1079 -0.3518
  311loPI    C2 4962   4.997  16.867  10.888  0.0878  0.0194 -0.1082
  311loPI    C3 4963   5.192  17.204  10.796 -0.0231  0.1421  0.0968
  311loPI   PO4 4964   4.499  17.092  10.706 -0.3070  0.0769  0.1199
  311loPI   GL1 4965   4.463  17.148  10.190  0.2855 -0.0315 -0.1207
  311loPI   GL2 4966   4.326  16.908  10.138  0.1770  0.0563 -0.1389
  311loPI   C1A 4967   4.595  17.127   9.794  0.1258 -0.1172  0.2240
  311loPI   C2A 4968   4.654  16.973   9.312 -0.0143 -0.1589  0.1156
  311loPI   C3A 4969   4.669  17.046   8.888  0.1539  0.2939 -0.0742
  311loPI   C4A 4970   4.659  16.974   8.476 -0.3420  0.0722 -0.0975
  311loPI   C5A 4971   4.814  16.961   8.117  0.0584 -0.0657 -0.3177
  311loPI   C6A 4972   5.192  17.236   7.950  0.2027 -0.3800 -0.0626
  311loPI   C1B 4973   4.135  16.953   9.795 -0.0630 -0.0794 -0.2180
  311loPI   C2B 4974   4.125  17.067   9.405  0.1023 -0.1281 -0.0049
  311loPI   C3B 4975   4.189  16.945   8.972 -0.2151  0.3561  0.1592
  311loPI   C4B 4976   4.152  17.006   8.561 -0.1705 -0.0317 -0.0759
  312loPI    C1 4977  12.993   2.004  10.950 -0.1839 -0.1483 -0.1397
  312loPI    C2 4978  12.611   2.075  11.047 -0.2142 -0.3402 -0.1148
  312loPI    C3 4979  12.843   1.859  11.292 -0.1438 -0.3856 -0.2208
  312loPI   PO4 4980  13.036   2.011  10.767 -0.0769  0.0377  0.1099
  312loPI   GL1 4981  13.015   1.809  10.332  0.2013 -0.1116 -0.3379
  312loPI   GL2 4982  13.315   1.680  10.180 -0.1647  0.1351  0.2705
  312loPI   C1A 4983  12.827   1.843   9.932  0.3489  0.0545  0.0193
  312loPI   C2A 4984  12.874   1.888   9.492 -0.1655  0.2364 -0.2157
  312loPI   C3A 4985  12.860   1.688   9.138  0.0595  0.3026  0.1039
  312loPI   C4A 4986  12.948   1.718   8.741 -0.1491 -0.2494 -0.0684
  312loPI   C5A 4987  13.042   2.042   8.484  0.2156 -0.0932 -0.1813
  312loPI   C6A 4988  13.040   2.102   8.058 -0.1841  0.2805  0.0823
  312loPI   C1B 4989  13.277   1.655   9.705 -0.1993  0.0587  0.0446
  312loPI   C2B 4990  13.341   1.700   9.310 -0.0451  0.0464  0.0303
  312loPI   C3B 4991  13.460   1.617   8.916 -0.0426 -0.3049  0.0991
  312loPI   C4B 4992  13.476   1.829   8.559  0.3893  0.0763 -0.0290
  313loPI    C1 4993  13.079   8.932  11.387 -0.0108  0.2768 -0.0577
  313loPI    C2 4994  13.026   8.542  11.460  0.3041  0.1895 -0.2718
  313loPI    C3 4995  12.910   8.814  11.730 -0.0306 -0.0436 -0.1742
  313loPI   PO4 4996  12.942   8.934  11.144 -0.2052 -0.1823  0.1331
  313loPI   GL1 4997  13.070   8.941  10.673  0.0274 -0.0456 -0.1891
  313loPI   GL2 4998  12.784   8.729  10.604  0.0192 -0.0087 -0.1771
  313loPI   C1A 4999  13.187   9.243  10.271 -0.0255 -0.0500 -0.0521
  313loPI   C2A 5000  13.185   9.169   9.795 -0.0613 -0.1174 -0.5878
  313loPI   C3A 5001  13.175   9.119   9.397  0.1551  0.0552 -0.1821
  313loPI   C4A 5002  13.117   9.118   8.984 -0.0535 -0.0669 -0.2688
  313loPI   C5A 5003  13.176   9.180   8.595  0.0097  0.0098  0.1472
  313loPI   C6A 5004  13.090   9.194   8.180  0.1031 -0.0556 -0.1028
  313loPI   C1B 5005  12.864   8.731  10.202 -0.3032  0.0035 -0.2046
  313loPI   C2B 5006  12.976   8.700   9.804  0.0148  0.0568  0.0520
  313loPI   C3B 5007  12.882   8.681   9.363 -0.0877 -0.0127 -0.3170
  313loPI   C4B 5008  12.807   8.655   8.930  0.0209  0.0333  0.1367
  314loPI    C1 5009   5.513   7.791  10.058  0.0104  0.2204  0.0544
  314loPI    C2 5010   5.862   7.698  10.230  0.0398 -0.0279 -0.1323
  314loPI    C3 5011   5.522   7.539  10.369  0.0054  0.1647  0.0095
  314loPI   PO4 5012   5.520   7.707   9.824  0.0310 -0.1379 -0.3698
  314loPI   GL1 5013   5.811   7.750   9.461 -0.0218 -0.1322  0.2218
  314loPI   GL2 5014   5.951   7.940   9.277  0.2020  0.0431  0.1824
  314loPI   C1A 5015   5.757   7.528   9.086 -0.2697 -0.0782  0.2624
  314loPI   C2A 5016   5.825   7.509   8.649  0.0599 -0.0363 -0.1860
  314loPI   C3A 5017   5.716   7.596   8.287 -0.1556 -0.0334 -0.0612
  314loPI   C4A 5018   5.430   7.778   7.921 -0.0050  0.0694  0.3651
  314loPI   C5A 5019   5.066   7.675   7.847  0.3783  0.1721  0.0813
  314loPI   C6A 5020   4.848   7.461   7.499  0.4038 -0.0604  0.1491
  314loPI   C1B 5021   6.074   7.928   8.867  0.1933  0.0555 -0.1785
  314loPI   C2B 5022   6.079   7.881   8.416  0.1327 -0.0320  0.1364
  314loPI   C3B 5023   5.990   7.943   8.094  0.2127 -0.3677 -0.1837
  314loPI   C4B 5024   6.134   8.141   7.869  0.0615  0.0794  0.1185
  315loPI    C1 5025  13.911   6.121  10.993  0.1363  0.1303 -0.0638
  315loPI    C2 5026  13.909   5.859  11.295 -0.0423  0.0790 -0.1084
  315loPI    C3 5027  14.231   6.088  11.232  0.0653 -0.0375  0.0099
  315loPI   PO4 5028  13.806   6.003  10.794 -0.0674 -0.0628  0.1627
  315loPI   GL1 5029  13.888   5.996  10.295  0.1109 -0.3652 -0.0090
  315loPI   GL2 5030  14.128   5.767  10.363 -0.0668  0.0783  0.4103
  315loPI   C1A 5031  13.881   5.888   9.948 -0.0559 -0.0698 -0.3068
  315loPI   C2A 5032  13.880   5.862   9.462  0.3151  0.3619 -0.0621
  315loPI   C3A 5033  13.769   5.902   9.152 -0.0774 -0.2306 -0.0680
  315loPI   C4A 5034  13.783   5.901   8.767 -0.0001  0.2310  0.2669
  315loPI   C5A 5035  14.002   5.694   8.385 -0.0732 -0.1940 -0.0124
  315loPI   C6A 5036  14.152   5.295   8.272  0.1801  0.1284 -0.0636
  315loPI   C1B 5037  14.427   5.863  10.077 -0.4583  0.0578 -0.0661
  315loPI   C2B 5038  14.358   5.911   9.642  0.0532  0.1228 -0.0300
  315loPI   C3B 5039  14.323   5.932   9.182 -0.0586 -0.0220 -0.1988
  315loPI   C4B 5040  14.376   5.901   8.692 -0.0105 -0.0841 -0.2009
  316loPI    C1 5041  13.308  15.735  11.331 -0.0120  0.0450  0.1540
  316loPI    C2 5042  13.667  15.704  11.506 -0.0745 -0.0087  0.2746
  316loPI    C3 5043  13.344  15.790  11.726 -0.1510 -0.0567  0.1818
  316loPI   PO4 5044  13.317  15.767  11.043  0.2158 -0.1826 -0.0056
  316loPI   GL1 5045  13.419  15.986  10.675  0.0701 -0.2413 -0.0426
  316loPI   GL2 5046  13.807  15.984  10.507 -0.0230 -0.1420 -0.1218
  316loPI   C1A 5047  13.277  16.022  10.293  0.0275 -0.1280  0.1276
  316loPI   C2A 5048  13.280  15.994   9.830  0.1880 -0.0326  0.0553
  316loPI   C3A 5049  13.261  16.001   9.326 -0.0659  0.0122 -0.1394
  316loPI   C4A 5050  13.206  16.006   8.940 -0.0344  0.2313  0.0301
  316loPI   C5A 5051  13.263  15.918   8.513  0.0311 -0.1162  0.1177
  316loPI   C6A 5052  13.394  15.762   8.105 -0.0897  0.1617  0.0459
  316loPI   C1B 5053  13.736  15.972  10.121 -0.0157  0.2699  0.0343
  316loPI   C2B 5054  13.787  15.999   9.751 -0.0669  0.4765  0.4543
  316loPI   C3B 5055  13.799  16.057   9.321  0.2651 -0.0324 -0.0225
  316loPI   C4B 5056  13.679  15.974   8.937 -0.2039 -0.1438 -0.0256
  317loPI    C1 5057  10.659   5.566  11.396 -0.0618  0.0462  0.1359
  317loPI    C2 5058  10.599   5.188  11.283  0.2675  0.0003  0.1035
  317loPI    C3 5059  10.445   5.320  11.628 -0.3761  0.0189 -0.1750
  317loPI   PO4 5060  10.667   5.696  11.153  0.2547 -0.1369 -0.1485
  317loPI   GL1 5061  10.599   5.707  10.854 -0.0394 -0.0470  0.0350
  317loPI   GL2 5062  10.782   5.909  10.552 -0.1925 -0.0946  0.2460
  317loPI   C1A 5063  10.427   5.567  10.441 -0.2867  0.5980 -0.2766
  317loPI   C2A 5064  10.348   5.573  10.048  0.0901  0.1186 -0.2838
  317loPI   C3A 5065  10.433   5.548   9.609 -0.2005 -0.1566 -0.0563
  317loPI   C4A 5066  10.395   5.639   9.133 -0.0085  0.1234 -0.1119
  317loPI   C5A 5067  10.411   5.483   8.731  0.3073 -0.3578 -0.0411
  317loPI   C6A 5068  10.605   5.405   8.501 -0.0907 -0.1339  0.1507
  317loPI   C1B 5069  10.687   5.977  10.068  0.1973 -0.0009 -0.0981
  317loPI   C2B 5070  10.771   6.001   9.636 -0.2168 -0.1401  0.0901
  317loPI   C3B 5071  10.673   6.062   9.212 -0.1199  0.1974  0.0338
  317loPI   C4B 5072  10.703   6.159   8.750  0.0114  0.0556 -0.1845
  318loPI    C1 5073   1.045   5.097  10.651  0.0237  0.1877 -0.0113
  318loPI    C2 5074   0.972   5.072  11.044 -0.1060 -0.0775 -0.0501
  318loPI    C3 5075   1.183   4.786  10.861  0.2389  0.2112 -0.1155
  318loPI   PO4 5076   0.822   5.149  10.522 -0.4534  0.3620 -0.2341
  318loPI   GL1 5077   0.569   5.042  10.206 -0.1677  0.0803  0.1396
  318loPI   GL2 5078   0.369   5.124   9.898  0.3483  0.2077  0.2785
  318loPI   C1A 5079   0.576   4.714   9.753 -0.1035 -0.4127  0.1889
  318loPI   C2A 5080   0.541   4.770   9.350 -0.0509  0.3658  0.3110
  318loPI   C3A 5081   0.565   4.787   8.916  0.0031 -0.0000  0.1582
  318loPI   C4A 5082   0.567   4.834   8.412  0.3181  0.0706 -0.3914
  318loPI   C5A 5083   0.760   4.876   7.961  0.3201  0.0840 -0.0966
  318loPI   C6A 5084   0.770   5.246   7.761 -0.1457 -0.1210  0.0007
  318loPI   C1B 5085   0.313   5.264   9.501 -0.1851 -0.3437 -0.3080
  318loPI   C2B 5086   0.279   5.297   9.003  0.0572 -0.1134 -0.1508
  318loPI   C3B 5087   0.336   5.274   8.569  0.0846 -0.0176 -0.0805
  318loPI   C4B 5088   0.406   5.372   8.163  0.1103  0.1715 -0.1526
  319loPI    C1 5089  11.626  10.901  11.120 -0.0133  0.1302  0.0327
  319loPI    C2 5090  11.337  10.671  11.275  0.2016 -0.0824  0.1248
  319loPI    C3 5091  11.521  10.944  11.504 -0.0647  0.1984  0.0112
  319loPI   PO4 5092  11.572  10.952  10.936  0.1377 -0.3092  0.5361
  319loPI   GL1 5093  11.274  10.987  10.625 -0.1852 -0.0044 -0.1143
  319loPI   GL2 5094  11.470  10.681  10.514  0.0146 -0.2722 -0.0512
  319loPI   C1A 5095  11.101  10.949  10.237  0.0604  0.2140 -0.1646
  319loPI   C2A 5096  10.997  11.047   9.752 -0.0168  0.3618 -0.2344
  319loPI   C3A 5097  11.075  11.104   9.319 -0.0344 -0.3284  0.1308
  319loPI   C4A 5098  11.300  11.224   8.915  0.2863  0.1356 -0.1074
  319loPI   C5A 5099  11.364  11.341   8.429 -0.1610 -0.0014 -0.2250
  319loPI   C6A 5100  11.325  11.698   8.170  0.0416  0.2554  0.2639
  319loPI   C1B 5101  11.356  10.560  10.099 -0.0347 -0.2148 -0.0046
  319loPI   C2B 5102  11.310  10.612   9.645  0.0254 -0.0714 -0.3710
  319loPI   C3B 5103  11.432  10.736   9.146  0.3096 -0.0113  0.1886
  319loPI   C4B 5104  11.402  10.770   8.692 -0.2840 -0.1805  0.1700
  320loPI    C1 5105   9.591   2.573  11.325  0.1281 -0.1734  0.0424
  320loPI    C2 5106   9.782   2.650  10.982 -0.3710 -0.3766 -0.2925
  320loPI    C3 5107   9.563   2.935  11.157 -0.1955 -0.3021 -0.1917
  320loPI   PO4 5108   9.508   2.265  11.229 -0.0471 -0.3037 -0.0359
  320loPI   GL1 5109   9.349   2.163  10.788  0.0696 -0.0958 -0.3675
  320loPI   GL2 5110   9.470   1.915  10.593 -0.1073 -0.0484  0.1388
  320loPI   C1A 5111   9.593   2.451  10.509 -0.1879  0.0280 -0.2076
  320loPI   C2A 5112   9.503   2.456  10.021  0.0648 -0.0928  0.1231
  320loPI   C3A 5113   9.472   2.418   9.524  0.1417 -0.1175  0.2472
  320loPI   C4A 5114   9.532   2.403   9.119 -0.0222  0.2508  0.2121
  320loPI   C5A 5115   9.659   2.459   8.724 -0.0468 -0.2413  0.1054
  320loPI   C6A 5116   9.453   2.331   8.301  0.0547  0.0285  0.0679
  320loPI   C1B 5117   9.297   2.060  10.273  0.2399 -0.1495 -0.0070
  320loPI   C2B 5118   9.230   2.061   9.824  0.0611 -0.1831  0.0879
  320loPI   C3B 5119   9.250   1.966   9.385 -0.0367 -0.1560 -0.0860
  320loPI   C4B 5120   9.297   1.965   8.986 -0.2954  0.3668  0.0051
  321loPI    C1 5121   5.007  15.642  10.875 -0.1131 -0.0731 -0.0698
  321loPI    C2 5122   4.656  15.603  11.062 -0.0261  0.0690  0.1258
  321loPI    C3 5123   4.986  15.443  11.222  0.0702  0.2973  0.1598
  321loPI   PO4 5124   4.957  15.620  10.675  0.1534  0.0412  0.0427
  321loPI   GL1 5125   4.709  15.581  10.366  0.1092 -0.3874  0.2420
  321loPI   GL2 5126   4.490  15.758  10.204 -0.1360 -0.0977  0.1536
  321loPI   C1A 5127   4.777  15.403   9.949 -0.2564  0.0140 -0.0287
  321loPI   C2A 5128   4.810  15.471   9.549  0.0359 -0.1063 -0.0034
  321loPI   C3A 5129   4.847  15.467   9.115 -0.0487 -0.1011 -0.2316
  321loPI   C4A 5130   4.842  15.663   8.713  0.0784  0.0439 -0.0296
  321loPI   C5A 5131   4.746  15.563   8.271  0.1175 -0.0784 -0.1910
  321loPI   C6A 5132   4.807  15.509   7.863 -0.2872  0.1762 -0.2094
  321loPI   C1B 5133   4.525  16.019   9.823 -0.0535 -0.0157 -0.2845
  321loPI   C2B 5134   4.588  15.982   9.349 -0.1019 -0.1632  0.0435
  321loPI   C3B 5135   4.676  16.090   8.933  0.0066  0.0142 -0.0252
  321loPI   C4B 5136   4.735  16.119   8.479 -0.0530 -0.2771 -0.2715
  322loPI    C1 5137   2.849   3.887  10.197 -0.0391 -0.0143  0.0533
  322loPI    C2 5138   2.603   4.199  10.239 -0.0350 -0.0360  0.2468
  322loPI    C3 5139   2.722   3.993  10.561  0.0404 -0.1771  0.1299
  322loPI   PO4 5140   2.815   3.850   9.951  0.1131 -0.1097 -0.0989
  322loPI   GL1 5141   3.072   3.956   9.580  0.1934  0.0025 -0.0864
  322loPI   GL2 5142   2.764   3.817   9.451 -0.1126 -0.2407  0.1682
  322loPI   C1A 5143   3.185   4.026   9.189 -0.1375  0.3396 -0.1573
  322loPI   C2A 5144   3.246   3.862   8.890  0.1036 -0.3300  0.0494
  322loPI   C3A 5145   3.159   3.631   8.499  0.1447  0.1192 -0.2467
  322loPI   C4A 5146   3.114   3.747   8.098  0.1200 -0.1441  0.2371
  322loPI   C5A 5147   3.177   4.073   7.939  0.2748  0.4442 -0.3821
  322loPI   C6A 5148   3.012   4.494   8.027  0.0818  0.0743 -0.0711
  322loPI   C1B 5149   2.742   3.802   9.081 -0.0552 -0.0576  0.0855
  322loPI   C2B 5150   2.635   3.600   8.690 -0.1762 -0.0320 -0.2410
  322loPI   C3B 5151   2.663   3.666   8.277 -0.3201 -0.1088 -0.1090
  322loPI   C4B 5152   2.534   3.652   7.825  0.2194  0.1081 -0.0249
  323loPI    C1 5153   1.594   5.747  10.397 -0.0248  0.3056  0.0464
  323loPI    C2 5154   1.968   5.640  10.489 -0.1057  0.1022  0.1461
  323loPI    C3 5155   1.726   5.789  10.772 -0.1562  0.0668  0.1216
  323loPI   PO4 5156   1.694   5.998  10.168  0.0168 -0.0781 -0.1347
  323loPI   GL1 5157   1.832   5.912   9.760  0.0556 -0.1996 -0.0874
  323loPI   GL2 5158   1.562   5.715   9.725 -0.4227 -0.3841 -0.1799
  323loPI   C1A 5159   1.961   6.011   9.509 -0.1211  0.0661  0.1522
  323loPI   C2A 5160   2.005   6.045   9.086 -0.2635 -0.1034  0.2816
  323loPI   C3A 5161   1.917   6.050   8.626  0.0323 -0.0150 -0.1005
  323loPI   C4A 5162   1.930   6.062   8.243 -0.1984  0.0943  0.2206
  323loPI   C5A 5163   1.971   5.817   7.873  0.0331  0.2758  0.1420
  323loPI   C6A 5164   1.947   5.402   7.726  0.1691 -0.2047 -0.1919
  323loPI   C1B 5165   1.815   5.523   9.463  0.1230  0.0038 -0.2315
  323loPI   C2B 5166   1.704   5.573   9.087  0.3253  0.0184 -0.1593
  323loPI   C3B 5167   1.685   5.567   8.670  0.1916 -0.0086 -0.1208
  323loPI   C4B 5168   1.737   5.574   8.223 -0.1368 -0.1185  0.0499
  324loPI    C1 5169  14.319  16.745  11.063  0.0699  0.3922  0.1013
  324loPI    C2 5170  14.123  16.847  11.396 -0.0511  0.0714  0.1321
  324loPI    C3 5171  14.507  16.734  11.416  0.0591  0.4284  0.1081
  324loPI   PO4 5172  14.159  16.836  10.855 -0.4839 -0.1020 -0.1730
  324loPI   GL1 5173  13.962  16.859  10.561 -0.1877  0.0523 -0.2367
  324loPI   GL2 5174  13.835  16.912  10.269 -0.0578 -0.1821 -0.0659
  324loPI   C1A 5175  14.308  16.905  10.184  0.0065 -0.0354  0.2785
  324loPI   C2A 5176  14.449  16.944   9.716  0.3682 -0.1244  0.3904
  324loPI   C3A 5177  14.404  16.897   9.227  0.2279  0.1059  0.0151
  324loPI   C4A 5178  14.328  16.916   8.789  0.0434  0.2230 -0.0587
  324loPI   C5A 5179  14.574  16.916   8.557  0.0629  0.0091  0.0610
  324loPI   C6A 5180  14.855  17.294   8.415 -0.1910  0.0570 -0.0709
  324loPI   C1B 5181  13.650  16.917   9.940 -0.0137  0.0384  0.1184
  324loPI   C2B 5182  13.767  17.001   9.509 -0.2160 -0.0852  0.0196
  324loPI   C3B 5183  13.887  16.839   9.057 -0.0528 -0.4478 -0.0786
  324loPI   C4B 5184  13.801  16.762   8.621  0.1037  0.1297  0.0209
  325loPI    C1 5185   6.957  13.945  11.035 -0.2090 -0.0509 -0.0524
  325loPI    C2 5186   6.666  13.880  11.301 -0.1153 -0.0996  0.0389
  325loPI    C3 5187   6.856  13.571  11.133 -0.1802 -0.0690 -0.0916
  325loPI   PO4 5188   6.801  14.095  10.877  0.1001 -0.0460  0.1440
  325loPI   GL1 5189   6.770  14.042  10.452 -0.0918 -0.0189  0.0688
  325loPI   GL2 5190   7.008  14.178  10.270  0.1113  0.1965  0.0563
  325loPI   C1A 5191   6.569  14.136  10.006 -0.2935 -0.0026  0.0379
  325loPI   C2A 5192   6.427  14.071   9.635  0.4465  0.1312  0.1402
  325loPI   C3A 5193   6.553  14.147   9.221  0.4009 -0.0336  0.0712
  325loPI   C4A 5194   6.509  14.210   8.788  0.1579 -0.1487  0.0031
  325loPI   C5A 5195   6.570  14.313   8.369  0.3799 -0.2298 -0.1130
  325loPI   C6A 5196   6.497  14.488   7.996  0.0501 -0.2482  0.0464
  325loPI   C1B 5197   7.171  14.014   9.879  0.1315  0.0397  0.1242
  325loPI   C2B 5198   7.130  14.137   9.434 -0.1239  0.0349 -0.0737
  325loPI   C3B 5199   7.169  14.096   8.946 -0.2479  0.0040 -0.1129
  325loPI   C4B 5200   7.002  14.002   8.528 -0.1752 -0.1538 -0.3051
  326loPI    C1 5201   1.201  10.422  10.131 -0.1540  0.0383  0.1547
  326loPI    C2 5202   1.516  10.314  10.352  0.0061  0.0547 -0.0619
  326loPI    C3 5203   1.187  10.086  10.348  0.1044 -0.0897 -0.0213
  326loPI   PO4 5204   1.324  10.475   9.923  0.0015 -0.0834  0.2530
  326loPI   GL1 5205   1.307  10.643   9.591  0.1855  0.1124 -0.1530
  326loPI   GL2 5206   1.279  10.940   9.665 -0.1489 -0.0130 -0.0890
  326loPI   C1A 5207   1.285  10.591   9.159  0.0732  0.0456 -0.1531
  326loPI   C2A 5208   1.243  10.645   8.738  0.0688  0.1089 -0.2440
  326loPI   C3A 5209   0.988  10.728   8.373 -0.2491  0.4717  0.0880
  326loPI   C4A 5210   1.051  10.841   7.991 -0.3279 -0.1175 -0.1134
  326loPI   C5A 5211   1.389  10.697   7.758 -0.0268 -0.1021  0.1306
  326loPI   C6A 5212   1.751  10.708   7.546 -0.1953 -0.1281  0.1869
  326loPI   C1B 5213   1.211  11.075   9.337  0.1462  0.2236 -0.1795
  326loPI   C2B 5214   1.184  11.122   8.887  0.1353  0.2631  0.2982
  326loPI   C3B 5215   1.344  11.147   8.528 -0.4689 -0.0854 -0.0906
  326loPI   C4B 5216   1.369  11.227   8.127 -0.2784 -0.3031 -0.0458
  327loPI    C1 5217   1.549   4.308  10.483 -0.2377 -0.2168  0.2633
  327loPI    C2 5218   1.817   4.519  10.693  0.0818 -0.1659 -0.1816
  327loPI    C3 5219   1.710   4.153  10.816  0.0703 -0.0380  0.2016
  327loPI   PO4 5220   1.656   4.448  10.122  0.0399 -0.1149 -0.0097
  327loPI   GL1 5221   1.694   4.324   9.768  0.0418  0.1478  0.0767
  327loPI   GL2 5222   1.828   4.078   9.592 -0.1080 -0.1689 -0.0017
  327loPI   C1A 5223   1.612   4.510   9.389 -0.2322  0.1905 -0.1193
  327loPI   C2A 5224   1.513   4.556   8.903 -0.3773 -0.1406 -0.0467
  327loPI   C3A 5225   1.581   4.588   8.475  0.0138 -0.0682  0.0178
  327loPI   C4A 5226   1.436   4.677   8.081 -0.0563 -0.2923 -0.0228
  327loPI   C5A 5227   1.191   4.765   7.729 -0.2001  0.1182  0.0967
  327loPI   C6A 5228   1.343   4.712   7.398  0.1645 -0.2266  0.2100
  327loPI   C1B 5229   1.817   4.156   9.076 -0.0761  0.0137 -0.3383
  327loPI   C2B 5230   1.850   4.175   8.622  0.4364  0.1594  0.0667
  327loPI   C3B 5231   1.826   3.974   8.217 -0.0128 -0.3190 -0.3497
  327loPI   C4B 5232   1.921   3.654   7.864  0.2570 -0.1051 -0.1119
  328loPI    C1 5233  12.781   0.143  11.131 -0.0837 -0.0124  0.0478
  328loPI    C2 5234  12.778   0.403  11.436  0.0443  0.1277 -0.0688
  328loPI    C3 5235  13.064   0.124  11.413  0.0458  0.1295 -0.0711
  328loPI   PO4 5236  12.669   0.281  10.951 -0.1111  0.1081  0.2240
  328loPI   GL1 5237  12.637   0.421  10.558 -0.1306  0.0965 -0.0700
  328loPI   GL2 5238  12.618   0.057  10.410 -0.1237 -0.3728  0.0415
  328loPI   C1A 5239  12.531   0.462  10.128 -0.1964  0.1544  0.3658
  328loPI   C2A 5240  12.648   0.409   9.747 -0.1462 -0.0668 -0.0327
  328loPI   C3A 5241  12.590   0.438   9.350  0.2504 -0.0718 -0.1959
  328loPI   C4A 5242  12.558   0.343   9.029  0.0866  0.3139  0.1942
  328loPI   C5A 5243  12.567   0.132   8.616 -0.2796  0.0622 -0.2231
  328loPI   C6A 5244  12.357   0.362   8.318 -0.1100  0.0008  0.2598
  328loPI   C1B 5245  12.267   0.039  10.088  0.1584 -0.0571 -0.1313
  328loPI   C2B 5246  12.263   0.065   9.688  0.0048  0.2060 -0.2221
  328loPI   C3B 5247  12.281   0.053   9.314  0.2222  0.2116  0.1041
  328loPI   C4B 5248  12.241  -0.176   9.035  0.2835 -0.1046 -0.1668
  329loPI    C1 5249  16.726  17.409  11.208 -0.1514  0.0058 -0.0038
  329loPI    C2 5250  16.930  17.743  11.289  0.0465 -0.1303  0.0644
  329loPI    C3 5251  17.123  17.395  11.253 -0.1129 -0.1796 -0.3641
  329loPI   PO4 5252  16.536  17.546  10.989  0.1343 -0.0408  0.0848
  329loPI   GL1 5253  16.577  17.416  10.586  0.0566 -0.3088  0.1692
  329loPI   GL2 5254  16.401  17.447  10.539 -0.4234 -0.0860 -0.0357
  329loPI   C1A 5255  16.704  17.039  10.357 -0.1176  0.0653 -0.0435
  329loPI   C2A 5256  16.910  16.965  10.049  0.0729  0.1414  0.0662
  329loPI   C3A 5257  16.980  16.832   9.683  0.2778  0.2214  0.1968
  329loPI   C4A 5258  16.963  16.864   9.310 -0.1390 -0.3232  0.2088
  329loPI   C5A 5259  17.103  16.781   8.901  0.4235 -0.2211 -0.0172
  329loPI   C6A 5260  17.097  16.829   8.464  0.1040  0.0252 -0.0212
  329loPI   C1B 5261  16.309  17.375  10.122 -0.3122 -0.1135 -0.2636
  329loPI   C2B 5262  16.239  17.353   9.711 -0.0802  0.1660  0.2576
  329loPI   C3B 5263  16.229  17.303   9.309  0.1598  0.0057 -0.1954
  329loPI   C4B 5264  16.236  17.237   8.921 -0.1716 -0.2235  0.1818
  330loPI    C1 5265   0.812   3.629  10.397  0.0837 -0.2768  0.1032
  330loPI    C2 5266   0.429   3.575  10.500 -0.0161  0.0043 -0.1076
  330loPI    C3 5267   0.649   3.852  10.687  0.0872 -0.1575  0.0140
  330loPI   PO4 5268   0.894   3.476  10.399  0.0009  0.0395 -0.2298
  330loPI   GL1 5269   0.937   3.048  10.106  0.1220  0.0818  0.2845
  330loPI   GL2 5270   0.814   2.819  10.139 -0.0826 -0.0329  0.2219
  330loPI   C1A 5271   0.890   3.144   9.680 -0.1050  0.1694  0.0637
  330loPI   C2A 5272   0.828   3.258   9.153 -0.0769 -0.0171 -0.2988
  330loPI   C3A 5273   0.934   3.276   8.706  0.0084  0.2221  0.0370
  330loPI   C4A 5274   0.823   3.245   8.243 -0.1456  0.0662  0.1267
  330loPI   C5A 5275   0.926   3.382   7.754  0.1650  0.0422 -0.0498
  330loPI   C6A 5276   0.983   3.689   7.445 -0.0522 -0.1193  0.1027
  330loPI   C1B 5277   0.516   2.706   9.823  0.0858 -0.0585 -0.2477
  330loPI   C2B 5278   0.535   2.781   9.399  0.0458 -0.1063 -0.1676
  330loPI   C3B 5279   0.567   2.811   9.000  0.1092  0.1221 -0.0283
  330loPI   C4B 5280   0.551   2.936   8.607 -0.1498  0.2417  0.0073
  331loPI    C1 5281   4.224   7.763   9.828 -0.0612  0.0400 -0.2678
  331loPI    C2 5282   4.553   7.751   9.601  0.0281 -0.0818 -0.1340
  331loPI    C3 5283   4.577   7.867   9.983 -0.1308  0.1777 -0.1995
  331loPI   PO4 5284   4.026   7.918   9.769 -0.2938  0.3732 -0.1118
  331loPI   GL1 5285   3.929   7.830   9.395  0.2516  0.0253 -0.1017
  331loPI   GL2 5286   3.682   7.793   9.241 -0.2089 -0.4900 -0.1935
  331loPI   C1A 5287   4.152   7.709   8.987  0.2565  0.1947  0.1200
  331loPI   C2A 5288   4.168   7.657   8.640  0.3773  0.1866 -0.0085
  331loPI   C3A 5289   4.094   7.738   8.146 -0.2776  0.0110  0.1149
  331loPI   C4A 5290   3.906   7.710   7.766 -0.2682 -0.1053 -0.3468
  331loPI   C5A 5291   3.974   7.484   7.489  0.1030 -0.2204  0.0745
  331loPI   C6A 5292   4.157   7.300   7.205  0.1483  0.0110  0.2446
  331loPI   C1B 5293   3.602   7.848   8.850 -0.0575 -0.1428  0.0825
  331loPI   C2B 5294   3.516   7.736   8.445  0.2031 -0.1232 -0.2882
  331loPI   C3B 5295   3.388   7.811   8.093  0.1007  0.0685  0.1500
  331loPI   C4B 5296   3.364   7.932   7.622 -0.0001 -0.0623 -0.1989
  332loPI    C1 5297  15.566  14.561  11.208 -0.0725  0.1385 -0.1055
  332loPI    C2 5298  15.702  14.340  11.512 -0.0171  0.2843 -0.0232
  332loPI    C3 5299  15.337  14.272  11.363 -0.0182  0.1682  0.0312
  332loPI   PO4 5300  15.752  14.514  11.032 -0.2328  0.0839  0.0798
  332loPI   GL1 5301  15.907  14.571  10.578 -0.1220  0.0922 -0.0586
  332loPI   GL2 5302  15.581  14.457  10.559 -0.2416 -0.2487  0.0590
  332loPI   C1A 5303  15.970  14.518  10.195  0.0972 -0.1366  0.0583
  332loPI   C2A 5304  16.141  14.475   9.844 -0.1275 -0.3086  0.0334
  332loPI   C3A 5305  16.140  14.527   9.405  0.2127  0.0759 -0.2274
  332loPI   C4A 5306  16.168  14.463   9.041 -0.2218  0.2672  0.3669
  332loPI   C5A 5307  16.151  14.577   8.712 -0.0165  0.0171  0.1324
  332loPI   C6A 5308  15.857  14.802   8.431 -0.1942 -0.1276 -0.0696
  332loPI   C1B 5309  15.515  14.524  10.208 -0.1820 -0.0824 -0.0627
  332loPI   C2B 5310  15.568  14.454   9.761  0.2069 -0.0136 -0.1284
  332loPI   C3B 5311  15.601  14.584   9.270  0.0092  0.2227  0.0533
  332loPI   C4B 5312  15.546  14.633   8.758 -0.0245  0.1110 -0.0634
  333loPI    C1 5313   8.486  12.650  10.744 -0.1043 -0.0221 -0.0230
  333loPI    C2 5314   8.729  12.376  10.906 -0.1189 -0.0396 -0.0305
  333loPI    C3 5315   8.620  12.697  11.118  0.1449  0.1173 -0.1278
  333loPI   PO4 5316   8.552  12.543  10.471  0.0144  0.0563 -0.0221
  333loPI   GL1 5317   8.847  12.503  10.054  0.0167  0.1025  0.3359
  333loPI   GL2 5318   9.023  12.793  10.161 -0.0887  0.1752 -0.0186
  333loPI   C1A 5319   8.850  12.493   9.549 -0.0587  0.2922  0.0985
  333loPI   C2A 5320   8.763  12.657   9.128 -0.3586  0.1148  0.1619
  333loPI   C3A 5321   8.805  12.527   8.752 -0.3848  0.1118  0.2222
  333loPI   C4A 5322   8.773  12.603   8.327  0.4029 -0.4225 -0.0599
  333loPI   C5A 5323   9.064  12.607   8.186  0.4411 -0.0941  0.0165
  333loPI   C6A 5324   9.289  12.205   8.029 -0.0442 -0.1664 -0.1299
  333loPI   C1B 5325   9.092  13.014   9.835 -0.0779 -0.3563 -0.0937
  333loPI   C2B 5326   9.134  13.047   9.435 -0.0708 -0.1027 -0.1614
  333loPI   C3B 5327   9.064  12.981   9.029  0.3570 -0.0630 -0.4851
  333loPI   C4B 5328   9.084  12.934   8.566  0.1106 -0.1965 -0.0154
  334loPI    C1 5329   3.849  17.595  10.647 -0.1040  0.4433 -0.0316
  334loPI    C2 5330   3.464  17.485  10.663  0.0336 -0.0369  0.1573
  334loPI    C3 5331   3.579  17.834  10.821 -0.3732  0.2710 -0.2042
  334loPI   PO4 5332   3.842  17.553  10.286 -0.2381  0.0961 -0.0396
  334loPI   GL1 5333   3.941  17.553   9.854  0.0168 -0.0192 -0.1445
  334loPI   GL2 5334   4.213  17.457   9.923  0.0403 -0.0155  0.0929
  334loPI   C1A 5335   3.826  17.550   9.486  0.3949 -0.2620  0.1865
  334loPI   C2A 5336   3.826  17.561   9.044 -0.1760 -0.0879 -0.1171
  334loPI   C3A 5337   3.893  17.471   8.605 -0.0023  0.0714 -0.0807
  334loPI   C4A 5338   3.718  17.678   8.181  0.1162  0.2722 -0.1679
  334loPI   C5A 5339   3.686  17.966   7.895 -0.0963 -0.0927  0.0866
  334loPI   C6A 5340   4.058  18.167   7.852 -0.0418  0.3565  0.2705
  334loPI   C1B 5341   4.355  17.506   9.522 -0.0294 -0.0049 -0.2419
  334loPI   C2B 5342   4.312  17.458   9.061 -0.1056  0.1927 -0.1745
  334loPI   C3B 5343   4.404  17.443   8.615 -0.1328  0.2123  0.4261
  334loPI   C4B 5344   4.449  17.321   8.188  0.1342  0.0576 -0.2764
  335loPI    C1 5345  14.074   7.704  10.907  0.1691  0.0818 -0.2678
  335loPI    C2 5346  14.311   7.492  11.150  0.0185 -0.1615 -0.3299
  335loPI    C3 5347  14.093   7.794  11.297 -0.0932 -0.3246 -0.1540
  335loPI   PO4 5348  14.081   7.478  10.706  0.2559  0.1027  0.1096
  335loPI   GL1 5349  13.966   7.506  10.281 -0.0368 -0.2796  0.0286
  335loPI   GL2 5350  13.596   7.457  10.338  0.1506 -0.0349 -0.0507
  335loPI   C1A 5351  13.954   7.793  10.022 -0.2745  0.0868  0.0569
  335loPI   C2A 5352  13.949   7.780   9.663 -0.2487  0.2734  0.3549
  335loPI   C3A 5353  13.908   7.773   9.250 -0.1081 -0.0726  0.2755
  335loPI   C4A 5354  13.997   7.767   8.784  0.0229 -0.1393  0.0696
  335loPI   C5A 5355  13.987   7.931   8.369  0.3139 -0.0397  0.1458
  335loPI   C6A 5356  14.158   7.989   7.904  0.1548  0.2818 -0.0498
  335loPI   C1B 5357  13.664   7.390   9.856 -0.0371  0.0381 -0.0800
  335loPI   C2B 5358  13.693   7.234   9.469  0.0077 -0.2378 -0.1875
  335loPI   C3B 5359  13.627   7.239   9.089  0.1767 -0.1483  0.1162
  335loPI   C4B 5360  13.518   7.147   8.658  0.0257  0.0779  0.1448
  336loPI    C1 5361  17.229   8.671  10.924  0.0720  0.2986 -0.1193
  336loPI    C2 5362  17.617   8.575  10.921 -0.0952 -0.4308 -0.1677
  336loPI    C3 5363  17.448   8.714  11.256  0.1993 -0.1197 -0.1433
  336loPI   PO4 5364  17.259   8.777  10.601  0.0479 -0.2669  0.1664
  336loPI   GL1 5365  17.307   8.549  10.206 -0.3620 -0.2628  0.1553
  336loPI   GL2 5366  17.080   8.272  10.104  0.0267  0.4455 -0.2636
  336loPI   C1A 5367  17.144   8.607   9.782  0.2701 -0.0266 -0.0722
  336loPI   C2A 5368  17.176   8.541   9.395 -0.2035 -0.2478  0.4789
  336loPI   C3A 5369  17.062   8.564   9.020 -0.0169  0.1226  0.0409
  336loPI   C4A 5370  16.988   8.432   8.613  0.0756 -0.0099 -0.2033
  336loPI   C5A 5371  16.952   8.650   8.240  0.5214  0.0667 -0.1022
  336loPI   C6A 5372  16.893   9.058   8.378 -0.1422  0.2407  0.1510
  336loPI   C1B 5373  16.976   8.144   9.723  0.0383 -0.0815 -0.1050
  336loPI   C2B 5374  16.836   8.170   9.344  0.0817  0.2012 -0.3749
  336loPI   C3B 5375  16.869   8.078   8.965  0.0522 -0.1257  0.1813
  336loPI   C4B 5376  16.750   7.984   8.572 -0.0787 -0.2961 -0.1560
  337loPI    C1 5377   6.323  17.194  11.019 -0.0824  0.2631  0.0258
  337loPI    C2 5378   6.024  17.457  11.055 -0.1517  0.2029 -0.1039
  337loPI    C3 5379   6.081  17.179  11.337 -0.2645  0.1676 -0.1153
  337loPI   PO4 5380   6.292  17.088  10.712 -0.2460  0.2334  0.0046
  337loPI   GL1 5381   6.420  17.082  10.349 -0.1514  0.0643 -0.0809
  337loPI   GL2 5382   6.509  17.345  10.253 -0.2481  0.0742 -0.0357
  337loPI   C1A 5383   6.258  16.934   9.987 -0.1055  0.2096 -0.0322
  337loPI   C2A 5384   6.238  17.025   9.513  0.3366  0.1621  0.2134
  337loPI   C3A 5385   6.154  16.962   9.146  0.0968  0.2095 -0.2219
  337loPI   C4A 5386   6.311  17.032   8.755 -0.0842 -0.3202  0.0501
  337loPI   C5A 5387   6.259  17.051   8.349 -0.4311  0.0511 -0.2074
  337loPI   C6A 5388   6.381  16.864   8.020 -0.2777  0.3461 -0.0837
  337loPI   C1B 5389   6.549  17.348   9.782 -0.0981 -0.1055  0.3961
  337loPI   C2B 5390   6.466  17.414   9.273 -0.2825 -0.1487 -0.0282
  337loPI   C3B 5391   6.478  17.493   8.862  0.0013  0.1385  0.0890
  337loPI   C4B 5392   6.596  17.471   8.365  0.3568 -0.0351 -0.1043
  338loPI    C1 5393   6.658  17.812  11.122 -0.2120 -0.2417 -0.1169
  338loPI    C2 5394   6.768  17.531  11.385 -0.1181 -0.2429 -0.1572
  338loPI    C3 5395   6.380  17.608  11.326 -0.1369 -0.1544  0.0751
  338loPI   PO4 5396   6.872  17.812  10.922 -0.0228  0.0509  0.2114
  338loPI   GL1 5397   6.860  17.816  10.503  0.1703  0.2924 -0.0799
  338loPI   GL2 5398   7.200  17.807  10.352 -0.1133 -0.2127  0.1072
  338loPI   C1A 5399   6.758  17.843  10.054 -0.2141  0.0828  0.0471
  338loPI   C2A 5400   6.766  17.843   9.666  0.0704  0.1905  0.0701
  338loPI   C3A 5401   6.750  17.877   9.262 -0.0937 -0.1835 -0.0753
  338loPI   C4A 5402   6.744  17.949   8.930  0.1890 -0.0717 -0.0478
  338loPI   C5A 5403   6.764  18.000   8.407  0.1810 -0.1945  0.1310
  338loPI   C6A 5404   6.476  18.021   8.089 -0.0611 -0.1811 -0.2095
  338loPI   C1B 5405   7.331  17.703   9.899 -0.1861  0.0327  0.0333
  338loPI   C2B 5406   7.242  17.762   9.446  0.1038  0.0497 -0.1800
  338loPI   C3B 5407   7.341  17.774   9.003 -0.0140 -0.2156  0.0995
  338loPI   C4B 5408   7.566  17.824   8.572  0.2640 -0.0847  0.3261
  339loPI    C1 5409   1.195   6.510  10.396 -0.3373 -0.0862  0.4366
  339loPI    C2 5410   1.355   6.159  10.499  0.1749 -0.0484 -0.1676
  339loPI    C3 5411   1.592   6.467  10.405 -0.2668  0.2741 -0.2575
  339loPI   PO4 5412   1.028   6.405  10.215  0.2878  0.1144 -0.0933
  339loPI   GL1 5413   1.158   6.330   9.760  0.3532 -0.0921  0.0081
  339loPI   GL2 5414   1.447   6.389   9.898  0.2986  0.1593 -0.2388
  339loPI   C1A 5415   1.376   6.159   9.449  0.3510  0.0550  0.3253
  339loPI   C2A 5416   1.499   6.072   9.114  0.0372 -0.1726 -0.1056
  339loPI   C3A 5417   1.454   6.108   8.623 -0.0514  0.0444  0.0968
  339loPI   C4A 5418   1.495   6.180   8.084  0.0315  0.1168 -0.1834
  339loPI   C5A 5419   1.535   6.637   7.839  0.0405  0.1361 -0.1447
  339loPI   C6A 5420   1.264   7.060   7.839  0.0444  0.1707  0.0206
  339loPI   C1B 5421   1.757   6.490   9.624  0.0844  0.0397 -0.1911
  339loPI   C2B 5422   1.842   6.455   9.266  0.2718  0.0902 -0.2304
  339loPI   C3B 5423   1.708   6.489   8.860  0.1163 -0.0119  0.2030
  339loPI   C4B 5424   1.654   6.559   8.442  0.1076 -0.0176  0.1116
  340loPI    C1 5425  16.487   6.601  10.812 -0.3397  0.2239 -0.0731
  340loPI    C2 5426  16.577   6.661  11.197  0.2047 -0.1569 -0.1292
  340loPI    C3 5427  16.222   6.505  11.096  0.1097 -0.1810  0.2254
  340loPI   PO4 5428  16.685   6.458  10.724 -0.3007 -0.3959 -0.1431
  340loPI   GL1 5429  16.621   6.256  10.276 -0.0057  0.0472 -0.0457
  340loPI   GL2 5430  16.866   6.473  10.244  0.1463  0.1029  0.3251
  340loPI   C1A 5431  16.329   6.211   9.977  0.0723 -0.0344  0.2337
  340loPI   C2A 5432  16.264   6.351   9.524  0.2531 -0.2058 -0.2219
  340loPI   C3A 5433  16.145   6.171   9.147 -0.0668 -0.0801  0.2267
  340loPI   C4A 5434  16.147   6.151   8.692  0.0430 -0.1364 -0.1126
  340loPI   C5A 5435  16.083   6.106   8.289  0.1711  0.2912  0.0263
  340loPI   C6A 5436  16.064   6.023   7.867  0.2982 -0.1844 -0.0380
  340loPI   C1B 5437  16.605   6.709   9.884  0.0714 -0.0343 -0.2037
  340loPI   C2B 5438  16.554   6.754   9.457  0.2397  0.0984  0.2302
  340loPI   C3B 5439  16.528   6.580   9.132 -0.2461  0.2870 -0.2651
  340loPI   C4B 5440  16.354   6.580   8.806 -0.0283 -0.0655 -0.2407
  341loPI    C1 5441  13.333  13.654  11.213 -0.1744 -0.0638 -0.3043
  341loPI    C2 5442  12.995  13.442  11.242 -0.0571 -0.2100  0.0359
  341loPI    C3 5443  13.277  13.409  11.524  0.1188  0.1286 -0.0954
  341loPI   PO4 5444  13.242  13.863  11.112 -0.2057 -0.0373 -0.0363
  341loPI   GL1 5445  13.169  13.777  10.699  0.1672 -0.2018 -0.1822
  341loPI   GL2 5446  13.386  13.785  10.445 -0.1288  0.2163 -0.1408
  341loPI   C1A 5447  13.091  14.134  10.339 -0.0443  0.1204  0.0724
  341loPI   C2A 5448  13.175  14.199   9.946 -0.0388  0.0666  0.0508
  341loPI   C3A 5449  13.110  14.264   9.568 -0.0269 -0.1364 -0.0186
  341loPI   C4A 5450  13.218  14.273   9.166  0.0800 -0.2564  0.3437
  341loPI   C5A 5451  13.172  14.260   8.824  0.2548 -0.1620 -0.3863
  341loPI   C6A 5452  13.101  13.993   8.418  0.4040  0.0839  0.2597
  341loPI   C1B 5453  13.361  13.775  10.062 -0.0644 -0.0487  0.1723
  341loPI   C2B 5454  13.430  13.700   9.588  0.1648  0.2962  0.1967
  341loPI   C3B 5455  13.420  13.784   9.145 -0.3118  0.1774 -0.1538
  341loPI   C4B 5456  13.447  13.835   8.690  0.0742  0.0368  0.1398
  342loPI    C1 5457   4.476   7.088  10.108 -0.0655  0.0814  0.0706
  342loPI    C2 5458   4.356   7.423  10.290  0.1842  0.2012  0.0183
  342loPI    C3 5459   4.437   7.097  10.506 -0.2255  0.1186  0.0548
  342loPI   PO4 5460   4.352   7.246   9.778 -0.2067  0.1608 -0.0622
  342loPI   GL1 5461   4.286   7.427   9.395 -0.0642 -0.0779 -0.2406
  342loPI   GL2 5462   4.276   7.246   9.269  0.0801 -0.2713  0.0532
  342loPI   C1A 5463   4.623   7.545   9.098 -0.1040 -0.1822 -0.0289
  342loPI   C2A 5464   4.794   7.197   8.906 -0.0704  0.2430  0.1644
  342loPI   C3A 5465   4.785   7.104   8.383  0.2058  0.0847 -0.2287
  342loPI   C4A 5466   4.961   7.154   7.972 -0.3487  0.0310  0.1359
  342loPI   C5A 5467   5.099   7.025   7.668  0.1531 -0.0181  0.0820
  342loPI   C6A 5468   5.049   6.976   7.226 -0.1978  0.1348 -0.0685
  342loPI   C1B 5469   4.276   7.234   8.819 -0.1455 -0.1606 -0.0766
  342loPI   C2B 5470   4.295   7.218   8.353  0.2426  0.2082  0.1337
  342loPI   C3B 5471   4.449   7.004   8.017  0.0632 -0.0968  0.1118
  342loPI   C4B 5472   4.566   7.078   7.641 -0.2265 -0.0310  0.1430
  343loPI    C1 5473  13.600  11.873  10.953 -0.0718 -0.2433 -0.1639
  343loPI    C2 5474  13.795  11.706  11.260 -0.1717 -0.0201  0.0239
  343loPI    C3 5475  13.402  11.646  11.216 -0.1648 -0.0202 -0.0388
  343loPI   PO4 5476  13.767  11.834  10.766 -0.0195  0.1909 -0.2450
  343loPI   GL1 5477  13.859  11.510  10.447  0.0320  0.0311 -0.3651
  343loPI   GL2 5478  13.687  11.565  10.315 -0.1864  0.0186  0.3447
  343loPI   C1A 5479  14.090  11.410  10.105 -0.1804 -0.0916  0.0380
  343loPI   C2A 5480  14.155  11.331   9.643 -0.0273 -0.2815  0.0166
  343loPI   C3A 5481  14.146  11.334   9.194 -0.2791 -0.0445  0.3140
  343loPI   C4A 5482  14.114  11.428   8.731 -0.1483  0.3644 -0.1307
  343loPI   C5A 5483  14.201  11.666   8.383 -0.5202  0.0626 -0.3750
  343loPI   C6A 5484  14.529  11.942   8.258  0.3787  0.1446 -0.1907
  343loPI   C1B 5485  13.604  11.458   9.949  0.0785  0.2306 -0.2014
  343loPI   C2B 5486  13.521  11.333   9.609  0.3843 -0.1108 -0.0326
  343loPI   C3B 5487  13.555  11.439   9.157 -0.0242  0.4747 -0.1463
  343loPI   C4B 5488  13.610  11.409   8.835  0.0798 -0.0624  0.3653
  344loPI    C1 5489   1.762   5.168  10.370  0.0337 -0.0145 -0.1935
  344loPI    C2 5490   1.734   4.996  10.730 -0.3533 -0.0451 -0.2341
  344loPI    C3 5491   1.493   5.301  10.635 -0.0943  0.1152 -0.3861
  344loPI   PO4 5492   1.618   4.934  10.175 -0.1310 -0.2514  0.0704
  344loPI   GL1 5493   1.600   4.833   9.723 -0.4606  0.0446  0.2249
  344loPI   GL2 5494   1.462   5.155   9.768  0.1474  0.0926 -0.1437
  344loPI   C1A 5495   1.671   5.011   9.285 -0.2603 -0.0216  0.0575
  344loPI   C2A 5496   1.584   5.118   8.849 -0.1456  0.1297 -0.0961
  344loPI   C3A 5497   1.330   5.097   8.514  0.2977 -0.0146  0.2247
  344loPI   C4A 5498   1.238   5.180   8.091  0.2588  0.3240  0.2753
  344loPI   C5A 5499   1.446   5.378   7.836 -0.1058 -0.0282  0.0474
  344loPI   C6A 5500   1.499   5.815   7.790 -0.0772  0.0072  0.1335
  344loPI   C1B 5501   1.295   5.379   9.404  0.1347  0.0560 -0.0634
  344loPI   C2B 5502   1.163   5.631   9.113 -0.0921  0.0795 -0.2418
  344loPI   C3B 5503   1.190   5.702   8.720 -0.2430  0.1354 -0.0697
  344loPI   C4B 5504   1.211   5.630   8.289  0.2500  0.1511  0.4057
  345loPI    C1 5505  13.062   0.826  11.345 -0.2930  0.0574  0.0482
  345loPI    C2 5506  13.085   0.681  11.717 -0.0810  0.0767  0.0438
  345loPI    C3 5507  13.231   1.044  11.634  0.0445 -0.0047 -0.0971
  345loPI   PO4 5508  13.135   0.506  11.097  0.0203  0.2389  0.3733
  345loPI   GL1 5509  13.144   0.442  10.559  0.0697 -0.0949 -0.1254
  345loPI   GL2 5510  12.988   0.768  10.411  0.1671 -0.3587 -0.1194
  345loPI   C1A 5511  13.130   0.325  10.208 -0.2589  0.0084  0.0243
  345loPI   C2A 5512  13.208   0.307   9.833  0.0271 -0.0642 -0.0152
  345loPI   C3A 5513  13.141   0.336   9.366 -0.3487 -0.1647  0.0959
  345loPI   C4A 5514  13.151   0.221   9.031 -0.1290 -0.0771  0.1275
  345loPI   C5A 5515  13.024   0.361   8.732 -0.0353 -0.2609 -0.1129
  345loPI   C6A 5516  13.121   0.112   8.408  0.1850  0.2153 -0.3423
  345loPI   C1B 5517  12.893   0.864   9.971  0.1274  0.1032 -0.0112
  345loPI   C2B 5518  12.886   0.836   9.498 -0.0815  0.2128 -0.0253
  345loPI   C3B 5519  12.916   0.750   9.045 -0.0028 -0.1140 -0.1198
  345loPI   C4B 5520  12.797   0.844   8.708  0.0375 -0.0826 -0.0223
  346loPI    C1 5521   0.041   3.988  10.562  0.0905  0.0557 -0.0675
  346loPI    C2 5522  -0.035   3.696  10.825  0.2575 -0.1112 -0.2020
  346loPI    C3 5523   0.214   3.993  10.922 -0.1824  0.1817  0.0647
  346loPI   PO4 5524   0.080   3.863  10.328  0.1971 -0.0973 -0.1988
  346loPI   GL1 5525  -0.139   3.701   9.977 -0.1171  0.0169  0.1791
  346loPI   GL2 5526  -0.311   3.867   9.742  0.1966 -0.0086  0.0530
  346loPI   C1A 5527   0.125   3.744   9.564 -0.0548  0.0615  0.2690
  346loPI   C2A 5528   0.111   3.691   9.137 -0.0165  0.0153  0.4225
  346loPI   C3A 5529   0.007   3.861   8.708 -0.0164  0.2742 -0.2138
  346loPI   C4A 5530  -0.072   3.852   8.341  0.1063  0.2740  0.1128
  346loPI   C5A 5531   0.203   4.100   8.030 -0.0200 -0.2123 -0.1482
  346loPI   C6A 5532   0.474   4.468   7.854  0.0178  0.1030 -0.1329
  346loPI   C1B 5533  -0.331   3.837   9.336 -0.1747 -0.0228 -0.1907
  346loPI   C2B 5534  -0.454   3.846   8.910  0.1045  0.2768  0.0889
  346loPI   C3B 5535  -0.578   3.887   8.488  0.1105 -0.0846  0.0221
  346loPI   C4B 5536  -0.570   3.944   8.035  0.0974  0.3302 -0.0322
  347loPI    C1 5537   0.780  16.111  10.677  0.1815  0.0356 -0.0898
  347loPI    C2 5538   0.702  16.456  10.489 -0.1010 -0.0461 -0.1278
  347loPI    C3 5539   0.709  16.443  10.888  0.0804  0.0384 -0.1273
  347loPI   PO4 5540   0.645  15.924  10.521 -0.0779 -0.1482 -0.2335
  347loPI   GL1 5541   0.598  15.765  10.185 -0.1726  0.1670 -0.0656
  347loPI   GL2 5542   0.364  16.115  10.184  0.0355  0.1228 -0.1119
  347loPI   C1A 5543   0.499  15.750   9.789  0.1212 -0.1370  0.0971
  347loPI   C2A 5544   0.432  15.705   9.382  0.3019 -0.0362  0.2371
  347loPI   C3A 5545   0.560  15.794   9.048  0.1591  0.2193  0.3306
  347loPI   C4A 5546   0.633  15.681   8.567 -0.0596  0.1938  0.1174
  347loPI   C5A 5547   0.590  15.955   8.177  0.1546  0.0169 -0.0890
  347loPI   C6A 5548   0.360  16.305   8.050 -0.0905  0.0039 -0.1665
  347loPI   C1B 5549   0.220  16.173   9.783  0.1514 -0.0128 -0.0086
  347loPI   C2B 5550   0.208  16.225   9.396  0.2326 -0.0729  0.0509
  347loPI   C3B 5551   0.357  16.261   8.999  0.0181  0.3090  0.0551
  347loPI   C4B 5552   0.246  16.008   8.646  0.0330 -0.0426 -0.0823
  348loPI    C1 5553   1.944  15.171  10.941 -0.0247  0.1272 -0.0332
  348loPI    C2 5554   2.155  14.991  11.229  0.0400  0.0168 -0.1486
  348loPI    C3 5555   2.070  15.381  11.258  0.0686  0.0124  0.0064
  348loPI   PO4 5556   2.046  15.059  10.727 -0.0619  0.0126 -0.0498
  348loPI   GL1 5557   1.985  14.860  10.353 -0.0029  0.0124  0.0037
  348loPI   GL2 5558   1.873  15.209  10.289 -0.0212 -0.1824 -0.1935
  348loPI   C1A 5559   2.046  14.673   9.956  0.1666 -0.0006 -0.2589
  348loPI   C2A 5560   2.094  14.731   9.512  0.0391 -0.0635 -0.2479
  348loPI   C3A 5561   2.165  14.763   9.037 -0.1143 -0.0104  0.0117
  348loPI   C4A 5562   2.193  14.855   8.643  0.1692 -0.0058  0.1441
  348loPI   C5A 5563   2.123  14.891   8.392  0.1467 -0.1306  0.3477
  348loPI   C6A 5564   2.394  14.989   8.062 -0.0738  0.0249  0.0965
  348loPI   C1B 5565   1.805  15.142   9.900 -0.0840 -0.0766 -0.3258
  348loPI   C2B 5566   1.799  15.185   9.476 -0.0735 -0.0265 -0.1389
  348loPI   C3B 5567   1.865  15.341   9.080 -0.0494 -0.1819  0.0197
  348loPI   C4B 5568   1.812  15.294   8.612 -0.0171  0.1849  0.1306
  349loPI    C1 5569   3.388   1.459  10.787  0.0752  0.2644  0.1400
  349loPI    C2 5570   3.365   1.198  11.090  0.0264 -0.0869 -0.1597
  349loPI    C3 5571   3.034   1.379  10.955  0.0408  0.0311 -0.0393
  349loPI   PO4 5572   3.582   1.295  10.587  0.4063 -0.0724 -0.0695
  349loPI   GL1 5573   3.391   0.948  10.289  0.0680 -0.2846  0.5009
  349loPI   GL2 5574   3.225   0.840  10.103 -0.2104 -0.1060  0.0448
  349loPI   C1A 5575   3.477   1.164   9.801 -0.1944 -0.4140  0.2638
  349loPI   C2A 5576   3.497   1.141   9.339 -0.0136  0.1436  0.1115
  349loPI   C3A 5577   3.601   1.007   8.922  0.2359 -0.0130 -0.0374
  349loPI   C4A 5578   3.723   0.796   8.598  0.3835  0.2581 -0.0681
  349loPI   C5A 5579   3.797   1.047   8.278  0.3574  0.0466  0.1020
  349loPI   C6A 5580   4.112   1.371   8.166 -0.2154 -0.1286  0.0694
  349loPI   C1B 5581   3.057   0.887   9.674  0.1274  0.2937  0.0062
  349loPI   C2B 5582   3.028   0.867   9.259  0.0056 -0.0330  0.1881
  349loPI   C3B 5583   3.108   0.988   8.883 -0.0317  0.2340 -0.1713
  349loPI   C4B 5584   3.100   0.878   8.511  0.3251  0.1164  0.3597
  350loPI    C1 5585   7.562   2.665  11.113  0.4447 -0.3059 -0.0958
  350loPI    C2 5586   7.614   2.777  11.493 -0.1269 -0.1696 -0.0483
  350loPI    C3 5587   7.463   2.416  11.410  0.0161 -0.2072 -0.1497
  350loPI   PO4 5588   7.448   2.921  11.034  0.1780 -0.3650  0.0960
  350loPI   GL1 5589   7.282   3.086  10.671  0.2179  0.2894  0.0361
  350loPI   GL2 5590   7.576   3.134  10.579 -0.0372  0.2560 -0.2553
  350loPI   C1A 5591   7.122   3.023  10.213  0.1712  0.0823 -0.1086
  350loPI   C2A 5592   7.065   3.040   9.803  0.1342  0.1378 -0.1183
  350loPI   C3A 5593   7.120   2.986   9.365 -0.1775 -0.0378 -0.1050
  350loPI   C4A 5594   7.179   2.904   8.979  0.0433 -0.0345 -0.1285
  350loPI   C5A 5595   7.387   2.960   8.610 -0.0787  0.0815  0.1663
  350loPI   C6A 5596   7.469   2.851   8.163 -0.1142  0.3127  0.1499
  350loPI   C1B 5597   7.681   3.104  10.176  0.1633  0.1888 -0.1958
  350loPI   C2B 5598   7.620   3.030   9.744 -0.0171 -0.2213  0.2287
  350loPI   C3B 5599   7.606   2.989   9.342  0.1566  0.1287 -0.0541
  350loPI   C4B 5600   7.683   2.858   8.994  0.1172  0.0311  0.1654
  351loPI    C1 5601   7.950   7.444  10.754 -0.3795  0.1260 -0.1035
  351loPI    C2 5602   8.036   7.151  11.013  0.0541  0.1432 -0.2191
  351loPI    C3 5603   7.913   7.507  11.148 -0.0309  0.0535 -0.0556
  351loPI   PO4 5604   7.857   7.259  10.571 -0.0123 -0.1414 -0.0552
  351loPI   GL1 5605   7.729   7.090  10.171 -0.2628 -0.2355  0.1827
  351loPI   GL2 5606   7.474   7.310  10.198 -0.2774 -0.0206 -0.2878
  351loPI   C1A 5607   8.001   7.196   9.902  0.0189  0.3065 -0.3177
  351loPI   C2A 5608   8.168   7.024   9.558 -0.3786 -0.0510 -0.0010
  351loPI   C3A 5609   8.108   7.027   9.152  0.0788 -0.0993  0.0285
  351loPI   C4A 5610   8.117   6.935   8.623  0.3444  0.1484 -0.3022
  351loPI   C5A 5611   8.021   7.004   8.243  0.2169  0.0126  0.0178
  351loPI   C6A 5612   8.104   6.830   7.774  0.0546 -0.0229  0.2891
  351loPI   C1B 5613   7.526   7.119   9.740  0.1578 -0.2557  0.0833
  351loPI   C2B 5614   7.614   7.045   9.247 -0.3420 -0.1371 -0.0404
  351loPI   C3B 5615   7.644   6.963   8.786  0.0903 -0.1023  0.0183
  351loPI   C4B 5616   7.519   6.921   8.388 -0.0950  0.0293 -0.0372
  352loPI    C1 5617  15.436  10.117  11.024  0.0856  0.1323 -0.0631
  352loPI    C2 5618  15.512   9.776  11.220 -0.1050  0.1305  0.0088
  352loPI    C3 5619  15.642  10.125  11.367 -0.2667  0.1315  0.1531
  352loPI   PO4 5620  15.179  10.071  10.995  0.1621  0.4094 -0.1538
  352loPI   GL1 5621  15.061  10.134  10.522 -0.1758  0.3178  0.3121
  352loPI   GL2 5622  15.161  10.437  10.499 -0.1448 -0.2192 -0.0437
  352loPI   C1A 5623  14.899  10.017  10.076  0.2016 -0.0285 -0.0293
  352loPI   C2A 5624  14.933  10.066   9.642  0.0968 -0.2057 -0.0055
  352loPI   C3A 5625  14.773  10.066   9.212  0.1675 -0.1351  0.1285
  352loPI   C4A 5626  14.701  10.057   8.846  0.1889  0.0030  0.0716
  352loPI   C5A 5627  14.913  10.083   8.501 -0.1353 -0.1938 -0.1108
  352loPI   C6A 5628  15.074  10.043   8.083  0.2869  0.0178 -0.1960
  352loPI   C1B 5629  15.191  10.433  10.082 -0.0582  0.2754 -0.2890
  352loPI   C2B 5630  15.192  10.495   9.615 -0.0117 -0.0776 -0.0016
  352loPI   C3B 5631  15.137  10.445   9.199  0.1884  0.0835 -0.2284
  352loPI   C4B 5632  15.029  10.556   8.782  0.1848 -0.1384 -0.0424
  353loPI    C1 5633  14.959  13.289  11.096 -0.0057 -0.0529  0.0005
  353loPI    C2 5634  14.790  13.517  11.378  0.0360 -0.2090  0.1534
  353loPI    C3 5635  14.562  13.282  11.148 -0.0097  0.0030 -0.0217
  353loPI   PO4 5636  15.123  13.379  10.887 -0.0342 -0.2046  0.3043
  353loPI   GL1 5637  15.331  13.174  10.460  0.2346 -0.0230  0.1027
  353loPI   GL2 5638  15.019  13.324  10.358 -0.0434  0.0426 -0.1579
  353loPI   C1A 5639  15.273  13.178   9.982 -0.2438 -0.2629 -0.0901
  353loPI   C2A 5640  15.285  13.239   9.582  0.1430  0.0146 -0.1636
  353loPI   C3A 5641  15.236  13.227   9.185 -0.2080  0.0287 -0.1722
  353loPI   C4A 5642  15.196  13.228   8.859  0.0975 -0.0309 -0.0135
  353loPI   C5A 5643  15.207  12.942   8.485  0.0151  0.1824  0.2366
  353loPI   C6A 5644  14.891  12.887   8.227  0.0976  0.0013 -0.0179
  353loPI   C1B 5645  14.859  13.631  10.082 -0.3353 -0.1905 -0.0746
  353loPI   C2B 5646  14.965  13.658   9.634 -0.0087 -0.0382  0.2280
  353loPI   C3B 5647  15.002  13.764   9.324 -0.1554  0.1303 -0.0914
  353loPI   C4B 5648  15.121  13.737   8.988 -0.0554  0.0214  0.1344
  354loPI    C1 5649  17.214   7.781  10.713  0.0648 -0.1516  0.1667
  354loPI    C2 5650  17.187   8.082  10.974 -0.1171 -0.0747  0.0612
  354loPI    C3 5651  17.367   7.741  11.080  0.1116  0.0782  0.1736
  354loPI   PO4 5652  17.246   7.890  10.430  0.2188  0.2991  0.0389
  354loPI   GL1 5653  17.632   7.812  10.175 -0.1425  0.1108  0.0723
  354loPI   GL2 5654  17.840   7.780   9.832  0.1749 -0.2006  0.0259
  354loPI   C1A 5655  17.351   7.763   9.833  0.3906  0.1515 -0.0243
  354loPI   C2A 5656  17.178   7.670   9.443  0.0235  0.1872 -0.2483
  354loPI   C3A 5657  17.080   7.599   8.980  0.5164  0.0138  0.2649
  354loPI   C4A 5658  16.952   7.530   8.537  0.1320 -0.0994  0.0474
  354loPI   C5A 5659  17.027   7.268   8.214  0.0126 -0.2751 -0.0907
  354loPI   C6A 5660  16.826   7.361   7.857  0.0605 -0.0878  0.0675
  354loPI   C1B 5661  17.744   7.590   9.484 -0.2022  0.1450 -0.0218
  354loPI   C2B 5662  17.577   7.609   9.117 -0.0322  0.0659 -0.2476
  354loPI   C3B 5663  17.641   7.504   8.644  0.3109  0.2569  0.2482
  354loPI   C4B 5664  17.421   7.494   8.360 -0.0262 -0.5380 -0.3553
  355loPI    C1 5665  14.604   8.981  10.945  0.2851 -0.0775  0.0700
  355loPI    C2 5666  14.485   8.638  11.113  0.1185 -0.1561 -0.2015
  355loPI    C3 5667  14.714   8.893  11.320 -0.4404 -0.0438  0.3067
  355loPI   PO4 5668  14.428   9.000  10.730  0.2303  0.1685 -0.1183
  355loPI   GL1 5669  13.989   9.016  10.552  0.3560  0.1950  0.4239
  355loPI   GL2 5670  14.120   9.182  10.424 -0.2443 -0.2349  0.2646
  355loPI   C1A 5671  13.883   8.707  10.184 -0.0986  0.1578 -0.2486
  355loPI   C2A 5672  13.957   8.718   9.792 -0.1415  0.1599  0.0055
  355loPI   C3A 5673  13.901   8.725   9.395 -0.3382  0.1104  0.0508
  355loPI   C4A 5674  13.895   8.609   8.993  0.1435 -0.2566  0.0320
  355loPI   C5A 5675  13.951   8.593   8.586 -0.0259  0.0084  0.1005
  355loPI   C6A 5676  14.227   8.447   8.176 -0.0439  0.2464  0.0783
  355loPI   C1B 5677  14.241   9.160  10.041 -0.0630 -0.1300 -0.0894
  355loPI   C2B 5678  14.230   9.117   9.668  0.0316  0.0074  0.2480
  355loPI   C3B 5679  14.283   9.166   9.211 -0.1484  0.0789  0.0897
  355loPI   C4B 5680  14.147   9.089   8.867 -0.0545  0.1501  0.1785
  356loPI    C1 5681  16.109  15.103  11.345  0.0273  0.0390 -0.1716
  356loPI    C2 5682  15.790  15.306  11.476  0.1458  0.0858  0.0486
  356loPI    C3 5683  15.786  14.906  11.474  0.0830  0.0864  0.0439
  356loPI   PO4 5684  16.191  15.267  11.101 -0.3834  0.0743 -0.0544
  356loPI   GL1 5685  16.173  15.305  10.653  0.2921 -0.0242  0.0732
  356loPI   GL2 5686  16.254  14.969  10.514  0.3117 -0.0970 -0.0247
  356loPI   C1A 5687  16.099  15.445  10.169 -0.1198 -0.1770 -0.2272
  356loPI   C2A 5688  16.072  15.483   9.734  0.2336  0.2895  0.0785
  356loPI   C3A 5689  16.184  15.435   9.290  0.0254  0.2764  0.2740
  356loPI   C4A 5690  16.155  15.453   8.834  0.1616  0.1018  0.2291
  356loPI   C5A 5691  16.231  15.722   8.423 -0.0279  0.2308  0.0316
  356loPI   C6A 5692  15.929  16.008   8.317 -0.0262  0.1522 -0.1585
  356loPI   C1B 5693  16.326  14.967  10.071  0.1558  0.0615 -0.0039
  356loPI   C2B 5694  16.396  14.902   9.600 -0.0970 -0.0789 -0.1882
  356loPI   C3B 5695  16.363  14.962   9.084 -0.1991  0.0333 -0.0953
  356loPI   C4B 5696  16.405  15.014   8.598  0.1539  0.0861 -0.1345
  357loPI    C1 5697  14.142   9.438  10.905 -0.0321  0.2745 -0.1078
  357loPI    C2 5698  13.828   9.686  10.899 -0.2521  0.0013 -0.0651
  357loPI    C3 5699  13.776   9.300  10.992  0.1164 -0.0212  0.0615
  357loPI   PO4 5700  14.316   9.586  10.702  0.0746 -0.0061 -0.2543
  357loPI   GL1 5701  14.380   9.846  10.347 -0.1300 -0.0874 -0.1947
  357loPI   GL2 5702  13.994   9.751  10.386 -0.0020  0.0151 -0.1465
  357loPI   C1A 5703  14.416  10.016   9.881  0.0515  0.0857 -0.1786
  357loPI   C2A 5704  14.332  10.026   9.461 -0.0411  0.0716 -0.2233
  357loPI   C3A 5705  14.234  10.017   9.003 -0.1635  0.3456 -0.0265
  357loPI   C4A 5706  14.262   9.995   8.539 -0.0943 -0.4453 -0.0209
  357loPI   C5A 5707  14.511   9.678   8.315  0.2394 -0.1813 -0.0790
  357loPI   C6A 5708  14.847   9.566   8.004  0.0272  0.1808  0.0264
  357loPI   C1B 5709  14.040   9.657   9.963  0.1247  0.0671 -0.2725
  357loPI   C2B 5710  14.106   9.584   9.532  0.1704  0.2167 -0.0804
  357loPI   C3B 5711  13.955   9.608   9.069  0.3292 -0.2007 -0.0998
  357loPI   C4B 5712  13.969   9.610   8.675 -0.0062  0.2114  0.3197
  358loPI    C1 5713   5.253   0.594  10.594 -0.0773 -0.0054  0.0151
  358loPI    C2 5714   5.452   0.297  10.773  0.0783  0.1384  0.0836
  358loPI    C3 5715   5.169   0.497  10.973 -0.1603 -0.0859 -0.0234
  358loPI   PO4 5716   5.345   0.589  10.344 -0.2234 -0.1006 -0.1087
  358loPI   GL1 5717   5.522   0.328  10.096  0.4822  0.0151 -0.0135
  358loPI   GL2 5718   5.842   0.395  10.136  0.0854 -0.0476 -0.1755
  358loPI   C1A 5719   5.521   0.421   9.724 -0.0575 -0.1409  0.0433
  358loPI   C2A 5720   5.490   0.480   9.256  0.0070  0.0318  0.0160
  358loPI   C3A 5721   5.463   0.382   8.909  0.0695 -0.1451 -0.0799
  358loPI   C4A 5722   5.480   0.313   8.471 -0.0857  0.0473 -0.0118
  358loPI   C5A 5723   5.471   0.263   8.046 -0.0411 -0.1606  0.0419
  358loPI   C6A 5724   5.869   0.115   7.965 -0.0934  0.1536  0.3219
  358loPI   C1B 5725   6.024   0.356   9.682  0.2874 -0.0815 -0.2226
  358loPI   C2B 5726   6.045   0.382   9.227 -0.0444  0.1633 -0.1838
  358loPI   C3B 5727   5.948   0.351   8.844  0.2538 -0.2207 -0.1085
  358loPI   C4B 5728   5.995   0.373   8.359  0.1704 -0.2482  0.1882
  359loPI    C1 5729   8.391   9.054  11.372 -0.0717 -0.0264  0.0646
  359loPI    C2 5730   8.099   8.939  11.620 -0.0564 -0.0191  0.0861
  359loPI    C3 5731   8.024   9.208  11.334 -0.0257  0.1227  0.2095
  359loPI   PO4 5732   8.632   8.915  11.128 -0.3679  0.0879  0.0372
  359loPI   GL1 5733   8.598   8.803  10.632  0.0737 -0.0321 -0.1075
  359loPI   GL2 5734   8.603   8.976  10.330  0.0257  0.0137  0.4851
  359loPI   C1A 5735   8.740   8.539  10.257 -0.2047  0.0630 -0.0653
  359loPI   C2A 5736   8.824   8.412   9.877 -0.0591  0.2329  0.3199
  359loPI   C3A 5737   8.970   8.368   9.368 -0.0960 -0.1095 -0.0269
  359loPI   C4A 5738   8.934   8.410   8.900  0.0065  0.0479  0.0849
  359loPI   C5A 5739   9.171   8.382   8.617  0.2672  0.0032 -0.0589
  359loPI   C6A 5740   9.348   8.248   8.301 -0.4420  0.0422  0.0730
  359loPI   C1B 5741   8.573   8.898   9.890 -0.1786  0.0407 -0.1628
  359loPI   C2B 5742   8.679   8.773   9.566  0.0703 -0.1809 -0.4262
  359loPI   C3B 5743   8.747   8.780   9.226  0.0110 -0.4251 -0.4524
  359loPI   C4B 5744   8.746   8.925   8.885 -0.0164  0.2488 -0.2842
  360loPI    C1 5745   2.600  10.871  10.352  0.0697  0.1846 -0.0331
  360loPI    C2 5746   2.488  10.570  10.590  0.1595 -0.0031 -0.2243
  360loPI    C3 5747   2.800  10.798  10.690  0.0736  0.0458 -0.0643
  360loPI   PO4 5748   2.344  10.979  10.245 -0.3218 -0.1981  0.1452
  360loPI   GL1 5749   2.224  11.017   9.858  0.0082  0.0172 -0.0834
  360loPI   GL2 5750   2.184  11.252   9.695 -0.0782  0.1348 -0.1398
  360loPI   C1A 5751   2.260  10.695   9.516 -0.1005  0.0865 -0.0741
  360loPI   C2A 5752   2.184  10.650   9.139  0.2924  0.0408  0.1224
  360loPI   C3A 5753   2.148  10.738   8.771 -0.3402 -0.1248 -0.2270
  360loPI   C4A 5754   2.203  10.692   8.354  0.0010  0.0269 -0.2323
  360loPI   C5A 5755   1.934  10.543   8.017  0.2986 -0.1069 -0.0673
  360loPI   C6A 5756   2.011  10.211   7.828  0.0942 -0.0460 -0.1955
  360loPI   C1B 5757   2.108  11.114   9.368 -0.2413 -0.1343 -0.0083
  360loPI   C2B 5758   2.099  11.319   8.930  0.1350  0.0373  0.0490
  360loPI   C3B 5759   2.225  11.518   8.552  0.0642  0.1446  0.3244
  360loPI   C4B 5760   2.191  11.641   8.097  0.1774  0.0958 -0.0564
  361loPI    C1 5761   7.164   4.827  10.736 -0.2158 -0.0429 -0.2204
  361loPI    C2 5762   6.975   5.046  11.012  0.1284  0.1068 -0.0975
  361loPI    C3 5763   6.838   4.682  10.917  0.0174  0.0433  0.2870
  361loPI   PO4 5764   7.135   4.929  10.527  0.0750 -0.0293 -0.1888
  361loPI   GL1 5765   7.185   4.878  10.046 -0.2069  0.1056 -0.0603
  361loPI   GL2 5766   6.901   4.583   9.943 -0.0239  0.0083 -0.0393
  361loPI   C1A 5767   7.224   4.861   9.645 -0.0919 -0.1720  0.0458
  361loPI   C2A 5768   7.230   4.784   9.279 -0.3128 -0.1629  0.1367
  361loPI   C3A 5769   7.380   4.717   9.007 -0.1381  0.1313  0.0836
  361loPI   C4A 5770   7.458   4.721   8.543  0.2858 -0.1142  0.0233
  361loPI   C5A 5771   7.136   4.726   8.244  0.0172 -0.1638  0.1162
  361loPI   C6A 5772   6.738   4.695   7.944  0.0355  0.3387 -0.0517
  361loPI   C1B 5773   6.869   4.342   9.518 -0.1262 -0.2575  0.0205
  361loPI   C2B 5774   6.993   4.259   9.048  0.0144  0.0857  0.1083
  361loPI   C3B 5775   7.142   4.295   8.677  0.0826 -0.0436  0.2636
  361loPI   C4B 5776   7.387   4.237   8.241  0.0794  0.0259  0.2381
  362loPI    C1 5777   7.681  11.559  10.636  0.0230  0.1641  0.1921
  362loPI    C2 5778   7.982  11.789  10.506 -0.0867 -0.0003 -0.3797
  362loPI    C3 5779   7.635  11.956  10.616  0.1705  0.1819  0.1950
  362loPI   PO4 5780   7.648  11.454  10.435  0.1969 -0.2554 -0.2346
  362loPI   GL1 5781   7.702  11.624  10.093 -0.0538  0.1106  0.0059
  362loPI   GL2 5782   7.986  11.496  10.011 -0.1575  0.0581 -0.1790
  362loPI   C1A 5783   7.657  11.634   9.739 -0.0092 -0.0047  0.5156
  362loPI   C2A 5784   7.726  11.586   9.294 -0.2598 -0.1502 -0.0176
  362loPI   C3A 5785   7.730  11.651   8.782 -0.1705  0.1084 -0.2025
  362loPI   C4A 5786   7.887  11.645   8.401 -0.0541 -0.1399  0.2955
  362loPI   C5A 5787   7.881  12.027   8.187  0.2686  0.4065 -0.2870
  362loPI   C6A 5788   7.722  12.369   8.230  0.1447 -0.0513 -0.0070
  362loPI   C1B 5789   8.142  11.562   9.554  0.2138  0.1532 -0.1607
  362loPI   C2B 5790   8.230  11.705   9.141  0.0801  0.4084 -0.1499
  362loPI   C3B 5791   8.329  11.571   8.687  0.0017 -0.4559  0.1609
  362loPI   C4B 5792   8.686  11.469   8.300  0.3477 -0.1605 -0.2020
  363loPI    C1 5793   4.280   4.532  10.677  0.3650  0.1220  0.0449
  363loPI    C2 5794   3.991   4.808  10.655  0.1993 -0.0423  0.1287
  363loPI    C3 5795   3.966   4.513  10.924  0.5207  0.0258  0.2388
  363loPI   PO4 5796   4.336   4.405  10.427  0.1520  0.2631  0.1852
  363loPI   GL1 5797   4.526   4.559  10.073 -0.0971  0.0249 -0.2132
  363loPI   GL2 5798   4.329   4.578   9.824  0.4188  0.0917 -0.1048
  363loPI   C1A 5799   4.574   4.129   9.832 -0.0419 -0.0448  0.1517
  363loPI   C2A 5800   4.695   4.057   9.382 -0.2273  0.1920 -0.0711
  363loPI   C3A 5801   4.637   3.936   8.967 -0.2371  0.0050 -0.2469
  363loPI   C4A 5802   4.675   3.931   8.527 -0.0845  0.2727  0.0650
  363loPI   C5A 5803   4.615   4.003   8.100  0.0896  0.0788  0.5068
  363loPI   C6A 5804   4.400   4.009   7.660 -0.1043 -0.2970 -0.0573
  363loPI   C1B 5805   4.408   4.454   9.422 -0.5071  0.1817  0.2363
  363loPI   C2B 5806   4.430   4.369   8.889  0.1088 -0.1234  0.0012
  363loPI   C3B 5807   4.401   4.392   8.491 -0.1523 -0.0267  0.0520
  363loPI   C4B 5808   4.512   4.521   8.145 -0.1373  0.0556  0.0138
  364loPI    C1 5809   5.770  11.794  10.585 -0.0387 -0.0216 -0.0454
  364loPI    C2 5810   5.558  11.990  10.862  0.0832 -0.2326  0.2018
  364loPI    C3 5811   5.398  11.675  10.673 -0.0894  0.0575 -0.1495
  364loPI   PO4 5812   5.858  11.961  10.448  0.2036 -0.0599  0.4805
  364loPI   GL1 5813   5.812  12.213  10.028 -0.0225 -0.2440 -0.0035
  364loPI   GL2 5814   5.733  11.869   9.823  0.2854 -0.0062 -0.0362
  364loPI   C1A 5815   5.943  12.253   9.572 -0.0057 -0.0721  0.0780
  364loPI   C2A 5816   6.032  12.251   9.167  0.3010 -0.1819 -0.0864
  364loPI   C3A 5817   5.961  12.408   8.788 -0.2742 -0.0465 -0.3208
  364loPI   C4A 5818   5.953  12.487   8.368  0.0111  0.1477 -0.2663
  364loPI   C5A 5819   6.065  12.390   7.988 -0.0549  0.0378  0.1102
  364loPI   C6A 5820   6.114  11.988   7.853  0.4363 -0.1962 -0.0335
  364loPI   C1B 5821   5.703  11.713   9.406  0.1025 -0.3737 -0.1048
  364loPI   C2B 5822   5.703  11.837   8.931 -0.2616 -0.0617  0.1567
  364loPI   C3B 5823   5.703  11.994   8.560 -0.0675 -0.0871  0.2021
  364loPI   C4B 5824   5.644  12.096   8.184  0.1696 -0.1365 -0.0334
  365loPI    C1 5825  12.845  15.624  11.112  0.1300  0.2159 -0.1373
  365loPI    C2 5826  12.859  15.846  11.445 -0.1222  0.0357 -0.0030
  365loPI    C3 5827  12.932  15.453  11.464  0.2261  0.0862 -0.2232
  365loPI   PO4 5828  12.882  15.650  10.934 -0.2471 -0.1752  0.0493
  365loPI   GL1 5829  12.610  15.690  10.592  0.1383 -0.0631 -0.2211
  365loPI   GL2 5830  12.795  15.926  10.423 -0.1900 -0.1781  0.1496
  365loPI   C1A 5831  12.427  15.533  10.208  0.4750  0.0885  0.1397
  365loPI   C2A 5832  12.458  15.691   9.731  0.1051  0.0458 -0.3768
  365loPI   C3A 5833  12.350  15.621   9.300  0.2076  0.0747 -0.0032
  365loPI   C4A 5834  12.444  15.498   8.925  0.1425  0.1306 -0.1957
  365loPI   C5A 5835  12.324  15.162   8.676  0.0771 -0.0858  0.1467
  365loPI   C6A 5836  11.981  14.986   8.634 -0.0946 -0.0411 -0.1187
  365loPI   C1B 5837  12.702  16.035  10.088  0.0221 -0.1057 -0.2093
  365loPI   C2B 5838  12.747  16.081   9.646  0.0573 -0.0302 -0.3517
  365loPI   C3B 5839  12.758  16.021   9.166 -0.4256 -0.3123 -0.3795
  365loPI   C4B 5840  12.675  15.957   8.724  0.0880 -0.1079 -0.2079
  366loPI    C1 5841   6.845   6.929  10.841  0.1580 -0.0018 -0.0463
  366loPI    C2 5842   7.031   7.168  11.102  0.0946 -0.0637  0.0563
  366loPI    C3 5843   6.632   7.166  11.082  0.0990 -0.0630 -0.0380
  366loPI   PO4 5844   6.984   6.971  10.633 -0.0108 -0.0568 -0.1206
  366loPI   GL1 5845   7.134   6.937  10.245 -0.2001  0.2459 -0.1093
  366loPI   GL2 5846   7.070   7.198   9.895 -0.1997  0.0675 -0.0259
  366loPI   C1A 5847   7.243   6.711   9.868  0.1295 -0.1164 -0.0586
  366loPI   C2A 5848   7.381   6.629   9.510  0.0074  0.1288  0.0027
  366loPI   C3A 5849   7.302   6.518   9.081  0.0005  0.2908 -0.2206
  366loPI   C4A 5850   7.407   6.482   8.655  0.2503 -0.1542  0.0319
  366loPI   C5A 5851   7.194   6.430   8.211 -0.2164 -0.0236  0.0502
  366loPI   C6A 5852   6.962   6.088   7.940  0.0918 -0.0696 -0.1848
  366loPI   C1B 5853   7.043   7.016   9.472 -0.0640  0.2436 -0.0001
  366loPI   C2B 5854   7.165   7.073   9.023  0.3669  0.0970  0.2794
  366loPI   C3B 5855   7.107   7.062   8.617  0.1418 -0.2925 -0.1395
  366loPI   C4B 5856   7.095   6.917   8.158  0.1702  0.0194 -0.1202
  367loPI    C1 5857  15.404  15.393  11.030  0.1380 -0.0480 -0.0828
  367loPI    C2 5858  15.401  15.032  11.202  0.1660 -0.0488 -0.0839
  367loPI    C3 5859  15.077  15.266  11.221  0.1239 -0.1015 -0.1423
  367loPI   PO4 5860  15.466  15.328  10.762  0.2713  0.2718 -0.1565
  367loPI   GL1 5861  15.263  15.466  10.435 -0.0201 -0.1030 -0.2667
  367loPI   GL2 5862  15.093  15.608  10.304  0.2729 -0.1857 -0.0716
  367loPI   C1A 5863  15.281  15.115  10.110 -0.2679 -0.0568  0.1916
  367loPI   C2A 5864  15.220  15.073   9.623  0.1514 -0.0590 -0.0842
  367loPI   C3A 5865  15.373  15.057   9.256  0.1075  0.0004  0.0547
  367loPI   C4A 5866  15.321  15.086   8.839 -0.3303  0.2270  0.2245
  367loPI   C5A 5867  15.344  15.009   8.468 -0.0341 -0.0462 -0.2085
  367loPI   C6A 5868  15.466  14.563   8.280  0.1494  0.1312 -0.1487
  367loPI   C1B 5869  15.067  15.515   9.879  0.1935  0.0828 -0.1082
  367loPI   C2B 5870  15.021  15.515   9.475 -0.2533 -0.1851  0.1299
  367loPI   C3B 5871  15.145  15.511   9.108  0.2141 -0.0476 -0.0184
  367loPI   C4B 5872  15.158  15.529   8.707 -0.0297 -0.0220 -0.0829
  368loPI    C1 5873   9.697   3.718  11.570  0.0198 -0.0524  0.1145
  368loPI    C2 5874   9.607   3.399  11.346 -0.0118  0.1105 -0.1090
  368loPI    C3 5875   9.910   3.382  11.607  0.0812 -0.0545 -0.2260
  368loPI   PO4 5876   9.752   3.933  11.380 -0.0811  0.0993  0.0238
  368loPI   GL1 5877   9.842   3.984  10.887 -0.0288 -0.1055  0.1211
  368loPI   GL2 5878  10.067   4.248  10.655  0.2562 -0.2987 -0.2444
  368loPI   C1A 5879   9.936   3.756  10.507 -0.1347 -0.0126 -0.0668
  368loPI   C2A 5880   9.758   3.803  10.084 -0.2301  0.3365 -0.1350
  368loPI   C3A 5881   9.760   3.822   9.584  0.1273 -0.1545 -0.0786
  368loPI   C4A 5882   9.816   3.781   9.164 -0.2824  0.6140 -0.2232
  368loPI   C5A 5883  10.091   3.825   8.726 -0.0980  0.2534 -0.0315
  368loPI   C6A 5884  10.395   3.985   8.539 -0.0690  0.2004  0.3327
  368loPI   C1B 5885  10.104   4.184  10.195 -0.4093  0.1956  0.2408
  368loPI   C2B 5886  10.073   4.237   9.825  0.2625  0.0342 -0.0128
  368loPI   C3B 5887  10.069   4.224   9.425  0.4259 -0.1472  0.3207
  368loPI   C4B 5888  10.185   4.272   8.946 -0.1089 -0.0031 -0.1089
  369loPI    C1 5889   7.451   5.186  10.967 -0.1104 -0.0770  0.1746
  369loPI    C2 5890   7.254   5.490  11.137 -0.1159 -0.0322  0.0884
  369loPI    C3 5891   7.483   5.250  11.361 -0.0878  0.0534  0.1520
  369loPI   PO4 5892   7.546   5.247  10.760 -0.1902  0.0806 -0.0701
  369loPI   GL1 5893   7.485   5.371  10.400  0.2286  0.1657  0.3632
  369loPI   GL2 5894   7.270   5.591  10.254  0.1148  0.0132  0.2046
  369loPI   C1A 5895   7.559   5.316   9.928  0.2251  0.0714  0.2183
  369loPI   C2A 5896   7.494   5.290   9.483  0.0978 -0.0150 -0.0124
  369loPI   C3A 5897   7.587   5.269   9.134  0.0447 -0.0645 -0.0252
  369loPI   C4A 5898   7.598   5.178   8.731  0.0645  0.0043  0.2045
  369loPI   C5A 5899   7.843   5.025   8.475  0.2474 -0.0865  0.1828
  369loPI   C6A 5900   7.979   4.650   8.316  0.0598 -0.0633  0.1487
  369loPI   C1B 5901   7.434   5.786   9.817 -0.0524 -0.0811  0.0590
  369loPI   C2B 5902   7.316   5.707   9.277 -0.0766 -0.0228 -0.0577
  369loPI   C3B 5903   7.360   5.659   8.837 -0.1527  0.0613 -0.1642
  369loPI   C4B 5904   7.265   5.482   8.394  0.2364 -0.2644  0.0251
  370loPI    C1 5905  17.530   2.913  10.681 -0.0489 -0.1285  0.1180
  370loPI    C2 5906  17.167   3.035  10.798 -0.0843 -0.2454  0.1314
  370loPI    C3 5907  17.282   2.657  10.863 -0.0642 -0.2836 -0.1160
  370loPI   PO4 5908  17.559   3.065  10.412 -0.1661  0.0354  0.2944
  370loPI   GL1 5909  17.672   2.991  10.086 -0.0406  0.0964  0.1141
  370loPI   GL2 5910  17.466   2.877  10.010 -0.1716 -0.2896  0.3037
  370loPI   C1A 5911  17.986   2.845   9.908 -0.0025  0.2399  0.2668
  370loPI   C2A 5912  17.971   2.887   9.495  0.0460 -0.0849  0.5088
  370loPI   C3A 5913  18.003   2.893   9.077  0.1916  0.0135 -0.1736
  370loPI   C4A 5914  18.034   2.883   8.686  0.0564 -0.0079  0.0652
  370loPI   C5A 5915  18.070   2.935   8.278 -0.4133  0.4865 -0.1384
  370loPI   C6A 5916  18.459   3.001   7.991 -0.0865 -0.2834  0.1900
  370loPI   C1B 5917  17.460   2.944   9.548 -0.1457 -0.0718 -0.1983
  370loPI   C2B 5918  17.502   2.953   9.148 -0.0225  0.2487  0.5206
  370loPI   C3B 5919  17.480   2.950   8.751 -0.0808 -0.0742 -0.0297
  370loPI   C4B 5920  17.609   2.951   8.358  0.1830 -0.0787  0.2086
  371loPI    C1 5921   6.782   7.471  10.587 -0.0208  0.1663 -0.0369
  371loPI    C2 5922   6.548   7.774  10.704  0.0824  0.1598  0.1923
  371loPI    C3 5923   6.850   7.653  10.938  0.0558 -0.1057  0.0919
  371loPI   PO4 5924   6.902   7.500  10.330  0.0781 -0.2441 -0.1654
  371loPI   GL1 5925   7.046   7.709   9.983 -0.1047 -0.0534 -0.2265
  371loPI   GL2 5926   6.748   7.629   9.884 -0.1402 -0.1379 -0.0529
  371loPI   C1A 5927   7.342   7.667   9.783 -0.3183  0.0726  0.1415
  371loPI   C2A 5928   7.298   7.514   9.424 -0.1983 -0.1101 -0.0173
  371loPI   C3A 5929   7.409   7.479   8.953 -0.2679  0.0228 -0.1119
  371loPI   C4A 5930   7.420   7.534   8.453  0.0294  0.3052 -0.0774
  371loPI   C5A 5931   7.370   7.320   8.099 -0.3334  0.0787  0.2343
  371loPI   C6A 5932   7.551   7.005   7.919  0.0184 -0.0358  0.0301
  371loPI   C1B 5933   6.831   7.444   9.525 -0.2220 -0.0899  0.3270
  371loPI   C2B 5934   6.926   7.475   9.110  0.3612 -0.1928  0.0596
  371loPI   C3B 5935   6.914   7.564   8.684  0.0703  0.1222  0.1447
  371loPI   C4B 5936   6.808   7.354   8.328  0.3045 -0.0220 -0.1363
  372loPI    C1 5937  16.917  13.640  11.184 -0.0706 -0.1037  0.0872
  372loPI    C2 5938  16.970  13.262  11.303  0.1125 -0.1273 -0.0641
  372loPI    C3 5939  17.272  13.524  11.328  0.0243 -0.0235 -0.0783
  372loPI   PO4 5940  16.779  13.666  11.054  0.1084  0.0603  0.2771
  372loPI   GL1 5941  16.916  13.786  10.683 -0.1979  0.2746  0.0942
  372loPI   GL2 5942  16.747  14.031  10.651 -0.0494  0.2047  0.1069
  372loPI   C1A 5943  17.026  13.535  10.395  0.0049 -0.1269  0.2685
  372loPI   C2A 5944  17.136  13.573   9.971  0.0224 -0.3539  0.0039
  372loPI   C3A 5945  17.080  13.526   9.528  0.0193 -0.3860  0.0294
  372loPI   C4A 5946  17.119  13.574   9.080  0.0192 -0.2672  0.0136
  372loPI   C5A 5947  17.162  13.649   8.645  0.2093 -0.0562  0.0043
  372loPI   C6A 5948  17.171  13.812   8.292 -0.2055  0.0229  0.0695
  372loPI   C1B 5949  16.794  14.009  10.169  0.2098  0.0435 -0.0085
  372loPI   C2B 5950  16.925  13.967   9.780  0.3187  0.1990 -0.0108
  372loPI   C3B 5951  16.909  13.994   9.329  0.2759 -0.0673 -0.0266
  372loPI   C4B 5952  16.865  14.019   8.910 -0.1291 -0.1506  0.1305
  373loPI    C1 5953   0.219   6.668  10.426 -0.0510  0.1987 -0.0503
  373loPI    C2 5954   0.420   6.502  10.730  0.1058  0.0256 -0.2452
  373loPI    C3 5955   0.363   6.898  10.720  0.4677  0.0820 -0.2026
  373loPI   PO4 5956   0.013   6.540  10.420 -0.0601 -0.2581 -0.0169
  373loPI   GL1 5957  -0.005   6.302  10.000  0.0115  0.1950  0.4176
  373loPI   GL2 5958  -0.201   6.126   9.874 -0.0787  0.5941 -0.0114
  373loPI   C1A 5959   0.229   6.517   9.741 -0.1551 -0.1759  0.1835
  373loPI   C2A 5960   0.215   6.520   9.381  0.3005 -0.3605  0.1561
  373loPI   C3A 5961   0.102   6.654   9.102  0.1420  0.1078  0.3948
  373loPI   C4A 5962   0.109   6.539   8.744  0.1263 -0.1588  0.0547
  373loPI   C5A 5963  -0.066   6.506   8.484 -0.3516  0.0982 -0.0408
  373loPI   C6A 5964   0.127   6.613   8.114 -0.0151 -0.0440  0.0192
  373loPI   C1B 5965  -0.157   6.126   9.446  0.0872 -0.0361  0.0826
  373loPI   C2B 5966  -0.084   6.154   9.078  0.0040 -0.0121  0.2905
  373loPI   C3B 5967  -0.261   6.136   8.736  0.1603 -0.2601  0.0978
  373loPI   C4B 5968  -0.359   6.169   8.284 -0.0401 -0.0505  0.0184
  374loPI    C1 5969  14.581  12.269  11.009 -0.0970  0.0986  0.1003
  374loPI    C2 5970  14.586  11.893  11.146  0.4625  0.1070  0.1244
  374loPI    C3 5971  14.489  12.194  11.391 -0.2080 -0.0328  0.0485
  374loPI   PO4 5972  14.452  12.273  10.842 -0.1274 -0.1858 -0.2369
  374loPI   GL1 5973  14.466  12.330  10.439 -0.1025  0.0397 -0.1516
  374loPI   GL2 5974  14.187  12.368  10.251  0.0741 -0.5002 -0.1427
  374loPI   C1A 5975  14.565  12.394   9.951 -0.0306 -0.2109 -0.5287
  374loPI   C2A 5976  14.694  12.265   9.585  0.1437 -0.0122  0.1042
  374loPI   C3A 5977  14.656  12.256   9.105  0.0530  0.0991 -0.1466
  374loPI   C4A 5978  14.693  12.374   8.683  0.0016 -0.0320 -0.1894
  374loPI   C5A 5979  14.445  12.444   8.236  0.1870 -0.0850  0.1321
  374loPI   C6A 5980  14.455  12.654   7.907  0.0090 -0.0362 -0.0048
  374loPI   C1B 5981  14.075  12.377   9.917  0.0707 -0.0871  0.0285
  374loPI   C2B 5982  14.078  12.413   9.533  0.3076  0.0594  0.0289
  374loPI   C3B 5983  14.104  12.347   9.076 -0.0972 -0.3024 -0.0337
  374loPI   C4B 5984  14.214  12.337   8.707 -0.0860 -0.1087  0.0290
  375loPI    C1 5985   8.000   5.262  10.989  0.0449  0.1186  0.1384
  375loPI    C2 5986   7.990   5.297  11.387 -0.4096  0.1796  0.1259
  375loPI    C3 5987   7.862   4.961  11.212  0.2341 -0.0373  0.0478
  375loPI   PO4 5988   7.947   5.494  10.886  0.2455 -0.3223 -0.1314
  375loPI   GL1 5989   8.199   5.688  10.533 -0.1106  0.1144  0.1036
  375loPI   GL2 5990   7.935   5.591  10.312  0.1864 -0.3925  0.0343
  375loPI   C1A 5991   8.380   5.633  10.171 -0.0199 -0.0095  0.1423
  375loPI   C2A 5992   8.421   5.627   9.737 -0.2636 -0.3478 -0.0922
  375loPI   C3A 5993   8.332   5.685   9.312 -0.1934 -0.0490 -0.4840
  375loPI   C4A 5994   8.318   5.729   8.921  0.0112  0.0140 -0.3410
  375loPI   C5A 5995   8.443   5.624   8.514  0.0321  0.0309  0.0716
  375loPI   C6A 5996   8.640   5.455   8.214 -0.2061  0.1107 -0.0866
  375loPI   C1B 5997   7.907   5.667   9.832  0.3238  0.1017  0.3917
  375loPI   C2B 5998   7.798   5.727   9.329  0.3087 -0.0306 -0.1688
  375loPI   C3B 5999   7.845   5.654   8.923 -0.0766 -0.0256  0.1251
  375loPI   C4B 6000   7.932   5.540   8.525  0.0502 -0.1320 -0.1440
  376loPI    C1 6001   9.096  11.005  10.771 -0.0700  0.2711 -0.0497
  376loPI    C2 6002   9.450  10.827  10.715 -0.2811 -0.1367 -0.1274
  376loPI    C3 6003   9.308  10.880  11.086 -0.1315  0.0472 -0.0951
  376loPI   PO4 6004   9.082  11.263  10.539 -0.0831  0.4159  0.0817
  376loPI   GL1 6005   8.962  11.404  10.162  0.0353 -0.2079  0.0897
  376loPI   GL2 6006   8.906  11.133  10.071 -0.2492  0.0904  0.0270
  376loPI   C1A 6007   9.000  11.527   9.808 -0.1641 -0.1699  0.2304
  376loPI   C2A 6008   9.067  11.533   9.422 -0.2651 -0.2250 -0.0345
  376loPI   C3A 6009   9.300  11.631   9.067 -0.1824  0.4105 -0.0234
  376loPI   C4A 6010   9.335  11.741   8.683 -0.0088 -0.1331 -0.3883
  376loPI   C5A 6011   9.514  11.919   8.401 -0.0113  0.1841 -0.0023
  376loPI   C6A 6012   9.877  12.060   8.120  0.1465 -0.1701  0.0304
  376loPI   C1B 6013   9.014  11.083   9.582 -0.1834  0.2172 -0.0733
  376loPI   C2B 6014   9.079  11.178   9.065 -0.1476  0.1048  0.2339
  376loPI   C3B 6015   9.178  11.124   8.540  0.1357  0.2213  0.1179
  376loPI   C4B 6016   9.441  11.371   8.318 -0.0792  0.2645 -0.1549
  377loPI    C1 6017  14.882   7.546  11.102  0.0204  0.0497 -0.0686
  377loPI    C2 6018  15.088   7.265  11.297 -0.0828  0.2137  0.2856
  377loPI    C3 6019  14.711   7.346  11.403 -0.0522  0.4894  0.1905
  377loPI   PO4 6020  15.011   7.544  10.870  0.1804 -0.0482 -0.0235
  377loPI   GL1 6021  14.896   7.715  10.477 -0.0423 -0.0901  0.2969
  377loPI   GL2 6022  15.080   7.814  10.236  0.0330  0.0507  0.2515
  377loPI   C1A 6023  14.547   7.835  10.102 -0.0332 -0.4412  0.1303
  377loPI   C2A 6024  14.481   7.817   9.650  0.0745  0.1335 -0.2662
  377loPI   C3A 6025  14.429   7.759   9.202 -0.1158  0.2552 -0.1674
  377loPI   C4A 6026  14.479   7.600   8.759 -0.2207 -0.0750 -0.1120
  377loPI   C5A 6027  14.635   7.462   8.437  0.2836  0.3849  0.0298
  377loPI   C6A 6028  14.258   7.505   8.175 -0.0266  0.0490 -0.2258
  377loPI   C1B 6029  14.976   7.746   9.806  0.2358  0.0536 -0.2676
  377loPI   C2B 6030  15.076   7.748   9.398 -0.2169 -0.2075  0.0984
  377loPI   C3B 6031  14.955   7.658   9.033  0.1564  0.1622  0.0919
  377loPI   C4B 6032  15.052   7.463   8.623 -0.0037  0.2846  0.0276
  378loPI    C1 6033  17.780  16.276  11.052 -0.1791  0.1682  0.1323
  378loPI    C2 6034  17.448  16.406  11.234  0.0006  0.7535  0.0625
  378loPI    C3 6035  17.787  16.363  11.442 -0.1105  0.1445  0.1364
  378loPI   PO4 6036  17.760  16.459  10.812  0.1304  0.1368 -0.2257
  378loPI   GL1 6037  17.641  16.563  10.418  0.0898 -0.0353  0.1541
  378loPI   GL2 6038  17.990  16.499  10.359 -0.2795  0.0341  0.0754
  378loPI   C1A 6039  17.348  16.653  10.066  0.1229 -0.1347  0.0069
  378loPI   C2A 6040  17.469  16.686   9.666  0.0918  0.0107  0.0132
  378loPI   C3A 6041  17.517  16.706   9.276 -0.1577  0.0612 -0.1618
  378loPI   C4A 6042  17.619  16.760   8.923 -0.0331  0.2864 -0.2632
  378loPI   C5A 6043  17.646  16.801   8.453 -0.2310  0.1584 -0.1898
  378loPI   C6A 6044  17.436  16.657   8.114 -0.0582 -0.2074 -0.1878
  378loPI   C1B 6045  17.908  16.727   9.960 -0.1203 -0.2726  0.0269
  378loPI   C2B 6046  17.939  16.751   9.539 -0.0550  0.0019 -0.2103
  378loPI   C3B 6047  18.096  16.725   9.106  0.2294  0.0920 -0.2809
  378loPI   C4B 6048  18.073  16.759   8.690  0.2435  0.4498 -0.1636
  379loPI    C1 6049   6.153   0.552  11.085  0.0717 -0.0496 -0.2019
  379loPI    C2 6050   5.760   0.604  11.029  0.0895  0.0402 -0.2449
  379loPI    C3 6051   5.893   0.282  11.225 -0.0182  0.1163 -0.0437
  379loPI   PO4 6052   6.305   0.582  10.797 -0.2361 -0.4781 -0.0361
  379loPI   GL1 6053   6.443   0.596  10.416  0.0948  0.0412 -0.5174
  379loPI   GL2 6054   6.703   0.871  10.361 -0.1275 -0.1403  0.1122
  379loPI   C1A 6055   6.440   0.382  10.029  0.0205 -0.2321 -0.0279
  379loPI   C2A 6056   6.513   0.314   9.560  0.1273  0.2239 -0.1303
  379loPI   C3A 6057   6.521   0.401   9.117 -0.0130  0.1380 -0.1167
  379loPI   C4A 6058   6.643   0.472   8.689 -0.2328 -0.0294  0.0944
  379loPI   C5A 6059   6.679   0.555   8.233 -0.2163 -0.2872 -0.2429
  379loPI   C6A 6060   6.913   0.884   7.936 -0.0438  0.0806 -0.3931
  379loPI   C1B 6061   6.758   0.872   9.899  0.3096 -0.0733  0.3626
  379loPI   C2B 6062   6.819   0.756   9.502  0.1757  0.3098  0.0215
  379loPI   C3B 6063   6.842   0.790   9.096  0.2315  0.2716 -0.2631
  379loPI   C4B 6064   7.054   0.735   8.736 -0.2255 -0.2469  0.3000
  380loPI    C1 6065   6.022   1.644  10.945  0.2098  0.0375 -0.2253
  380loPI    C2 6066   6.206   1.354  11.151 -0.1441 -0.0343 -0.0008
  380loPI    C3 6067   6.128   1.705  11.326 -0.0514  0.0644 -0.1551
  380loPI   PO4 6068   6.105   1.522  10.692  0.2358  0.2352 -0.1148
  380loPI   GL1 6069   5.930   1.346  10.279  0.0423 -0.2624 -0.1861
  380loPI   GL2 6070   6.113   1.033  10.423 -0.1264 -0.1584  0.0076
  380loPI   C1A 6071   6.000   1.278   9.847  0.1564 -0.4570 -0.2949
  380loPI   C2A 6072   6.056   1.204   9.459 -0.1916  0.0609  0.1019
  380loPI   C3A 6073   6.048   1.278   9.008 -0.1181 -0.1521 -0.1383
  380loPI   C4A 6074   6.134   1.172   8.604 -0.1761  0.1344 -0.1239
  380loPI   C5A 6075   6.093   0.935   8.213  0.1279 -0.0141  0.0641
  380loPI   C6A 6076   6.291   0.674   7.865  0.0268 -0.1463 -0.1057
  380loPI   C1B 6077   6.196   0.805  10.058 -0.1076  0.0448  0.2197
  380loPI   C2B 6078   6.325   0.766   9.617  0.2228 -0.0173  0.0654
  380loPI   C3B 6079   6.299   0.882   9.189 -0.1579  0.1384  0.0368
  380loPI   C4B 6080   6.247   0.728   8.732 -0.0510 -0.0666  0.0212
  381loPI    C1 6081   3.973   0.147  10.687  0.0720 -0.2305 -0.0574
  381loPI    C2 6082   4.305   0.263  10.877 -0.0113 -0.0190 -0.0386
  381loPI    C3 6083   3.974   0.182  11.086 -0.0398  0.0007 -0.0761
  381loPI   PO4 6084   4.053   0.025  10.406 -0.2000 -0.1686  0.0949
  381loPI   GL1 6085   4.326   0.028  10.068  0.0447  0.4739 -0.1864
  381loPI   GL2 6086   4.508   0.384   9.959  0.4774 -0.0100  0.0104
  381loPI   C1A 6087   4.091   0.019   9.655 -0.3072  0.0474 -0.5348
  381loPI   C2A 6088   4.146  -0.010   9.212  0.1229  0.0485 -0.1121
  381loPI   C3A 6089   4.198  -0.032   8.815  0.2477  0.0127 -0.1136
  381loPI   C4A 6090   4.110   0.020   8.357  0.0562  0.0977  0.1890
  381loPI   C5A 6091   4.190  -0.250   8.075  0.1192 -0.0964  0.1024
  381loPI   C6A 6092   4.409  -0.147   7.668  0.0895  0.2185 -0.1845
  381loPI   C1B 6093   4.406   0.386   9.546  0.4502 -0.1105 -0.2489
  381loPI   C2B 6094   4.401   0.398   9.147  0.1232 -0.0868  0.1471
  381loPI   C3B 6095   4.467   0.317   8.589 -0.2049  0.1030  0.4162
  381loPI   C4B 6096   4.410   0.368   8.210  0.2067 -0.1464  0.0982
  382loPI    C1 6097   7.879   6.656  10.821 -0.0544  0.2916  0.0480
  382loPI    C2 6098   8.137   6.574  11.116 -0.0385  0.1847  0.0049
  382loPI    C3 6099   7.774   6.718  11.202 -0.1573 -0.1625  0.0993
  382loPI   PO4 6100   7.977   6.765  10.645 -0.2636 -0.0939  0.3859
  382loPI   GL1 6101   8.122   6.710  10.269  0.3342 -0.1739  0.0060
  382loPI   GL2 6102   8.245   6.897  10.143  0.1210 -0.3010  0.0635
  382loPI   C1A 6103   7.771   6.664   9.927 -0.1008 -0.1403  0.1950
  382loPI   C2A 6104   7.847   6.581   9.496  0.0165 -0.1051  0.4205
  382loPI   C3A 6105   7.838   6.554   9.066 -0.1279 -0.1779  0.2666
  382loPI   C4A 6106   7.871   6.538   8.537  0.2329  0.3710 -0.0730
  382loPI   C5A 6107   7.660   6.534   8.066  0.0509  0.0141  0.0531
  382loPI   C6A 6108   7.712   6.598   7.611  0.1821 -0.1305 -0.0187
  382loPI   C1B 6109   8.298   6.561   9.791  0.1992  0.1275  0.3064
  382loPI   C2B 6110   8.427   6.499   9.275 -0.1873  0.2298 -0.1961
  382loPI   C3B 6111   8.315   6.596   8.951  0.2386 -0.1018 -0.0884
  382loPI   C4B 6112   8.385   6.474   8.604 -0.0893 -0.1359  0.0040
  383loPI    C1 6113   5.662  16.933  10.602 -0.0639 -0.0371 -0.1305
  383loPI    C2 6114   5.464  16.774  10.911  0.1849  0.0364  0.0705
  383loPI    C3 6115   5.721  17.075  10.971  0.0595  0.2113 -0.2427
  383loPI   PO4 6116   5.467  17.056  10.431 -0.0553 -0.0716 -0.0709
  383loPI   GL1 6117   5.438  17.077  10.053  0.1482  0.0317 -0.0232
  383loPI   GL2 6118   5.579  17.373  10.003 -0.1803 -0.0149 -0.1933
  383loPI   C1A 6119   5.356  17.326   9.598 -0.0985 -0.2260  0.0585
  383loPI   C2A 6120   5.435  17.345   9.097 -0.3255  0.2924 -0.3385
  383loPI   C3A 6121   5.497  17.410   8.759 -0.2152  0.2417  0.0302
  383loPI   C4A 6122   5.444  17.474   8.325  0.2890 -0.3634  0.1151
  383loPI   C5A 6123   5.778  17.593   8.002  0.2000 -0.2867 -0.0217
  383loPI   C6A 6124   6.212  17.589   8.046  0.4388 -0.0868  0.0234
  383loPI   C1B 6125   5.738  17.064   9.699 -0.1815  0.3012 -0.2462
  383loPI   C2B 6126   5.593  16.895   9.365  0.0375 -0.5015  0.1214
  383loPI   C3B 6127   5.704  16.925   8.970 -0.0218 -0.1639 -0.2024
  383loPI   C4B 6128   5.783  17.077   8.551  0.1229 -0.2135  0.0481
  384loPI    C1 6129   7.366  10.976  10.645  0.0533  0.0919  0.0962
  384loPI    C2 6130   7.333  11.327  10.834 -0.2497  0.0948  0.0428
  384loPI    C3 6131   7.137  11.006  10.971 -0.0640 -0.0272  0.0261
  384loPI   PO4 6132   7.685  10.944  10.614  0.1394 -0.1562  0.0874
  384loPI   GL1 6133   7.798  10.944  10.287  0.0273  0.0256 -0.0449
  384loPI   GL2 6134   7.509  10.803  10.105 -0.1163  0.0213 -0.2186
  384loPI   C1A 6135   7.872  11.066   9.844  0.1760  0.0130 -0.1362
  384loPI   C2A 6136   7.959  11.136   9.414 -0.1111 -0.0042  0.1623
  384loPI   C3A 6137   8.055  11.282   8.990  0.1156 -0.1726  0.0081
  384loPI   C4A 6138   7.983  11.210   8.549 -0.1532 -0.2856 -0.4378
  384loPI   C5A 6139   8.225  11.258   8.163  0.2811  0.2417  0.2768
  384loPI   C6A 6140   8.444  11.089   7.774 -0.2350  0.0010  0.0068
  384loPI   C1B 6141   7.615  10.710   9.610 -0.4520  0.1071  0.0498
  384loPI   C2B 6142   7.751  10.621   9.246 -0.3185 -0.0584  0.1047
  384loPI   C3B 6143   7.776  10.681   8.808 -0.1786  0.0326 -0.0775
  384loPI   C4B 6144   7.722  10.784   8.358  0.0728  0.0961  0.4382
  385loPI    C1 6145   6.687   9.673  10.216  0.1023  0.1569  0.1379
  385loPI    C2 6146   6.655   9.365  10.470 -0.0001  0.2063  0.1858
  385loPI    C3 6147   6.783   9.303  10.096 -0.0558  0.1002  0.1837
  385loPI   PO4 6148   6.548   9.834  10.274 -0.3093 -0.1712  0.2866
  385loPI   GL1 6149   6.479  10.144   9.943  0.0171  0.2474  0.0513
  385loPI   GL2 6150   6.211  10.004   9.885 -0.0943 -0.3321  0.1630
  385loPI   C1A 6151   6.693  10.112   9.608 -0.1501  0.1294 -0.0615
  385loPI   C2A 6152   6.856  10.176   9.178  0.2362 -0.0795 -0.0723
  385loPI   C3A 6153   6.991  10.249   8.785 -0.0070  0.0837  0.0439
  385loPI   C4A 6154   7.089  10.135   8.346  0.1865 -0.1367 -0.0785
  385loPI   C5A 6155   7.304  10.015   8.168  0.0738  0.0511  0.2570
  385loPI   C6A 6156   7.486   9.824   7.791 -0.3156 -0.0336  0.1792
  385loPI   C1B 6157   6.254   9.898   9.487 -0.0222 -0.2685  0.0231
  385loPI   C2B 6158   6.495   9.849   9.155 -0.1618  0.0088 -0.2731
  385loPI   C3B 6159   6.704   9.814   8.801  0.0079  0.0575 -0.1356
  385loPI   C4B 6160   6.803   9.713   8.414  0.1050  0.0875  0.2230
  386loPI    C1 6161  16.579   4.222  10.596 -0.1032 -0.4063 -0.1449
  386loPI    C2 6162  16.615   4.516  10.864 -0.1997 -0.1201 -0.4402
  386loPI    C3 6163  16.410   4.186  10.957 -0.2523 -0.0146 -0.1709
  386loPI   PO4 6164  16.480   4.343  10.362  0.0510 -0.0400  0.1768
  386loPI   GL1 6165  16.561   4.461  10.025 -0.0469  0.3048 -0.0412
  386loPI   GL2 6166  16.261   4.443   9.814  0.2148 -0.0407  0.0922
  386loPI   C1A 6167  16.749   4.410   9.657 -0.0643  0.1641  0.0528
  386loPI   C2A 6168  16.667   4.421   9.158  0.2168  0.0773 -0.0445
  386loPI   C3A 6169  16.656   4.204   8.798  0.1069 -0.0813 -0.0608
  386loPI   C4A 6170  16.721   4.306   8.404 -0.0159  0.0063  0.0742
  386loPI   C5A 6171  17.098   4.439   8.133  0.1298 -0.1966 -0.1754
  386loPI   C6A 6172  17.194   4.246   7.691  0.1116  0.2307  0.0609
  386loPI   C1B 6173  16.135   4.386   9.458 -0.2502 -0.0375 -0.1688
  386loPI   C2B 6174  16.148   4.392   9.084  0.0765 -0.2511 -0.2057
  386loPI   C3B 6175  16.196   4.416   8.624  0.1203  0.2178 -0.2385
  386loPI   C4B 6176  16.202   4.265   8.297 -0.0769  0.0084 -0.0077
  387loPI    C1 6177  10.851  15.224  11.299 -0.0271  0.0564 -0.0389
  387loPI    C2 6178  10.495  15.287  11.470  0.1710  0.0438  0.3908
  387loPI    C3 6179  10.732  14.994  11.604  0.2255 -0.1369 -0.0831
  387loPI   PO4 6180  10.765  15.196  11.025 -0.0005 -0.3298  0.0845
  387loPI   GL1 6181  10.735  15.209  10.664  0.0376 -0.1169  0.3078
  387loPI   GL2 6182  11.053  15.358  10.572  0.5425 -0.1742  0.0431
  387loPI   C1A 6183  10.418  15.229  10.273 -0.4123  0.0336  0.3979
  387loPI   C2A 6184  10.517  15.169   9.773  0.0960  0.0194  0.0919
  387loPI   C3A 6185  10.439  15.308   9.399 -0.3280 -0.2969  0.1918
  387loPI   C4A 6186  10.628  15.342   9.114  0.2886  0.1292 -0.0209
  387loPI   C5A 6187  10.855  15.152   8.721 -0.3784  0.2175 -0.3619
  387loPI   C6A 6188  11.176  15.480   8.457 -0.0641 -0.3550  0.2379
  387loPI   C1B 6189  10.993  15.146  10.228 -0.2504  0.1968  0.1393
  387loPI   C2B 6190  11.000  15.213   9.772 -0.3117 -0.0504 -0.0746
  387loPI   C3B 6191  11.024  15.221   9.361  0.0083  0.2273 -0.2139
  387loPI   C4B 6192  11.209  15.204   9.060  0.0870  0.1547 -0.1127
  388loPI    C1 6193  17.362   0.627  10.813 -0.2621  0.0741 -0.0746
  388loPI    C2 6194  17.437   0.291  11.016  0.2387  0.1147 -0.1801
  388loPI    C3 6195  17.380   0.635  11.213  0.1781  0.0529 -0.0890
  388loPI   PO4 6196  17.486   0.510  10.523  0.0855  0.0977 -0.3583
  388loPI   GL1 6197  17.694   0.509  10.184 -0.0206  0.2069  0.3133
  388loPI   GL2 6198  17.907   0.669  10.180 -0.0107 -0.1522  0.1297
  388loPI   C1A 6199  17.590   0.712   9.791  0.0705 -0.2707  0.0114
  388loPI   C2A 6200  17.590   0.772   9.479 -0.3124  0.3364  0.1781
  388loPI   C3A 6201  17.633   0.703   9.058 -0.0258 -0.0286  0.2186
  388loPI   C4A 6202  17.574   0.585   8.652 -0.2190  0.3006  0.0198
  388loPI   C5A 6203  17.348   0.748   8.300  0.3355  0.0951 -0.2142
  388loPI   C6A 6204  17.089   0.891   8.078  0.1844 -0.2794 -0.1984
  388loPI   C1B 6205  18.036   0.608   9.794  0.0534 -0.1172  0.0820
  388loPI   C2B 6206  18.148   0.491   9.420  0.1593  0.0388  0.3028
  388loPI   C3B 6207  18.240   0.543   9.035  0.0541  0.1347 -0.2028
  388loPI   C4B 6208  18.047   0.751   8.678 -0.0640  0.0331 -0.1408
  389loPI    C1 6209   5.388   6.395  10.187  0.0816 -0.0197  0.0990
  389loPI    C2 6210   5.682   6.344   9.921 -0.0062  0.1057 -0.0236
  389loPI    C3 6211   5.685   6.139  10.265  0.0535 -0.1355 -0.1648
  389loPI   PO4 6212   5.151   6.511  10.015 -0.1902  0.1418 -0.3540
  389loPI   GL1 6213   4.889   6.469   9.688  0.2312 -0.1339 -0.0617
  389loPI   GL2 6214   5.241   6.392   9.534 -0.2812 -0.3568 -0.0241
  389loPI   C1A 6215   4.812   6.390   9.334  0.2823  0.0425 -0.0093
  389loPI   C2A 6216   4.866   6.314   8.933 -0.3463 -0.0422 -0.0227
  389loPI   C3A 6217   4.969   6.219   8.578 -0.0279  0.0510  0.0754
  389loPI   C4A 6218   5.220   6.275   8.142 -0.1396 -0.0631  0.2117
  389loPI   C5A 6219   5.289   6.214   7.759  0.1174 -0.5549  0.2245
  389loPI   C6A 6220   5.243   5.851   7.622 -0.2021 -0.3868 -0.0664
  389loPI   C1B 6221   5.299   6.267   9.137  0.1076  0.0243  0.1942
  389loPI   C2B 6222   5.478   6.211   8.698  0.0821  0.0746 -0.0167
  389loPI   C3B 6223   5.599   6.007   8.339  0.1226 -0.0783 -0.0349
  389loPI   C4B 6224   5.520   5.765   8.034  0.1600 -0.0820  0.2023
  390loPI    C1 6225   5.078  16.493  10.502 -0.2620  0.1204 -0.0864
  390loPI    C2 6226   5.163  16.366  10.872  0.1135 -0.2027 -0.2763
  390loPI    C3 6227   5.200  16.117  10.561 -0.1594  0.0774 -0.5405
  390loPI   PO4 6228   4.811  16.599  10.430  0.0480  0.2834 -0.0747
  390loPI   GL1 6229   4.780  16.709  10.118 -0.0092  0.0665 -0.0430
  390loPI   GL2 6230   5.000  16.849  10.005  0.2484 -0.1378  0.3839
  390loPI   C1A 6231   4.794  16.463   9.731  0.0612  0.0296  0.0243
  390loPI   C2A 6232   4.857  16.418   9.279 -0.1015  0.0012  0.2683
  390loPI   C3A 6233   4.923  16.591   8.948  0.2613 -0.2917  0.0647
  390loPI   C4A 6234   5.020  16.540   8.534 -0.1890 -0.1250 -0.1894
  390loPI   C5A 6235   4.974  16.395   8.125  0.0957  0.0064  0.1465
  390loPI   C6A 6236   4.849  16.054   7.915 -0.1672  0.1685 -0.2408
  390loPI   C1B 6237   5.120  16.892   9.571 -0.1164  0.0407  0.0541
  390loPI   C2B 6238   5.174  16.897   9.180  0.2385  0.4060 -0.1854
  390loPI   C3B 6239   5.258  16.960   8.784 -0.1475 -0.0224  0.1103
  390loPI   C4B 6240   5.206  17.003   8.383  0.2158 -0.2396  0.2391
  391loPI    C1 6241   1.767  16.084  10.884  0.0265 -0.2368  0.1274
  391loPI    C2 6242   1.525  16.356  11.051 -0.0246 -0.1437 -0.0956
  391loPI    C3 6243   1.616  16.021  11.249 -0.3016 -0.1597  0.0086
  391loPI   PO4 6244   1.714  16.045  10.639 -0.2030  0.2098  0.1124
  391loPI   GL1 6245   1.947  16.263  10.261 -0.0110  0.0250  0.1597
  391loPI   GL2 6246   1.753  16.568  10.263 -0.1586  0.2769  0.0495
  391loPI   C1A 6247   1.908  16.161   9.970  0.0448  0.0024 -0.0267
  391loPI   C2A 6248   1.874  16.189   9.562  0.1094 -0.0103  0.0460
  391loPI   C3A 6249   2.032  16.214   9.183 -0.4293  0.2644 -0.1463
  391loPI   C4A 6250   1.867  16.198   8.787  0.1123 -0.3820  0.0110
  391loPI   C5A 6251   1.952  16.205   8.323 -0.2041  0.0935 -0.0027
  391loPI   C6A 6252   2.127  16.207   7.856  0.0465 -0.1218 -0.0535
  391loPI   C1B 6253   1.562  16.583   9.814 -0.3021  0.1830  0.0858
  391loPI   C2B 6254   1.627  16.555   9.370 -0.0323  0.0459  0.2029
  391loPI   C3B 6255   1.772  16.659   8.984  0.0624 -0.1247 -0.0490
  391loPI   C4B 6256   1.907  16.686   8.519  0.1817 -0.0422  0.0146
  392loPI    C1 6257  11.834   0.433  11.344  0.1568  0.0338  0.0880
  392loPI    C2 6258  11.586   0.497  11.652 -0.0008 -0.1191 -0.0054
  392loPI    C3 6259  11.780   0.804  11.484 -0.0490 -0.0116  0.1334
  392loPI   PO4 6260  11.684   0.297  11.132  0.3073 -0.0087  0.1500
  392loPI   GL1 6261  11.758   0.284  10.673 -0.2404  0.2037 -0.0035
  392loPI   GL2 6262  11.893  -0.020  10.490  0.1124  0.2880  0.2359
  392loPI   C1A 6263  11.606   0.556  10.343  0.1547  0.1114 -0.1436
  392loPI   C2A 6264  11.502   0.507   9.975  0.0696 -0.0038  0.4966
  392loPI   C3A 6265  11.475   0.483   9.608 -0.2060  0.1085 -0.1431
  392loPI   C4A 6266  11.484   0.527   9.211 -0.0808  0.1461  0.0404
  392loPI   C5A 6267  11.586   0.479   8.774  0.1158  0.0952  0.1809
  392loPI   C6A 6268  11.488   0.375   8.363  0.1021 -0.2954  0.1181
  392loPI   C1B 6269  11.809   0.073  10.033 -0.3963 -0.1828 -0.0896
  392loPI   C2B 6270  11.755   0.094   9.562 -0.1391  0.2258  0.0713
  392loPI   C3B 6271  11.807  -0.013   9.176  0.0604  0.2949 -0.3573
  392loPI   C4B 6272  11.772  -0.056   8.799 -0.0284  0.2051 -0.0469
  393loPI    C1 6273   8.573  13.171  11.019  0.1025 -0.1713  0.0643
  393loPI    C2 6274   8.495  13.196  11.411 -0.0206 -0.0094  0.0307
  393loPI    C3 6275   8.823  13.369  11.261 -0.1125  0.1595  0.0224
  393loPI   PO4 6276   8.409  13.220  10.894  0.1075 -0.0025  0.2177
  393loPI   GL1 6277   8.444  13.412  10.525 -0.5406  0.1263 -0.0850
  393loPI   GL2 6278   8.138  13.319  10.481  0.0152 -0.2661 -0.1015
  393loPI   C1A 6279   8.670  13.417  10.271  0.1390 -0.0012 -0.0638
  393loPI   C2A 6280   8.818  13.438   9.935 -0.2107 -0.1729 -0.1279
  393loPI   C3A 6281   8.942  13.478   9.532  0.0332  0.2601 -0.2102
  393loPI   C4A 6282   8.884  13.554   9.129 -0.1701  0.1611  0.0966
  393loPI   C5A 6283   8.979  13.430   8.744  0.0949  0.0700 -0.2802
  393loPI   C6A 6284   9.141  13.405   8.360 -0.2066  0.0502 -0.1619
  393loPI   C1B 6285   8.146  13.480  10.142  0.1586  0.2155 -0.1278
  393loPI   C2B 6286   8.341  13.492   9.859 -0.1000 -0.2849  0.0725
  393loPI   C3B 6287   8.361  13.572   9.444 -0.1256 -0.0065 -0.0682
  393loPI   C4B 6288   8.384  13.567   9.058  0.0644 -0.3156 -0.1086
  394loPI    C1 6289   5.185   4.748  10.862 -0.1715 -0.2342 -0.1043
  394loPI    C2 6290   5.138   5.101  11.044  0.0431 -0.1430 -0.2229
  394loPI    C3 6291   5.194   4.770  11.262 -0.2140 -0.1143 -0.1098
  394loPI   PO4 6292   5.308   4.863  10.566  0.2559 -0.0346  0.1105
  394loPI   GL1 6293   5.514   4.869  10.082  0.0500 -0.1874  0.4207
  394loPI   GL2 6294   5.524   4.557   9.989 -0.2805 -0.1435 -0.1097
  394loPI   C1A 6295   5.660   5.005   9.733  0.2354  0.1909 -0.1312
  394loPI   C2A 6296   5.699   4.869   9.443 -0.2376  0.2334 -0.0623
  394loPI   C3A 6297   5.728   4.717   9.009  0.3509 -0.3075 -0.1015
  394loPI   C4A 6298   5.688   4.832   8.577 -0.1240  0.1835 -0.1443
  394loPI   C5A 6299   5.675   5.048   8.172 -0.0031 -0.1182 -0.0335
  394loPI   C6A 6300   5.906   5.304   7.966 -0.2834  0.0637  0.1874
  394loPI   C1B 6301   5.416   4.466   9.584 -0.0037  0.2668  0.1302
  394loPI   C2B 6302   5.427   4.323   9.097 -0.2100  0.0122  0.0184
  394loPI   C3B 6303   5.410   4.348   8.691 -0.1180 -0.3752  0.1104
  394loPI   C4B 6304   5.383   4.638   8.245 -0.3977  0.1728 -0.1441
  395loPI    C1 6305  10.185  16.221  11.330 -0.1822  0.1282 -0.1000
  395loPI    C2 6306   9.926  16.525  11.318 -0.2575  0.0670 -0.0335
  395loPI    C3 6307   9.964  16.307  11.652  0.1802  0.3353  0.0998
  395loPI   PO4 6308  10.244  16.194  11.031  0.0786 -0.0797 -0.1024
  395loPI   GL1 6309  10.127  16.362  10.587 -0.2423  0.4106 -0.0277
  395loPI   GL2 6310   9.894  16.182  10.420  0.1875 -0.0003 -0.1617
  395loPI   C1A 6311  10.473  16.194  10.301  0.0020 -0.0389  0.0751
  395loPI   C2A 6312  10.492  16.202   9.860  0.0889 -0.1065  0.0928
  395loPI   C3A 6313  10.655  16.152   9.416  0.0980  0.0321 -0.1268
  395loPI   C4A 6314  10.699  16.187   9.033 -0.0487 -0.2650 -0.0382
  395loPI   C5A 6315  10.782  16.226   8.679  0.1430  0.0546  0.0543
  395loPI   C6A 6316  10.821  16.724   8.407  0.2019  0.0770  0.0154
  395loPI   C1B 6317  10.036  16.290  10.057 -0.2585  0.1668  0.1609
  395loPI   C2B 6318  10.076  16.227   9.609 -0.1173 -0.0212  0.0269
  395loPI   C3B 6319  10.144  16.251   9.221 -0.0495 -0.1147  0.2262
  395loPI   C4B 6320  10.315  16.092   8.774 -0.1177  0.0847 -0.2508
  396loPI    C1 6321   3.266  10.285  10.358 -0.0446 -0.0485 -0.0353
  396loPI    C2 6322   2.960  10.285  10.615 -0.1991 -0.2514 -0.2160
  396loPI    C3 6323   3.333  10.332  10.749 -0.2964 -0.1395  0.0206
  396loPI   PO4 6324   3.126  10.092  10.134  0.0988 -0.1460  0.0915
  396loPI   GL1 6325   3.181  10.004   9.735  0.2343  0.1696 -0.0202
  396loPI   GL2 6326   3.087   9.752   9.601 -0.1673 -0.0878  0.2283
  396loPI   C1A 6327   3.206  10.163   9.367 -0.0799  0.1620  0.0255
  396loPI   C2A 6328   3.053  10.263   9.042 -0.1677  0.0122 -0.2974
  396loPI   C3A 6329   3.038  10.227   8.585 -0.2164 -0.2093 -0.1263
  396loPI   C4A 6330   3.061  10.258   8.164  0.3961  0.0451 -0.1843
  396loPI   C5A 6331   2.882  10.381   7.821 -0.1817  0.0159 -0.0065
  396loPI   C6A 6332   2.934  10.234   7.441  0.2965  0.0295  0.0973
  396loPI   C1B 6333   2.976   9.683   9.151 -0.1080  0.0259  0.0378
  396loPI   C2B 6334   2.874   9.702   8.683 -0.0046 -0.1386  0.1117
  396loPI   C3B 6335   2.851   9.756   8.234 -0.1628 -0.0092 -0.1545
  396loPI   C4B 6336   2.918   9.808   7.805 -0.2877  0.0239  0.1309
  397loPI    C1 6337   6.690   1.659  11.231 -0.1693 -0.0363 -0.0674
  397loPI    C2 6338   6.756   1.410  11.537  0.1881 -0.0171 -0.1244
  397loPI    C3 6339   6.540   1.742  11.592 -0.0437 -0.1887  0.0214
  397loPI   PO4 6340   6.639   1.545  11.006  0.3759  0.2006 -0.0996
  397loPI   GL1 6341   6.731   1.796  10.593  0.1237 -0.1960 -0.0575
  397loPI   GL2 6342   6.566   1.482  10.433  0.1393  0.0183  0.1148
  397loPI   C1A 6343   6.757   1.832  10.078  0.2524  0.0628 -0.1368
  397loPI   C2A 6344   6.795   1.789   9.765  0.1258  0.1416 -0.1147
  397loPI   C3A 6345   6.835   1.666   9.378  0.1706  0.0742  0.0560
  397loPI   C4A 6346   6.969   1.689   8.997  0.0673  0.0217  0.0853
  397loPI   C5A 6347   6.865   1.576   8.619 -0.4676  0.1523  0.0594
  397loPI   C6A 6348   6.593   1.802   8.347  0.1393  0.0157  0.2086
  397loPI   C1B 6349   6.419   1.298  10.134 -0.1702  0.1432 -0.0559
  397loPI   C2B 6350   6.539   1.297   9.757 -0.2036 -0.2389 -0.4411
  397loPI   C3B 6351   6.612   1.222   9.425 -0.0588 -0.0051 -0.0283
  397loPI   C4B 6352   6.688   1.275   9.022  0.3598 -0.2692  0.0291
  398loPI    C1 6353   8.696  14.404  11.142  0.1413  0.0215 -0.0171
  398loPI    C2 6354   8.387  14.524  11.365  0.1544 -0.0760  0.0541
  398loPI    C3 6355   8.582  14.188  11.458  0.0941 -0.1739 -0.1655
  398loPI   PO4 6356   8.654  14.346  10.903  0.2072 -0.1483 -0.0129
  398loPI   GL1 6357   8.397  14.406  10.514 -0.0576 -0.2696 -0.0273
  398loPI   GL2 6358   8.305  14.095  10.656 -0.1606 -0.0244 -0.0775
  398loPI   C1A 6359   8.353  14.322  10.132  0.0936  0.2153  0.1603
  398loPI   C2A 6360   8.309  14.462   9.642  0.0765  0.0689 -0.1535
  398loPI   C3A 6361   8.402  14.463   9.234 -0.4059  0.0686 -0.1770
  398loPI   C4A 6362   8.406  14.466   8.764 -0.0226 -0.0377 -0.1203
  398loPI   C5A 6363   8.416  14.059   8.524  0.2426 -0.2215 -0.2334
  398loPI   C6A 6364   8.892  13.867   8.476  0.0776 -0.4318 -0.1024
  398loPI   C1B 6365   8.546  13.886  10.357  0.0271  0.1450  0.0489
  398loPI   C2B 6366   8.624  13.904   9.920  0.1924 -0.0160  0.0196
  398loPI   C3B 6367   8.710  14.041   9.439  0.1686  0.0761  0.0160
  398loPI   C4B 6368   8.733  13.998   8.975 -0.2066 -0.2074  0.2003
  399loPI    C1 6369  17.483   5.474  10.776 -0.0363  0.1717  0.2997
  399loPI    C2 6370  17.155   5.289  10.911  0.0938 -0.2646  0.0394
  399loPI    C3 6371  17.455   5.373  11.162 -0.0676 -0.1848  0.2077
  399loPI   PO4 6372  17.314   5.577  10.509  0.2108 -0.0981  0.0476
  399loPI   GL1 6373  17.121   5.409  10.137 -0.1696 -0.2068 -0.0656
  399loPI   GL2 6374  17.480   5.279  10.073  0.2171  0.3492 -0.0350
  399loPI   C1A 6375  17.138   5.224   9.658  0.1213 -0.1703 -0.0028
  399loPI   C2A 6376  17.312   5.189   9.236 -0.2005 -0.0223  0.0748
  399loPI   C3A 6377  17.312   5.209   8.944 -0.1573  0.0878 -0.0188
  399loPI   C4A 6378  17.205   5.275   8.536 -0.0585 -0.1241  0.1586
  399loPI   C5A 6379  17.236   5.388   8.028  0.0544  0.1539  0.0486
  399loPI   C6A 6380  16.984   5.179   7.750 -0.1400  0.1657 -0.1870
  399loPI   C1B 6381  17.531   4.856   9.784  0.1696  0.2351 -0.0637
  399loPI   C2B 6382  17.571   4.738   9.419 -0.1574  0.4949  0.0051
  399loPI   C3B 6383  17.559   4.769   8.990  0.0879  0.0360  0.1000
  399loPI   C4B 6384  17.477   4.765   8.543 -0.0118  0.0624  0.2340
  400loPI    C1 6385   3.825   2.951  10.408 -0.0275  0.0901 -0.0386
  400loPI    C2 6386   3.785   3.079  10.785  0.0453 -0.2138  0.0756
  400loPI    C3 6387   3.503   3.163  10.514  0.0685  0.1412  0.1560
  400loPI   PO4 6388   4.043   3.046  10.320 -0.1722  0.3219  0.1905
  400loPI   GL1 6389   4.416   2.824  10.122 -0.0406 -0.0842  0.3874
  400loPI   GL2 6390   4.729   3.047  10.112  0.0282  0.1072 -0.1462
  400loPI   C1A 6391   4.314   2.762   9.673  0.2755  0.1347  0.1581
  400loPI   C2A 6392   4.287   2.728   9.227 -0.1403 -0.1648 -0.0422
  400loPI   C3A 6393   4.297   2.706   8.788 -0.1041 -0.3059 -0.3162
  400loPI   C4A 6394   4.196   2.538   8.440 -0.1286 -0.3849 -0.0225
  400loPI   C5A 6395   4.162   2.350   8.082 -0.1756 -0.0759  0.1806
  400loPI   C6A 6396   4.123   2.591   7.705  0.0962  0.0894  0.1736
  400loPI   C1B 6397   4.838   2.757   9.777 -0.0018  0.0908  0.3410
  400loPI   C2B 6398   4.791   2.660   9.415  0.1286  0.4516  0.0310
  400loPI   C3B 6399   4.819   2.609   8.995  0.3263 -0.4498  0.1953
  400loPI   C4B 6400   4.756   2.680   8.540  0.0037 -0.1711 -0.1695
  401loPI    C1 6401  17.302   9.523  10.912 -0.0495  0.1026  0.0123
  401loPI    C2 6402  17.684   9.459  11.010 -0.0584 -0.0278 -0.0357
  401loPI    C3 6403  17.487   9.190  10.789 -0.1685  0.0546 -0.0385
  401loPI   PO4 6404  17.235   9.791  10.721 -0.0167 -0.2004  0.2846
  401loPI   GL1 6405  17.345   9.881  10.257  0.4554 -0.1399 -0.1164
  401loPI   GL2 6406  17.179   9.555  10.221 -0.2839 -0.2960  0.0343
  401loPI   C1A 6407  17.422   9.978   9.810 -0.1198  0.2526 -0.1789
  401loPI   C2A 6408  17.425  10.028   9.338 -0.0151  0.0116  0.1146
  401loPI   C3A 6409  17.482   9.963   8.894  0.2531  0.0807 -0.1188
  401loPI   C4A 6410  17.739   9.986   8.444  0.2619 -0.0945 -0.0263
  401loPI   C5A 6411  17.708  10.240   8.090  0.0581  0.2528  0.0307
  401loPI   C6A 6412  18.085  10.549   8.039 -0.2149 -0.0337 -0.0026
  401loPI   C1B 6413  17.179   9.524   9.888  0.0716 -0.2385  0.0785
  401loPI   C2B 6414  17.109   9.579   9.397 -0.2424  0.0826  0.0428
  401loPI   C3B 6415  17.185   9.559   9.000  0.2118  0.1702  0.0164
  401loPI   C4B 6416  17.124   9.538   8.581  0.1814  0.0476 -0.0839
  402loPI    C1 6417   0.303  17.909  10.844 -0.2034  0.0584 -0.0982
  402loPI    C2 6418   0.159  17.732  11.172  0.0910  0.1221  0.0681
  402loPI    C3 6419   0.450  18.005  11.203  0.1291  0.1207 -0.2474
  402loPI   PO4 6420   0.342  17.698  10.698 -0.1771  0.0979  0.1854
  402loPI   GL1 6421   0.075  17.604  10.359 -0.0861  0.1255 -0.0343
  402loPI   GL2 6422   0.274  17.363  10.323 -0.1422  0.1867 -0.0028
  402loPI   C1A 6423   0.136  17.654   9.958 -0.2418  0.2773  0.4965
  402loPI   C2A 6424   0.167  17.542   9.413  0.1553 -0.1803  0.0792
  402loPI   C3A 6425   0.130  17.567   9.030 -0.2755  0.0567 -0.4214
  402loPI   C4A 6426   0.087  17.716   8.701 -0.4088 -0.0220 -0.1145
  402loPI   C5A 6427  -0.024  17.650   8.328 -0.1756 -0.0249 -0.1620
  402loPI   C6A 6428  -0.216  17.211   8.228  0.3671  0.2839  0.0292
  402loPI   C1B 6429   0.301  17.148   9.882 -0.0288  0.0093 -0.0068
  402loPI   C2B 6430   0.345  17.064   9.484  0.2993  0.0003  0.1118
  402loPI   C3B 6431   0.360  17.161   8.964  0.2452  0.2092  0.2663
  402loPI   C4B 6432   0.480  17.071   8.469 -0.1322 -0.1039  0.1826
  403loPI    C1 6433  10.393   9.204  10.878  0.1244  0.0988  0.0845
  403loPI    C2 6434  10.062   9.219  11.102 -0.1337  0.0696 -0.2844
  403loPI    C3 6435  10.268   9.554  11.026 -0.0526  0.0817 -0.0213
  403loPI   PO4 6436  10.376   9.063  10.699  0.1760  0.3300  0.0685
  403loPI   GL1 6437  10.711   9.172  10.459 -0.0396 -0.0273  0.0076
  403loPI   GL2 6438  11.022   9.183  10.387  0.3562  0.1566  0.3339
  403loPI   C1A 6439  10.735   8.788  10.118 -0.1875  0.3191  0.0758
  403loPI   C2A 6440  10.718   8.785   9.604  0.0277  0.1479 -0.0942
  403loPI   C3A 6441  10.832   8.798   9.240  0.1714  0.1071 -0.0739
  403loPI   C4A 6442  10.732   8.943   8.875 -0.1601  0.0495  0.2188
  403loPI   C5A 6443  10.661   9.150   8.538  0.0047 -0.2634  0.0287
  403loPI   C6A 6444  10.698   9.638   8.401 -0.3198  0.0366 -0.0427
  403loPI   C1B 6445  11.111   9.237   9.997 -0.1780  0.0106 -0.4391
  403loPI   C2B 6446  11.084   9.219   9.555  0.0225 -0.0521  0.2651
  403loPI   C3B 6447  11.072   9.301   9.108 -0.3177  0.0310 -0.4388
  403loPI   C4B 6448  11.154   9.361   8.720 -0.2115  0.2219  0.0088
  404loPI    C1 6449  13.696   5.368  11.195  0.0092  0.1423  0.0775
  404loPI    C2 6450  13.472   5.577  11.452 -0.1958 -0.0474  0.0548
  404loPI    C3 6451  13.646   5.237  11.569 -0.0362  0.0255  0.0308
  404loPI   PO4 6452  13.544   5.280  10.901 -0.0950  0.0417 -0.0083
  404loPI   GL1 6453  13.628   5.160  10.483  0.0583  0.1008  0.0659
  404loPI   GL2 6454  13.272   5.204  10.434 -0.0564 -0.2639  0.0898
  404loPI   C1A 6455  13.730   5.456  10.142  0.2153  0.1367 -0.0011
  404loPI   C2A 6456  13.558   5.340   9.823  0.2656  0.2086 -0.4082
  404loPI   C3A 6457  13.584   5.446   9.386 -0.1202  0.1047  0.1281
  404loPI   C4A 6458  13.562   5.484   8.988  0.1972  0.1218  0.0795
  404loPI   C5A 6459  13.470   5.606   8.538  0.3365  0.3254  0.1008
  404loPI   C6A 6460  13.635   5.986   8.182 -0.0645  0.2065  0.0703
  404loPI   C1B 6461  13.116   5.391  10.045  0.0180 -0.1652  0.0020
  404loPI   C2B 6462  13.050   5.473   9.657  0.1864 -0.0552  0.0293
  404loPI   C3B 6463  13.025   5.548   9.278 -0.1298 -0.1969  0.1074
  404loPI   C4B 6464  13.061   5.424   8.774  0.1368  0.0459 -0.0858
  405loPI    C1 6465   6.750  16.755  10.941  0.0320 -0.0618  0.0869
  405loPI    C2 6466   6.538  16.661  11.267 -0.1214  0.0313  0.0151
  405loPI    C3 6467   6.740  17.006  11.252 -0.0279 -0.0214  0.0528
  405loPI   PO4 6468   6.573  16.661  10.758  0.2899 -0.0792 -0.2917
  405loPI   GL1 6469   6.739  16.573  10.319 -0.1512 -0.0263 -0.0523
  405loPI   GL2 6470   6.446  16.541  10.236 -0.1033 -0.2123  0.3855
  405loPI   C1A 6471   6.735  16.842   9.927  0.0107  0.0390  0.3358
  405loPI   C2A 6472   6.739  16.928   9.555 -0.1309 -0.0464 -0.1115
  405loPI   C3A 6473   6.688  16.985   9.121 -0.1796 -0.0837 -0.4369
  405loPI   C4A 6474   6.872  17.133   8.704 -0.0220  0.0572 -0.1679
  405loPI   C5A 6475   6.789  17.052   8.175 -0.1787 -0.0286  0.1811
  405loPI   C6A 6476   6.590  17.287   7.943  0.0257  0.2446 -0.0146
  405loPI   C1B 6477   6.457  16.501   9.707  0.1192 -0.2276 -0.0253
  405loPI   C2B 6478   6.351  16.532   9.388  0.0643 -0.2631 -0.0270
  405loPI   C3B 6479   6.479  16.486   8.915  0.0026  0.1785  0.0690
  405loPI   C4B 6480   6.553  16.699   8.517 -0.0113  0.1904 -0.0421
  406loPI    C1 6481  11.332   1.788  11.094  0.0195  0.3289 -0.0170
  406loPI    C2 6482  11.036   1.598  11.284  0.1078  0.0995 -0.1048
  406loPI    C3 6483  11.058   1.997  11.296 -0.0420  0.1023  0.1380
  406loPI   PO4 6484  11.287   1.703  10.789 -0.0912 -0.0580 -0.1959
  406loPI   GL1 6485  11.526   1.758  10.503 -0.1931 -0.0082  0.0675
  406loPI   GL2 6486  11.845   1.796  10.510 -0.2768 -0.2342 -0.1437
  406loPI   C1A 6487  11.352   1.794  10.127  0.3132  0.0458 -0.0248
  406loPI   C2A 6488  11.327   1.754   9.684 -0.0810  0.0330  0.1215
  406loPI   C3A 6489  11.306   1.803   9.275 -0.0148 -0.3136 -0.0314
  406loPI   C4A 6490  11.393   1.696   8.763  0.1497  0.1535 -0.3662
  406loPI   C5A 6491  11.078   1.825   8.382  0.0008 -0.0734  0.2579
  406loPI   C6A 6492  10.726   2.104   8.457 -0.2931 -0.0118 -0.0544
  406loPI   C1B 6493  11.810   1.886  10.107  0.0846  0.1291  0.0836
  406loPI   C2B 6494  11.906   1.801   9.654  0.2232 -0.1770  0.1953
  406loPI   C3B 6495  11.752   1.812   9.256 -0.4023 -0.2546 -0.3466
  406loPI   C4B 6496  11.907   1.690   8.891  0.0330  0.3264  0.1788
  407loPI    C1 6497  11.901  11.355  11.046 -0.0516  0.1644  0.1412
  407loPI    C2 6498  11.512  11.432  10.989 -0.0576 -0.0452 -0.1209
  407loPI    C3 6499  11.660  11.414  11.360 -0.2441  0.2872 -0.0266
  407loPI   PO4 6500  11.920  11.338  10.746  0.3037 -0.1080  0.0166
  407loPI   GL1 6501  12.023  11.539  10.386  0.1804 -0.1647  0.2229
  407loPI   GL2 6502  12.367  11.502  10.186 -0.1080  0.0722 -0.0032
  407loPI   C1A 6503  11.992  11.431   9.924 -0.0584  0.1917  0.2038
  407loPI   C2A 6504  12.029  11.390   9.461  0.2235 -0.3952 -0.0630
  407loPI   C3A 6505  12.009  11.633   9.094 -0.0586 -0.1013  0.3685
  407loPI   C4A 6506  11.998  11.639   8.645 -0.1803  0.3870 -0.0662
  407loPI   C5A 6507  11.842  11.953   8.326 -0.0256  0.0868  0.0882
  407loPI   C6A 6508  11.547  12.134   8.288 -0.0698 -0.2087 -0.2262
  407loPI   C1B 6509  12.495  11.411   9.704 -0.0811  0.0226  0.3602
  407loPI   C2B 6510  12.537  11.445   9.258  0.0620  0.1718 -0.1092
  407loPI   C3B 6511  12.571  11.629   8.831 -0.1216  0.2079 -0.2369
  407loPI   C4B 6512  12.807  11.572   8.543 -0.0526  0.0978 -0.1412
  408loPI    C1 6513  16.771   7.789  10.956 -0.2099  0.0093 -0.1538
  408loPI    C2 6514  16.899   7.415  11.014 -0.0713  0.0329 -0.3017
  408loPI    C3 6515  16.589   7.554  11.224 -0.1131 -0.1590 -0.2339
  408loPI   PO4 6516  16.742   7.895  10.653  0.2632  0.0487  0.0285
  408loPI   GL1 6517  16.426   8.067  10.325  0.3203 -0.0116  0.1012
  408loPI   GL2 6518  16.484   8.415  10.321 -0.0269 -0.0280  0.2769
  408loPI   C1A 6519  16.419   8.033   9.802  0.0315 -0.1336 -0.2357
  408loPI   C2A 6520  16.326   8.090   9.383 -0.1026  0.1706  0.0731
  408loPI   C3A 6521  16.341   8.177   8.913  0.1543 -0.0656  0.2709
  408loPI   C4A 6522  16.266   8.086   8.497  0.0852  0.0350  0.2892
  408loPI   C5A 6523  16.484   7.852   8.197 -0.0835  0.2390 -0.0255
  408loPI   C6A 6524  16.406   7.413   8.211 -0.0957  0.0704  0.1594
  408loPI   C1B 6525  16.666   8.490   9.968 -0.1807  0.2066 -0.5523
  408loPI   C2B 6526  16.664   8.576   9.585 -0.1646  0.2538  0.1168
  408loPI   C3B 6527  16.585   8.616   9.219  0.0288  0.0292 -0.2159
  408loPI   C4B 6528  16.592   8.757   8.749 -0.0469 -0.2626 -0.1140
  409loPI    C1 6529  15.648  16.160  10.902 -0.2312  0.0058 -0.2126
  409loPI    C2 6530  15.269  16.123  11.025 -0.2260  0.0322 -0.1885
  409loPI    C3 6531  15.437  15.833  10.806 -0.1924 -0.0772 -0.0195
  409loPI   PO4 6532  15.647  16.369  10.819  0.3080 -0.0651  0.0812
  409loPI   GL1 6533  15.649  16.634  10.528  0.0256  0.1328  0.1804
  409loPI   GL2 6534  15.422  16.781  10.376  0.0248  0.0217 -0.1421
  409loPI   C1A 6535  15.654  16.463  10.034 -0.2539 -0.0280 -0.0215
  409loPI   C2A 6536  15.711  16.447   9.561  0.1414  0.1578  0.0671
  409loPI   C3A 6537  15.612  16.435   9.211 -0.0634 -0.2179  0.0985
  409loPI   C4A 6538  15.597  16.406   8.795  0.1427 -0.0724  0.2502
  409loPI   C5A 6539  15.619  16.586   8.530  0.1677  0.1093  0.0096
  409loPI   C6A 6540  15.486  16.551   8.161 -0.2468  0.0153  0.0660
  409loPI   C1B 6541  15.514  16.944  10.032 -0.2128 -0.1477  0.0245
  409loPI   C2B 6542  15.398  16.879   9.598 -0.1626 -0.1995  0.1314
  409loPI   C3B 6543  15.323  16.852   9.175 -0.0792  0.1367  0.1576
  409loPI   C4B 6544  15.252  16.885   8.733  0.1244 -0.2042 -0.0818
  410loPI    C1 6545   4.258   9.272  10.191 -0.0435 -0.1016 -0.1699
  410loPI    C2 6546   3.975   9.197  10.463  0.1514 -0.1545  0.0212
  410loPI    C3 6547   4.361   9.167  10.563  0.2255 -0.2177 -0.2745
  410loPI   PO4 6548   4.247   9.219   9.909 -0.1256 -0.2705  0.1217
  410loPI   GL1 6549   4.146   9.344   9.423  0.0070 -0.1054 -0.2859
  410loPI   GL2 6550   4.064   9.562   9.329  0.0421  0.1261  0.3263
  410loPI   C1A 6551   4.143   9.114   8.995 -0.1472 -0.0755 -0.0044
  410loPI   C2A 6552   4.144   9.082   8.584  0.0611  0.0503  0.5873
  410loPI   C3A 6553   4.039   9.024   8.187  0.3254  0.3648  0.0946
  410loPI   C4A 6554   4.003   9.117   7.758 -0.1776  0.2449 -0.1747
  410loPI   C5A 6555   4.115   9.415   7.567 -0.1824 -0.1382 -0.1059
  410loPI   C6A 6556   3.972   9.546   7.096 -0.1305 -0.1558  0.1710
  410loPI   C1B 6557   4.064   9.587   8.899 -0.0214  0.3523  0.2208
  410loPI   C2B 6558   4.160   9.546   8.443 -0.4435  0.1318 -0.1005
  410loPI   C3B 6559   4.155   9.663   8.039 -0.3746 -0.3118 -0.1503
  410loPI   C4B 6560   4.265  10.012   7.764  0.2015 -0.0511  0.1728
  411loPI    C1 6561  11.377  17.865  11.048 -0.0992 -0.2729 -0.0850
  411loPI    C2 6562  11.482  17.497  11.163 -0.0839 -0.2195  0.0750
  411loPI    C3 6563  11.555  17.809  11.401 -0.2688 -0.1361  0.0239
  411loPI   PO4 6564  11.457  17.811  10.722 -0.1615 -0.0751  0.0928
  411loPI   GL1 6565  11.280  18.057  10.304 -0.1679  0.0403 -0.0010
  411loPI   GL2 6566  11.043  18.268  10.345 -0.1719  0.0697 -0.1424
  411loPI   C1A 6567  11.137  18.085   9.859  0.1657  0.0435 -0.1592
  411loPI   C2A 6568  11.162  18.063   9.432  0.2477 -0.0530  0.0638
  411loPI   C3A 6569  11.313  18.040   9.038  0.1224 -0.2211  0.1454
  411loPI   C4A 6570  11.330  17.837   8.652  0.0230  0.2045 -0.0101
  411loPI   C5A 6571  11.132  17.621   8.376 -0.1462 -0.0775 -0.3200
  411loPI   C6A 6572  10.891  17.261   8.303  0.2665 -0.0307  0.3263
  411loPI   C1B 6573  10.993  18.606  10.028 -0.2146  0.2374 -0.1764
  411loPI   C2B 6574  10.958  18.522   9.585  0.0088 -0.0149  0.1646
  411loPI   C3B 6575  10.915  18.383   9.080  0.0239  0.0082  0.1285
  411loPI   C4B 6576  11.118  18.330   8.692 -0.0803 -0.2270  0.0133
  412loPI    C1 6577  16.729   8.858  10.965 -0.0590 -0.1099  0.0672
  412loPI    C2 6578  17.043   9.041  11.132 -0.1381  0.1386 -0.0517
  412loPI    C3 6579  16.828   8.780  11.345  0.1478 -0.0354  0.0303
  412loPI   PO4 6580  16.780   8.798  10.716 -0.0905  0.1386 -0.3572
  412loPI   GL1 6581  16.654   9.046  10.317  0.1836  0.1358  0.2036
  412loPI   GL2 6582  16.920   8.833  10.232  0.1307 -0.0486  0.1703
  412loPI   C1A 6583  16.491   9.008   9.853  0.0765  0.0674 -0.1073
  412loPI   C2A 6584  16.441   9.033   9.440  0.1458 -0.1995 -0.1483
  412loPI   C3A 6585  16.361   9.092   9.015  0.1000  0.0384 -0.1417
  412loPI   C4A 6586  16.289   9.123   8.631  0.1203 -0.0920 -0.2419
  412loPI   C5A 6587  16.030   8.895   8.294  0.0375 -0.2951 -0.1447
  412loPI   C6A 6588  16.074   8.587   8.014  0.4726 -0.0407 -0.0934
  412loPI   C1B 6589  17.037   9.054   9.972  0.0882  0.1650  0.2031
  412loPI   C2B 6590  16.921   9.101   9.604  0.1295 -0.0559 -0.0547
  412loPI   C3B 6591  16.904   9.051   9.153 -0.3328  0.1412 -0.2713
  412loPI   C4B 6592  16.934   9.150   8.865  0.2151 -0.3873  0.0799
  413loPI    C1 6593   0.353  15.731  10.835 -0.1596  0.0544  0.2957
  413loPI    C2 6594   0.154  15.887  11.145 -0.1831  0.1205  0.2477
  413loPI    C3 6595   0.538  15.984  11.084 -0.2043  0.1776  0.2049
  413loPI   PO4 6596   0.224  15.753  10.631  0.2297 -0.2407  0.1204
  413loPI   GL1 6597   0.105  15.595  10.219  0.1877  0.0383  0.0356
  413loPI   GL2 6598   0.239  15.272  10.097 -0.0486 -0.1155 -0.1129
  413loPI   C1A 6599   0.000  15.762   9.845 -0.0123  0.1908  0.0807
  413loPI   C2A 6600  -0.027  15.777   9.454  0.0515 -0.2449  0.1506
  413loPI   C3A 6601   0.009  15.760   9.037  0.0371 -0.2117  0.0157
  413loPI   C4A 6602  -0.141  15.417   8.808 -0.0250 -0.0368  0.0638
  413loPI   C5A 6603  -0.269  15.523   8.454 -0.1691  0.0565  0.0359
  413loPI   C6A 6604  -0.429  15.891   8.331  0.0414  0.0079  0.0548
  413loPI   C1B 6605   0.236  15.334   9.744 -0.0429  0.2116  0.3843
  413loPI   C2B 6606   0.246  15.273   9.347  0.6382  0.0018  0.2391
  413loPI   C3B 6607   0.319  15.368   8.852 -0.0299 -0.7018 -0.0785
  413loPI   C4B 6608   0.181  15.118   8.438 -0.1488 -0.2070  0.0102
  414loPI    C1 6609  16.004   7.366  11.106 -0.0834  0.0510  0.3220
  414loPI    C2 6610  16.245   7.070  11.225 -0.0206 -0.0294  0.0043
  414loPI    C3 6611  16.124   7.348  11.487 -0.1426 -0.3760  0.3247
  414loPI   PO4 6612  15.995   7.395  10.841  0.1501  0.0163 -0.0231
  414loPI   GL1 6613  15.836   7.621  10.407 -0.1683  0.1557  0.1246
  414loPI   GL2 6614  15.906   7.997  10.469 -0.1672  0.4618 -0.1552
  414loPI   C1A 6615  15.711   7.715   9.965 -0.2294  0.0481  0.1095
  414loPI   C2A 6616  15.588   7.721   9.499  0.1405  0.0196  0.1863
  414loPI   C3A 6617  15.591   7.791   9.068 -0.1675  0.0526 -0.0300
  414loPI   C4A 6618  15.600   7.798   8.617  0.2333 -0.2896 -0.1217
  414loPI   C5A 6619  15.788   7.989   8.321  0.0382  0.0590  0.3806
  414loPI   C6A 6620  16.101   8.116   7.938  0.0408  0.0238 -0.0913
  414loPI   C1B 6621  15.962   8.133  10.083 -0.1094  0.2019 -0.3031
  414loPI   C2B 6622  15.882   8.164   9.688  0.2962  0.0104 -0.3894
  414loPI   C3B 6623  15.878   8.152   9.246  0.0093  0.1168 -0.1998
  414loPI   C4B 6624  15.852   8.162   8.843 -0.0828 -0.2070  0.1271
  415loPI    C1 6625   4.332   5.768  10.358  0.2230  0.0417 -0.0574
  415loPI    C2 6626   4.461   5.859  10.725  0.0039 -0.0644  0.0477
  415loPI    C3 6627   4.068   5.845  10.648  0.0492  0.0997 -0.2283
  415loPI   PO4 6628   4.567   5.774  10.263  0.1656 -0.3233  0.1606
  415loPI   GL1 6629   4.828   5.733   9.948  0.2311  0.1519 -0.1245
  415loPI   GL2 6630   4.727   5.900   9.737 -0.0541  0.1019  0.0885
  415loPI   C1A 6631   4.976   5.470   9.652 -0.2611 -0.3841  0.0309
  415loPI   C2A 6632   4.966   5.309   9.239  0.0862  0.1030  0.1198
  415loPI   C3A 6633   4.879   5.395   8.775  0.0123 -0.1154 -0.1901
  415loPI   C4A 6634   4.766   5.281   8.493  0.1944 -0.0630 -0.0141
  415loPI   C5A 6635   4.695   5.509   8.174 -0.1171  0.0026 -0.2405
  415loPI   C6A 6636   4.551   5.496   7.790 -0.1389  0.0345  0.1670
  415loPI   C1B 6637   4.704   5.840   9.309  0.1119 -0.1321 -0.2304
  415loPI   C2B 6638   4.634   5.832   8.887  0.1246 -0.0138  0.3009
  415loPI   C3B 6639   4.480   5.917   8.502 -0.0739 -0.0573 -0.2454
  415loPI   C4B 6640   4.326   5.796   8.076 -0.0813 -0.0275 -0.1108
  416loPI    C1 6641  15.271   6.002  10.770  0.0231  0.2394 -0.1951
  416loPI    C2 6642  15.313   6.335  10.987 -0.2719  0.0934  0.0961
  416loPI    C3 6643  15.393   5.979  11.150 -0.1777  0.0033 -0.1420
  416loPI   PO4 6644  15.006   6.107  10.626  0.0132  0.1891 -0.0074
  416loPI   GL1 6645  14.809   5.962  10.307  0.1297 -0.0827  0.0746
  416loPI   GL2 6646  14.714   6.235  10.239 -0.0609  0.0951 -0.0136
  416loPI   C1A 6647  15.009   5.785   9.970 -0.0924 -0.2493 -0.0812
  416loPI   C2A 6648  14.833   5.864   9.598 -0.1594 -0.0320  0.2044
  416loPI   C3A 6649  14.843   5.882   9.173 -0.1202 -0.0877  0.0335
  416loPI   C4A 6650  14.900   5.909   8.841 -0.0898 -0.2845  0.0668
  416loPI   C5A 6651  14.891   5.628   8.506  0.1013  0.3384  0.2049
  416loPI   C6A 6652  14.843   5.244   8.355 -0.0781 -0.0188 -0.2163
  416loPI   C1B 6653  14.700   6.274   9.813  0.1384 -0.1620  0.2313
  416loPI   C2B 6654  14.627   6.353   9.391 -0.0449  0.4117  0.0124
  416loPI   C3B 6655  14.553   6.291   8.980  0.1455 -0.2209  0.0711
  416loPI   C4B 6656  14.683   6.398   8.558 -0.0143 -0.3008 -0.2999
  417loPI    C1 6657  17.908  11.190  10.936  0.0292 -0.1227 -0.0345
  417loPI    C2 6658  18.142  10.902  11.086  0.2558  0.0343 -0.0800
  417loPI    C3 6659  18.226  11.286  11.159 -0.0730  0.0906  0.0225
  417loPI   PO4 6660  17.934  11.067  10.685 -0.1642 -0.0567  0.1873
  417loPI   GL1 6661  17.972  11.237  10.269  0.0373  0.1178 -0.3453
  417loPI   GL2 6662  18.332  11.377  10.070  0.0145  0.0755 -0.0886
  417loPI   C1A 6663  17.794  11.302   9.851 -0.1084  0.2732 -0.0621
  417loPI   C2A 6664  17.711  11.350   9.456  0.2838 -0.0871  0.2341
  417loPI   C3A 6665  17.693  11.400   9.023  0.1013  0.1689 -0.0303
  417loPI   C4A 6666  17.626  11.282   8.647 -0.1438  0.0577  0.0030
  417loPI   C5A 6667  17.425  10.982   8.377  0.1441  0.0342  0.0981
  417loPI   C6A 6668  17.221  10.598   8.314  0.0659  0.1455  0.2835
  417loPI   C1B 6669  18.234  11.408   9.655  0.1055  0.1117  0.0333
  417loPI   C2B 6670  18.166  11.425   9.241  0.0989  0.2174 -0.0563
  417loPI   C3B 6671  18.199  11.396   8.868 -0.0038 -0.2421 -0.2789
  417loPI   C4B 6672  18.212  11.340   8.479 -0.1556 -0.0303  0.0941
  418loPI    C1 6673   0.826  14.397  10.735  0.0320  0.1527 -0.1925
  418loPI    C2 6674   0.650  14.377  10.376 -0.2188 -0.0204 -0.0628
  418loPI    C3 6675   0.438  14.301  10.707  0.1065 -0.2546  0.0967
  418loPI   PO4 6676   1.085  14.236  10.703 -0.1889  0.1117 -0.0873
  418loPI   GL1 6677   1.186  14.334  10.241  0.2847  0.1037 -0.1812
  418loPI   GL2 6678   1.274  14.010  10.076 -0.1604  0.0972  0.2424
  418loPI   C1A 6679   1.027  14.567   9.898  0.0073  0.1919  0.0071
  418loPI   C2A 6680   1.045  14.782   9.588 -0.0841  0.0074  0.2635
  418loPI   C3A 6681   1.023  14.804   9.076 -0.0688 -0.1242 -0.0276
  418loPI   C4A 6682   1.121  14.809   8.628 -0.4874 -0.1075  0.0350
  418loPI   C5A 6683   0.960  15.026   8.234 -0.5086  0.1600 -0.0589
  418loPI   C6A 6684   0.592  15.347   8.197  0.0871  0.0026 -0.1555
  418loPI   C1B 6685   1.343  14.253   9.667 -0.3381  0.2010 -0.0148
  418loPI   C2B 6686   1.311  14.402   9.262 -0.0607  0.0595 -0.1968
  418loPI   C3B 6687   1.325  14.421   8.801 -0.0354  0.0340  0.0980
  418loPI   C4B 6688   1.390  14.421   8.305 -0.0879 -0.0774  0.2500
  419loPI    C1 6689  12.017   3.825  11.130 -0.0925  0.2096  0.0622
  419loPI    C2 6690  12.091   4.197  11.002  0.1589  0.1197 -0.0599
  419loPI    C3 6691  12.377   3.989  11.189  0.1383 -0.1445 -0.3167
  419loPI   PO4 6692  11.876   3.715  10.927 -0.0726  0.1172 -0.0193
  419loPI   GL1 6693  11.916   3.533  10.523 -0.1300  0.0084 -0.2927
  419loPI   GL2 6694  12.017   3.730  10.168 -0.0119 -0.2566 -0.1874
  419loPI   C1A 6695  11.749   3.293  10.192  0.0966  0.0344 -0.0204
  419loPI   C2A 6696  11.633   3.355   9.785  0.1143  0.0676  0.1743
  419loPI   C3A 6697  11.623   3.227   9.331  0.2192 -0.1327 -0.1324
  419loPI   C4A 6698  11.516   3.133   8.830 -0.1778 -0.1660  0.4354
  419loPI   C5A 6699  11.671   2.875   8.601 -0.0046  0.0356  0.0120
  419loPI   C6A 6700  11.665   2.693   8.173  0.0834  0.3040 -0.0927
  419loPI   C1B 6701  12.000   3.723   9.771  0.0181 -0.1071 -0.1399
  419loPI   C2B 6702  11.892   3.741   9.432 -0.0687  0.1872 -0.1625
  419loPI   C3B 6703  11.950   3.663   9.035 -0.2863  0.5262 -0.1213
  419loPI   C4B 6704  11.783   3.955   8.756  0.0619 -0.0508 -0.0004
  420loPI    C1 6705   8.004   0.734  10.964  0.1016 -0.0747  0.0921
  420loPI    C2 6706   8.057   0.903  11.323  0.0174  0.0234  0.0590
  420loPI    C3 6707   8.264   0.575  11.223 -0.0012 -0.0382  0.2187
  420loPI   PO4 6708   8.017   0.871  10.747 -0.1086  0.0188 -0.0801
  420loPI   GL1 6709   7.859   0.703  10.424 -0.0694 -0.0298 -0.0011
  420loPI   GL2 6710   7.994   0.407  10.532 -0.1136  0.0376  0.2102
  420loPI   C1A 6711   7.727   0.763   9.942 -0.2185  0.1066  0.1597
  420loPI   C2A 6712   7.772   0.705   9.546 -0.0769 -0.2685  0.1522
  420loPI   C3A 6713   8.013   0.671   9.172 -0.0752  0.2176 -0.2398
  420loPI   C4A 6714   7.989   0.779   8.676 -0.2013 -0.1064 -0.0375
  420loPI   C5A 6715   8.063   0.811   8.250 -0.2293  0.2331  0.0627
  420loPI   C6A 6716   8.239   0.908   7.907  0.0069  0.3526  0.1658
  420loPI   C1B 6717   8.022   0.251  10.119  0.0790  0.1096  0.3474
  420loPI   C2B 6718   8.042   0.216   9.678  0.1404 -0.0377 -0.0600
  420loPI   C3B 6719   8.125   0.207   9.291 -0.1189  0.1265  0.0424
  420loPI   C4B 6720   8.278   0.174   8.885  0.1234  0.0593 -0.3833
  421loPI    C1 6721  14.377   2.791  10.721 -0.0682  0.6307 -0.1987
  421loPI    C2 6722  14.287   2.640  11.081 -0.2397  0.0381 -0.4780
  421loPI    C3 6723  14.545   2.943  11.051 -0.1085 -0.0006  0.1301
  421loPI   PO4 6724  14.151   2.681  10.587 -0.2671 -0.1892  0.1829
  421loPI   GL1 6725  14.026   2.600  10.235  0.2052  0.0044  0.1997
  421loPI   GL2 6726  13.715   2.544  10.149  0.1508 -0.1408 -0.1860
  421loPI   C1A 6727  14.144   2.275   9.909  0.1805 -0.2445  0.4381
  421loPI   C2A 6728  14.153   2.117   9.490  0.3254 -0.1961 -0.1739
  421loPI   C3A 6729  14.242   2.154   9.057 -0.1232 -0.0645  0.5390
  421loPI   C4A 6730  14.403   2.020   8.615  0.1930 -0.0539  0.0098
  421loPI   C5A 6731  14.415   2.063   8.188  0.0634 -0.0836  0.0490
  421loPI   C6A 6732  14.565   2.406   7.853 -0.0051 -0.2814  0.0191
  421loPI   C1B 6733  13.776   2.442   9.655  0.1472  0.0213  0.2522
  421loPI   C2B 6734  13.664   2.228   9.252 -0.1737  0.1795 -0.1620
  421loPI   C3B 6735  13.755   2.109   8.849 -0.0614  0.3438 -0.0091
  421loPI   C4B 6736  13.854   2.164   8.402  0.1683  0.0757  0.1817
  422loPI    C1 6737  15.966   2.976  10.806  0.0203 -0.2460  0.1233
  422loPI    C2 6738  16.056   2.627  10.980  0.0417 -0.0782  0.4583
  422loPI    C3 6739  15.735   2.833  11.100 -0.2412 -0.2018 -0.0579
  422loPI   PO4 6740  15.956   2.903  10.588 -0.2756  0.1469  0.0909
  422loPI   GL1 6741  16.107   2.572  10.220  0.1168 -0.0585 -0.0851
  422loPI   GL2 6742  15.836   2.327  10.168  0.0712 -0.1127 -0.0355
  422loPI   C1A 6743  16.076   2.581   9.827  0.0788  0.2148  0.1032
  422loPI   C2A 6744  16.134   2.532   9.428 -0.2779 -0.1080  0.1008
  422loPI   C3A 6745  16.094   2.537   9.046  0.3486 -0.0657  0.1198
  422loPI   C4A 6746  16.151   2.562   8.625  0.1316 -0.0188  0.1920
  422loPI   C5A 6747  16.089   2.704   8.228  0.0987  0.2092 -0.0549
  422loPI   C6A 6748  15.865   2.897   7.818 -0.1688 -0.3683  0.1269
  422loPI   C1B 6749  15.787   2.083   9.657  0.0091 -0.1118  0.1547
  422loPI   C2B 6750  15.766   2.061   9.179  0.0831  0.1514  0.0526
  422loPI   C3B 6751  15.874   2.014   8.814 -0.2614  0.1209  0.2434
  422loPI   C4B 6752  15.915   2.156   8.483 -0.0172  0.0954 -0.3617
  423loPI    C1 6753  14.426   5.236  10.953 -0.0675 -0.1612  0.0885
  423loPI    C2 6754  14.426   5.625  11.048  0.0677 -0.1032 -0.1418
  423loPI    C3 6755  14.194   5.370  11.250  0.0472  0.0814  0.0715
  423loPI   PO4 6756  14.638   5.181  10.848  0.1240 -0.1116 -0.1307
  423loPI   GL1 6757  14.833   5.151  10.467  0.0121  0.0189 -0.1267
  423loPI   GL2 6758  14.680   5.450  10.454 -0.0287 -0.2124  0.0145
  423loPI   C1A 6759  14.715   4.981  10.072  0.1455  0.1287  0.0192
  423loPI   C2A 6760  14.658   5.002   9.671 -0.0919  0.1223 -0.2134
  423loPI   C3A 6761  14.634   4.990   9.283 -0.0442 -0.0636  0.3494
  423loPI   C4A 6762  14.351   4.998   8.982 -0.0481 -0.1232  0.1255
  423loPI   C5A 6763  14.347   4.886   8.543 -0.1378 -0.2210 -0.0271
  423loPI   C6A 6764  14.091   4.671   8.236  0.0351 -0.0855  0.2137
  423loPI   C1B 6765  14.647   5.470   9.953 -0.0205 -0.0940 -0.2295
  423loPI   C2B 6766  14.572   5.439   9.513 -0.1601 -0.1431  0.0401
  423loPI   C3B 6767  14.560   5.481   9.078  0.0739  0.0272  0.1648
  423loPI   C4B 6768  14.446   5.371   8.663  0.0408 -0.1730  0.0986
  424loPI    C1 6769   4.552  14.045  10.373 -0.0157  0.1621 -0.0214
  424loPI    C2 6770   4.191  14.213  10.417 -0.0381  0.0933  0.0606
  424loPI    C3 6771   4.301  13.910  10.654 -0.0330 -0.0674 -0.1446
  424loPI   PO4 6772   4.560  14.003  10.184 -0.0975  0.2380 -0.1869
  424loPI   GL1 6773   4.746  13.910   9.904 -0.2234  0.0680  0.1462
  424loPI   GL2 6774   4.526  13.686   9.619  0.1670 -0.0515 -0.0637
  424loPI   C1A 6775   4.914  14.110   9.607  0.2080 -0.0109  0.0560
  424loPI   C2A 6776   4.974  14.163   9.124 -0.3245  0.3549  0.0954
  424loPI   C3A 6777   5.016  14.136   8.693  0.1672 -0.0672  0.1628
  424loPI   C4A 6778   4.960  14.239   8.262 -0.1948 -0.1342  0.0654
  424loPI   C5A 6779   4.730  14.213   7.874 -0.1089 -0.1166  0.1858
  424loPI   C6A 6780   4.707  14.070   7.489  0.0616 -0.0971  0.1086
  424loPI   C1B 6781   4.567  13.705   9.191 -0.1155 -0.1967  0.0552
  424loPI   C2B 6782   4.670  13.760   8.803  0.2315  0.3873  0.0588
  424loPI   C3B 6783   4.819  13.762   8.326 -0.0255 -0.2570  0.3558
  424loPI   C4B 6784   4.894  13.664   7.865 -0.1957 -0.0404 -0.0719
  425loPI    C1 6785   5.860   2.116  11.066  0.0093  0.2272  0.4041
  425loPI    C2 6786   5.540   1.884  11.129  0.2844 -0.2387  0.1430
  425loPI    C3 6787   5.751   2.022  11.439 -0.1531  0.0610  0.3169
  425loPI   PO4 6788   5.820   2.041  10.719 -0.0699 -0.3150 -0.1217
  425loPI   GL1 6789   5.771   2.212  10.237  0.1783 -0.0406  0.0654
  425loPI   GL2 6790   5.482   2.151   9.970 -0.1204  0.0140 -0.3323
  425loPI   C1A 6791   5.999   2.137   9.850 -0.2261 -0.4462 -0.2578
  425loPI   C2A 6792   6.074   2.194   9.456  0.2133  0.0488  0.1108
  425loPI   C3A 6793   6.102   2.104   9.070  0.0116 -0.3962 -0.0347
  425loPI   C4A 6794   6.188   2.183   8.637  0.0520 -0.2118 -0.0377
  425loPI   C5A 6795   6.396   2.277   8.297 -0.0064 -0.0752 -0.0104
  425loPI   C6A 6796   6.292   2.476   7.937  0.3091 -0.0728  0.3166
  425loPI   C1B 6797   5.492   2.121   9.534 -0.0124 -0.0367  0.1624
  425loPI   C2B 6798   5.543   2.167   9.067  0.0236  0.1183  0.1918
  425loPI   C3B 6799   5.648   2.168   8.679  0.0896 -0.0461 -0.0842
  425loPI   C4B 6800   5.879   2.096   8.238 -0.2539 -0.2724  0.1273
  426loPI    C1 6801   4.501  12.321  10.390  0.2097 -0.2014 -0.1904
  426loPI    C2 6802   4.158  12.132  10.470  0.0401  0.0326 -0.3524
  426loPI    C3 6803   4.353  12.324  10.762  0.0225 -0.0816 -0.2646
  426loPI   PO4 6804   4.442  12.510  10.215  0.1598  0.0388  0.0399
  426loPI   GL1 6805   4.093  12.784   9.875  0.0352 -0.0779  0.1713
  426loPI   GL2 6806   4.419  12.743   9.781 -0.0218 -0.0483  0.0490
  426loPI   C1A 6807   4.142  12.816   9.400  0.5032 -0.2205 -0.1235
  426loPI   C2A 6808   4.124  12.818   8.970  0.2357 -0.2226  0.1493
  426loPI   C3A 6809   4.224  12.902   8.514  0.1119  0.1632  0.0255
  426loPI   C4A 6810   4.165  12.933   8.156  0.0021 -0.0700 -0.2352
  426loPI   C5A 6811   4.027  13.113   7.771 -0.0084  0.4430  0.1577
  426loPI   C6A 6812   3.916  13.063   7.321 -0.2356 -0.1483 -0.4984
  426loPI   C1B 6813   4.638  12.721   9.394 -0.0858 -0.0560 -0.0477
  426loPI   C2B 6814   4.653  12.813   8.979 -0.0059  0.0922  0.0997
  426loPI   C3B 6815   4.730  12.875   8.588  0.2745  0.1837  0.1259
  426loPI   C4B 6816   4.672  12.860   8.265 -0.2817 -0.0383  0.3449
  427loPI    C1 6817   4.938  17.619  10.597  0.0948 -0.0766 -0.1297
  427loPI    C2 6818   5.278  17.517  10.412  0.1108 -0.1730 -0.0486
  427loPI    C3 6819   5.291  17.724  10.754  0.0827 -0.0402 -0.1271
  427loPI   PO4 6820   4.808  17.652  10.326 -0.2321  0.1292 -0.1312
  427loPI   GL1 6821   4.663  17.566  10.010 -0.0832  0.1311  0.5378
  427loPI   GL2 6822   5.003  17.374   9.987  0.0237 -0.0281 -0.0084
  427loPI   C1A 6823   4.735  17.915   9.707 -0.2867  0.1952  0.0886
  427loPI   C2A 6824   4.640  17.953   9.266 -0.3580 -0.0239  0.0937
  427loPI   C3A 6825   4.702  17.875   8.809  0.1704 -0.1188  0.0219
  427loPI   C4A 6826   4.585  17.818   8.390 -0.0627  0.0508 -0.0689
  427loPI   C5A 6827   4.797  17.850   8.028  0.1896 -0.0343 -0.0489
  427loPI   C6A 6828   4.754  17.504   7.752  0.1644  0.1146 -0.1687
  427loPI   C1B 6829   4.892  17.466   9.551 -0.1193 -0.3455  0.0779
  427loPI   C2B 6830   4.912  17.427   9.139  0.3370 -0.0556  0.2838
  427loPI   C3B 6831   4.901  17.405   8.700 -0.0771 -0.0439  0.0876
  427loPI   C4B 6832   4.913  17.430   8.268  0.0774  0.0455 -0.1249
  428loPI    C1 6833  16.127  11.839  10.935  0.3085 -0.1435  0.0748
  428loPI    C2 6834  15.915  11.558  10.747  0.0539  0.1004 -0.0099
  428loPI    C3 6835  15.849  11.632  11.134  0.0466  0.1154 -0.0140
  428loPI   PO4 6836  16.362  11.822  10.702  0.2711 -0.0052  0.0078
  428loPI   GL1 6837  16.391  11.952  10.290  0.3806 -0.1296 -0.0771
  428loPI   GL2 6838  16.319  12.188  10.189 -0.3740 -0.1924 -0.1534
  428loPI   C1A 6839  16.559  11.770   9.941 -0.2652 -0.0303  0.0534
  428loPI   C2A 6840  16.451  11.720   9.501  0.1951  0.1330  0.0506
  428loPI   C3A 6841  16.439  11.877   9.098  0.1543 -0.1599 -0.2355
  428loPI   C4A 6842  16.446  11.795   8.599  0.1073 -0.1469 -0.1843
  428loPI   C5A 6843  16.432  11.509   8.187  0.1281  0.0252  0.0389
  428loPI   C6A 6844  16.364  11.362   7.768  0.2469  0.0015 -0.0213
  428loPI   C1B 6845  16.301  12.203   9.826 -0.2829  0.1927  0.2312
  428loPI   C2B 6846  16.210  12.262   9.357 -0.0363 -0.2301 -0.1226
  428loPI   C3B 6847  16.150  12.224   8.880 -0.0025  0.3552  0.1394
  428loPI   C4B 6848  16.222  12.358   8.455 -0.2751  0.0183  0.0073
  429loPI    C1 6849   5.227  11.346  10.356 -0.0965 -0.3066  0.0741
  429loPI    C2 6850   4.872  11.529  10.327 -0.0116 -0.1589 -0.0482
  429loPI    C3 6851   4.889  11.139  10.415 -0.2036 -0.1662 -0.0386
  429loPI   PO4 6852   5.307  11.409  10.124 -0.1539 -0.2419 -0.0597
  429loPI   GL1 6853   5.402  11.478   9.769  0.0283  0.1496  0.0398
  429loPI   GL2 6854   5.403  11.268   9.568  0.2550  0.0126  0.5632
  429loPI   C1A 6855   5.165  11.728   9.438 -0.1085 -0.3880 -0.0710
  429loPI   C2A 6856   5.184  11.880   9.017 -0.2093 -0.0301  0.1637
  429loPI   C3A 6857   5.215  11.936   8.607 -0.0184 -0.0197 -0.1540
  429loPI   C4A 6858   5.152  12.016   8.191 -0.0541  0.0565  0.0806
  429loPI   C5A 6859   5.362  11.866   7.818 -0.0536  0.3038  0.0217
  429loPI   C6A 6860   5.722  11.704   7.630 -0.0850  0.1660 -0.0770
  429loPI   C1B 6861   5.384  11.460   9.127  0.0247  0.0960 -0.1163
  429loPI   C2B 6862   5.404  11.512   8.692  0.2520 -0.1601  0.0029
  429loPI   C3B 6863   5.378  11.574   8.300 -0.1659 -0.0229  0.2137
  429loPI   C4B 6864   5.568  11.312   7.982  0.3386  0.1541  0.1641
  430loPI    C1 6865   1.781   9.558  10.302  0.0741  0.0301  0.2626
  430loPI    C2 6866   1.583   9.817  10.534  0.1293  0.1703  0.1546
  430loPI    C3 6867   1.849   9.567  10.696  0.2474  0.3424  0.2291
  430loPI   PO4 6868   1.812   9.646  10.078  0.0431 -0.1639  0.1180
  430loPI   GL1 6869   1.794   9.554   9.696 -0.0000 -0.0966  0.1684
  430loPI   GL2 6870   1.463   9.513   9.591 -0.2550  0.0532  0.0873
  430loPI   C1A 6871   1.798   9.853   9.377  0.2666  0.0734  0.1284
  430loPI   C2A 6872   1.853   9.901   9.047  0.0352  0.2186  0.0771
  430loPI   C3A 6873   1.779   9.761   8.631 -0.0931  0.4869 -0.2699
  430loPI   C4A 6874   1.842   9.678   8.265 -0.3442  0.0276 -0.2350
  430loPI   C5A 6875   1.929   9.739   7.873  0.0356 -0.1045  0.2793
  430loPI   C6A 6876   2.101   9.870   7.420 -0.1430  0.2192 -0.0441
  430loPI   C1B 6877   1.409   9.444   9.192 -0.2035  0.2028  0.2286
  430loPI   C2B 6878   1.292   9.571   8.837 -0.0490 -0.3101 -0.0955
  430loPI   C3B 6879   1.340   9.682   8.356  0.0468  0.0706 -0.2565
  430loPI   C4B 6880   1.349   9.781   7.945 -0.0567 -0.1404 -0.0635
  431loPI    C1 6881   0.111   2.269  10.760  0.0973 -0.2187 -0.1745
  431loPI    C2 6882   0.077   1.877  10.830 -0.1507 -0.1618  0.0408
  431loPI    C3 6883  -0.023   2.140  11.114  0.3041  0.0559  0.0084
  431loPI   PO4 6884   0.165   2.221  10.496  0.0067  0.0560 -0.0125
  431loPI   GL1 6885  -0.024   2.236  10.017  0.2131 -0.1926  0.0144
  431loPI   GL2 6886   0.219   2.404  10.028  0.2847  0.1435  0.2959
  431loPI   C1A 6887  -0.271   2.472   9.699  0.0932  0.1719  0.0046
  431loPI   C2A 6888  -0.270   2.481   9.329 -0.2685  0.2534 -0.0642
  431loPI   C3A 6889  -0.176   2.475   8.917 -0.0012  0.0247  0.1492
  431loPI   C4A 6890  -0.260   2.446   8.506  0.0102  0.1738 -0.2397
  431loPI   C5A 6891  -0.396   2.246   8.255  0.0094 -0.2139  0.0753
  431loPI   C6A 6892  -0.299   2.142   7.875 -0.1358  0.1564  0.0269
  431loPI   C1B 6893   0.189   2.388   9.591 -0.0014  0.1218  0.3253
  431loPI   C2B 6894   0.232   2.478   9.271  0.2266  0.4061  0.2895
  431loPI   C3B 6895   0.286   2.433   8.775  0.2619  0.0572  0.0205
  431loPI   C4B 6896   0.291   2.440   8.420 -0.1918  0.0015  0.1116
  432loPI    C1 6897   8.073  16.059  10.822 -0.0747  0.1288 -0.1097
  432loPI    C2 6898   8.367  16.248  11.017  0.0082  0.0172 -0.1249
  432loPI    C3 6899   7.985  16.318  11.114  0.0435  0.0761 -0.0259
  432loPI   PO4 6900   8.082  15.847  10.779 -0.1630  0.1760  0.3693
  432loPI   GL1 6901   8.408  15.729  10.494  0.1945 -0.1419 -0.1575
  432loPI   GL2 6902   8.711  15.607  10.311 -0.2470 -0.2068 -0.0297
  432loPI   C1A 6903   8.246  15.952  10.084  0.2528 -0.0867 -0.1412
  432loPI   C2A 6904   8.253  15.995   9.682 -0.2596  0.3347  0.3538
  432loPI   C3A 6905   8.235  15.934   9.293 -0.2037 -0.2930  0.0111
  432loPI   C4A 6906   8.290  15.973   8.787  0.1478  0.2120  0.0077
  432loPI   C5A 6907   8.158  16.026   8.467  0.0242 -0.3799  0.3185
  432loPI   C6A 6908   7.828  16.349   8.519  0.3559 -0.2255  0.0168
  432loPI   C1B 6909   8.949  15.553   9.911  0.1923  0.2585 -0.1027
  432loPI   C2B 6910   8.994  15.464   9.479  0.2043  0.0682 -0.1259
  432loPI   C3B 6911   9.019  15.350   9.042  0.0310 -0.2259 -0.0980
  432loPI   C4B 6912   9.083  15.288   8.601  0.0951 -0.1286  0.1052
  433loPI    C1 6913  14.779   3.400  10.825  0.0906 -0.1227 -0.1452
  433loPI    C2 6914  15.173   3.354  10.872  0.0946 -0.1147 -0.1714
  433loPI    C3 6915  14.966   3.576  11.132  0.1289 -0.0116 -0.2317
  433loPI   PO4 6916  14.754   3.427  10.557  0.4160  0.2431 -0.4304
  433loPI   GL1 6917  14.674   3.142  10.188 -0.0691 -0.0245  0.0177
  433loPI   GL2 6918  14.425   2.948  10.248 -0.0240  0.0998  0.0979
  433loPI   C1A 6919  14.728   2.996   9.774  0.0788 -0.1378 -0.0634
  433loPI   C2A 6920  14.635   2.932   9.370  0.0643 -0.0082  0.0064
  433loPI   C3A 6921  14.829   2.898   8.990 -0.0602 -0.0455  0.1432
  433loPI   C4A 6922  14.882   2.997   8.486 -0.1117 -0.1063 -0.2057
  433loPI   C5A 6923  14.902   2.666   8.105 -0.4559 -0.2529 -0.0856
  433loPI   C6A 6924  15.302   2.315   7.987  0.0199 -0.0107  0.4951
  433loPI   C1B 6925  14.256   2.814   9.839  0.2551 -0.2542 -0.1299
  433loPI   C2B 6926  14.138   2.799   9.423  0.1558  0.4207  0.3366
  433loPI   C3B 6927  13.978   2.563   9.139 -0.0767  0.0871 -0.1131
  433loPI   C4B 6928  13.903   2.620   8.671 -0.1020  0.0194 -0.0784
  434loPI    C1 6929  14.695  16.336  10.912  0.0569  0.1378  0.0881
  434loPI    C2 6930  14.854  16.294  11.277  0.0387  0.2817  0.1131
  434loPI    C3 6931  14.457  16.282  11.229  0.0361  0.3654  0.1127
  434loPI   PO4 6932  14.809  16.121  10.735  0.0172 -0.0870 -0.2742
  434loPI   GL1 6933  14.926  16.257  10.407 -0.1831  0.0270  0.0194
  434loPI   GL2 6934  15.044  16.449  10.330  0.2193 -0.4218  0.0117
  434loPI   C1A 6935  14.807  16.058  10.042  0.0380  0.2800 -0.0568
  434loPI   C2A 6936  14.807  16.011   9.651  0.0592 -0.3181  0.0383
  434loPI   C3A 6937  14.803  15.941   9.299 -0.2138  0.1923  0.1997
  434loPI   C4A 6938  14.797  16.040   8.830  0.2650 -0.3478  0.1272
  434loPI   C5A 6939  14.998  15.989   8.481 -0.2293  0.0457 -0.1256
  434loPI   C6A 6940  15.093  15.689   8.206  0.1397  0.1776 -0.2008
  434loPI   C1B 6941  15.142  16.512   9.909  0.2773 -0.0804  0.0877
  434loPI   C2B 6942  15.133  16.424   9.460 -0.0327 -0.1787 -0.0656
  434loPI   C3B 6943  15.057  16.452   9.041 -0.2677  0.1482 -0.1996
  434loPI   C4B 6944  15.023  16.470   8.690 -0.2627 -0.1165  0.2331
  435loPI    C1 6945   7.380  12.394  10.775 -0.1874  0.0647 -0.5237
  435loPI    C2 6946   7.509  12.773  10.776  0.1154 -0.0281  0.0508
  435loPI    C3 6947   7.192  12.668  10.997 -0.0244 -0.0952 -0.1787
  435loPI   PO4 6948   7.356  12.363  10.515  0.0010 -0.2203 -0.1690
  435loPI   GL1 6949   7.136  12.513  10.165 -0.0904  0.0206  0.1102
  435loPI   GL2 6950   7.155  12.778  10.321 -0.2444  0.2070  0.1222
  435loPI   C1A 6951   7.190  12.641   9.728  0.1002 -0.1084 -0.2729
  435loPI   C2A 6952   7.255  12.648   9.298  0.1027  0.0755 -0.1638
  435loPI   C3A 6953   7.309  12.669   8.879 -0.1624  0.2117  0.3284
  435loPI   C4A 6954   7.287  12.566   8.473 -0.1758 -0.2902 -0.1465
  435loPI   C5A 6955   6.929  12.648   8.173 -0.1390 -0.1813 -0.1817
  435loPI   C6A 6956   6.970  12.959   7.822  0.0817 -0.2190 -0.0985
  435loPI   C1B 6957   7.316  13.041  10.037 -0.0756 -0.0299  0.3007
  435loPI   C2B 6958   7.430  13.070   9.547 -0.1027  0.1872 -0.0489
  435loPI   C3B 6959   7.490  13.092   9.136 -0.4439  0.2348 -0.3436
  435loPI   C4B 6960   7.589  13.129   8.729  0.0642 -0.0382  0.1054
  436loPI    C1 6961  11.086  14.786  11.257  0.3375  0.1161 -0.0597
  436loPI    C2 6962  10.930  14.529  11.520  0.2967  0.3233  0.1210
  436loPI    C3 6963  11.191  14.807  11.642  0.1393  0.5375 -0.0229
  436loPI   PO4 6964  11.204  14.688  11.019  0.0379  0.1519  0.1203
  436loPI   GL1 6965  11.316  14.653  10.630 -0.2704 -0.0004  0.0865
  436loPI   GL2 6966  11.387  14.986  10.579  0.1565 -0.1309 -0.1928
  436loPI   C1A 6967  11.280  14.698  10.183 -0.0612  0.0935  0.0474
  436loPI   C2A 6968  11.263  14.774   9.718  0.0295 -0.3609 -0.0197
  436loPI   C3A 6969  11.321  14.709   9.365 -0.0065 -0.3147  0.1502
  436loPI   C4A 6970  11.341  14.676   8.965 -0.1583 -0.1270  0.1747
  436loPI   C5A 6971  11.460  14.920   8.654  0.1895 -0.1333  0.0401
  436loPI   C6A 6972  11.608  15.238   8.439  0.3724 -0.0057 -0.3128
  436loPI   C1B 6973  11.501  15.144  10.212 -0.0443 -0.0282 -0.1126
  436loPI   C2B 6974  11.611  15.187   9.725  0.0357  0.1639  0.2025
  436loPI   C3B 6975  11.623  15.285   9.364 -0.2679  0.0489  0.2758
  436loPI   C4B 6976  11.662  15.202   8.976 -0.1387  0.0993 -0.0982
  437loPI    C1 6977   2.912  16.286  10.744  0.2626 -0.0220  0.0729
  437loPI    C2 6978   2.843  16.487  11.084  0.2896 -0.0382  0.0880
  437loPI    C3 6979   2.839  16.087  11.084  0.0362 -0.0376  0.0171
  437loPI   PO4 6980   2.680  16.297  10.606 -0.1381  0.4292  0.1585
  437loPI   GL1 6981   2.460  16.123  10.273  0.1072  0.1532  0.1711
  437loPI   GL2 6982   2.661  16.036  10.200 -0.0069  0.0171 -0.2125
  437loPI   C1A 6983   2.412  16.141   9.802 -0.2537  0.2342 -0.1583
  437loPI   C2A 6984   2.458  16.152   9.350 -0.2880  0.3937  0.1072
  437loPI   C3A 6985   2.505  16.218   8.958 -0.0598  0.0742  0.1230
  437loPI   C4A 6986   2.343  16.057   8.610  0.0560  0.1403  0.0758
  437loPI   C5A 6987   2.202  15.636   8.441  0.0916 -0.0842 -0.1228
  437loPI   C6A 6988   2.009  15.299   8.161 -0.0278 -0.0507 -0.0449
  437loPI   C1B 6989   2.866  15.941   9.775  0.0639  0.0233 -0.1636
  437loPI   C2B 6990   2.912  15.987   9.332 -0.2414 -0.1532 -0.0448
  437loPI   C3B 6991   2.946  16.062   8.960 -0.3124 -0.0593  0.1697
  437loPI   C4B 6992   2.984  16.128   8.608 -0.2142 -0.0009  0.2149
  438loPI    C1 6993  16.613   9.335  10.914 -0.0025 -0.2160 -0.1243
  438loPI    C2 6994  16.452   9.636  11.124 -0.0506 -0.1790 -0.2138
  438loPI    C3 6995  16.814   9.495  11.221 -0.0365 -0.1057 -0.1590
  438loPI   PO4 6996  16.566   9.384  10.711  0.0062 -0.1713  0.0879
  438loPI   GL1 6997  16.782   9.639  10.546  0.1243 -0.1955  0.2659
  438loPI   GL2 6998  16.806   9.936  10.463 -0.0564  0.2461  0.0560
  438loPI   C1A 6999  16.655   9.478  10.071  0.2112 -0.2225 -0.2275
  438loPI   C2A 7000  16.635   9.547   9.616  0.2383 -0.0935  0.0743
  438loPI   C3A 7001  16.666   9.500   9.152  0.2407 -0.0401 -0.2637
  438loPI   C4A 7002  16.513   9.555   8.812  0.2036  0.3378 -0.0664
  438loPI   C5A 7003  16.522   9.496   8.389  0.2252  0.2651 -0.0936
  438loPI   C6A 7004  16.564   9.228   8.057  0.1302 -0.0474 -0.3145
  438loPI   C1B 7005  16.894   9.995  10.065 -0.1494  0.0611  0.2060
  438loPI   C2B 7006  16.923  10.017   9.590 -0.1054  0.2238  0.1160
  438loPI   C3B 7007  16.880   9.994   9.079  0.2547 -0.2199  0.0950
  438loPI   C4B 7008  16.877   9.970   8.682  0.1475 -0.2600 -0.2278
  439loPI    C1 7009  12.486   6.861  11.522  0.2297  0.2099  0.0238
  439loPI    C2 7010  12.308   6.666  11.822 -0.0215 -0.0270 -0.2721
  439loPI    C3 7011  12.223   7.051  11.756  0.1766  0.0796  0.0708
  439loPI   PO4 7012  12.701   6.595  11.311 -0.0391 -0.0383 -0.0042
  439loPI   GL1 7013  12.878   6.650  10.888  0.1845 -0.1753 -0.0680
  439loPI   GL2 7014  12.987   6.478  10.667 -0.1333 -0.0927 -0.0981
  439loPI   C1A 7015  12.719   6.883  10.466 -0.2982  0.2132 -0.1415
  439loPI   C2A 7016  12.865   6.906  10.050 -0.2695  0.3556  0.0779
  439loPI   C3A 7017  12.859   6.952   9.618 -0.0519  0.2559 -0.2971
  439loPI   C4A 7018  12.829   6.781   9.174  0.1011  0.0725 -0.0384
  439loPI   C5A 7019  12.807   7.051   8.774  0.1698 -0.0930  0.0034
  439loPI   C6A 7020  13.057   7.237   8.396 -0.1423 -0.1058  0.3188
  439loPI   C1B 7021  13.102   6.501  10.315  0.1007 -0.1874 -0.3009
  439loPI   C2B 7022  13.179   6.557   9.839  0.2244 -0.0963 -0.0500
  439loPI   C3B 7023  13.087   6.441   9.389  0.2252 -0.1329  0.2386
  439loPI   C4B 7024  13.008   6.328   9.000  0.0959  0.0458 -0.0238
  440loPI    C1 7025  13.756  13.387  11.026  0.0647  0.1648 -0.0417
  440loPI    C2 7026  14.111  13.500  11.170  0.1026 -0.0289  0.0210
  440loPI    C3 7027  13.827  13.369  11.419  0.1784 -0.3932 -0.0785
  440loPI   PO4 7028  13.680  13.544  10.773  0.0262  0.0920 -0.1337
  440loPI   GL1 7029  13.971  13.714  10.434 -0.0890 -0.1088 -0.0906
  440loPI   GL2 7030  14.269  13.740  10.631  0.2590 -0.0922 -0.2083
  440loPI   C1A 7031  13.910  13.714   9.999  0.3795 -0.1064 -0.1244
  440loPI   C2A 7032  13.895  13.719   9.510 -0.1413 -0.0765  0.2532
  440loPI   C3A 7033  13.940  13.685   9.069  0.0133 -0.3350 -0.4466
  440loPI   C4A 7034  14.046  13.764   8.659 -0.0464  0.3530  0.0573
  440loPI   C5A 7035  14.026  13.757   8.249 -0.1756 -0.1840  0.0410
  440loPI   C6A 7036  14.037  14.204   8.067  0.1236  0.0832  0.0754
  440loPI   C1B 7037  14.394  13.663  10.181  0.0201  0.0489 -0.0199
  440loPI   C2B 7038  14.393  13.641   9.773  0.0313  0.0776 -0.0682
  440loPI   C3B 7039  14.511  13.657   9.320  0.1969 -0.0910  0.0247
  440loPI   C4B 7040  14.480  13.777   8.891  0.1760  0.0730  0.0119
  441loPI    C1 7041   9.412  16.513  11.053  0.0603  0.0409 -0.0954
  441loPI    C2 7042   9.420  16.788  11.343 -0.0531  0.1287 -0.1745
  441loPI    C3 7043   9.377  16.401  11.435 -0.0483  0.1521 -0.0722
  441loPI   PO4 7044   9.251  16.558  10.918 -0.1692 -0.0636  0.1379
  441loPI   GL1 7045   9.429  16.431  10.528  0.1230 -0.1531  0.0795
  441loPI   GL2 7046   9.126  16.463  10.420 -0.0863  0.0896 -0.0125
  441loPI   C1A 7047   9.545  16.435  10.078 -0.1722  0.2578  0.0670
  441loPI   C2A 7048   9.557  16.323   9.646 -0.1717  0.0469  0.3942
  441loPI   C3A 7049   9.609  16.285   9.253  0.1227 -0.2523  0.0881
  441loPI   C4A 7050   9.630  16.120   8.822 -0.0003  0.1140  0.0678
  441loPI   C5A 7051   9.576  16.173   8.314  0.0504 -0.2451  0.0201
  441loPI   C6A 7052   9.318  16.520   8.066  0.0688 -0.1588 -0.3156
  441loPI   C1B 7053   9.044  16.425   9.988  0.1260  0.1285  0.2728
  441loPI   C2B 7054   9.078  16.385   9.539 -0.1613 -0.1684  0.2119
  441loPI   C3B 7055   9.128  16.325   9.075  0.0129  0.0320  0.2106
  441loPI   C4B 7056   9.248  16.395   8.638 -0.0364 -0.0240  0.0915
  442loPI    C1 7057   8.296   0.057  11.166  0.1364  0.1004  0.1635
  442loPI    C2 7058   8.293  -0.314  11.315  0.0623  0.0914  0.1401
  442loPI    C3 7059   8.092  -0.022  11.500 -0.1141  0.0582  0.0031
  442loPI   PO4 7060   8.574   0.097  11.091  0.1936  0.2001  0.1752
  442loPI   GL1 7061   8.755   0.080  10.734 -0.3351  0.2867  0.0377
  442loPI   GL2 7062   8.651  -0.328  10.764  0.0090 -0.0348 -0.0419
  442loPI   C1A 7063   8.954   0.278  10.369 -0.1760  0.2005 -0.2658
  442loPI   C2A 7064   9.081   0.240   9.908  0.2988 -0.3198  0.1867
  442loPI   C3A 7065   9.082   0.251   9.487  0.0372  0.1080  0.2295
  442loPI   C4A 7066   9.289   0.218   9.094  0.0415  0.0402  0.2046
  442loPI   C5A 7067   9.364   0.500   8.822 -0.0232  0.3324 -0.2074
  442loPI   C6A 7068   9.582   0.626   8.493 -0.0903  0.2399 -0.0516
  442loPI   C1B 7069   8.737  -0.233  10.333 -0.0345  0.0010  0.2000
  442loPI   C2B 7070   8.747  -0.176   9.959 -0.0776 -0.1336  0.0523
  442loPI   C3B 7071   8.876  -0.299   9.587 -0.1977 -0.2200 -0.0932
  442loPI   C4B 7072   8.993  -0.198   9.105  0.0353  0.3736  0.1189
  443loPI    C1 7073   6.454  14.937  10.604  0.1891 -0.0459 -0.1857
  443loPI    C2 7074   6.443  15.337  10.610 -0.2567 -0.0536  0.3041
  443loPI    C3 7075   6.757  15.144  10.765  0.0194  0.0994 -0.0483
  443loPI   PO4 7076   6.292  14.874  10.421 -0.2418  0.0413 -0.2643
  443loPI   GL1 7077   6.217  15.032  10.084  0.0359 -0.2203 -0.1122
  443loPI   GL2 7078   6.364  15.318  10.097 -0.2596 -0.2519 -0.1925
  443loPI   C1A 7079   6.178  15.177   9.687 -0.1958  0.2551 -0.0617
  443loPI   C2A 7080   6.221  15.227   9.265 -0.2172 -0.1632  0.0940
  443loPI   C3A 7081   6.111  15.132   8.833  0.0952  0.3469  0.1025
  443loPI   C4A 7082   6.200  15.301   8.381  0.3101  0.0472 -0.2453
  443loPI   C5A 7083   6.377  15.398   7.955 -0.1880  0.1867  0.1406
  443loPI   C6A 7084   6.305  15.511   7.505 -0.1133  0.0892  0.0832
  443loPI   C1B 7085   6.342  15.621   9.770  0.2674 -0.3039 -0.3490
  443loPI   C2B 7086   6.443  15.672   9.359  0.2417 -0.0015  0.1216
  443loPI   C3B 7087   6.444  15.610   8.972 -0.3673  0.0453  0.2100
  443loPI   C4B 7088   6.537  15.688   8.558 -0.1624 -0.2694  0.0171
  444loPI    C1 7089   1.844   7.886  10.560  0.1883 -0.0302  0.1330
  444loPI    C2 7090   2.178   7.820  10.770  0.2085  0.0220  0.1177
  444loPI    C3 7091   1.829   7.869  10.959  0.2351  0.1202  0.1420
  444loPI   PO4 7092   1.748   7.748  10.345  0.4663 -0.0901 -0.1752
  444loPI   GL1 7093   1.638   7.791   9.892  0.2084 -0.0190 -0.3135
  444loPI   GL2 7094   1.406   7.782   9.756 -0.1841  0.3429 -0.0595
  444loPI   C1A 7095   1.818   7.610   9.510  0.2600 -0.2338  0.0645
  444loPI   C2A 7096   1.879   7.469   9.091 -0.3392 -0.0762  0.0862
  444loPI   C3A 7097   1.704   7.408   8.763  0.0446  0.0180  0.0811
  444loPI   C4A 7098   1.636   7.532   8.307 -0.2520 -0.0826 -0.1861
  444loPI   C5A 7099   1.776   7.369   7.945  0.0706  0.0329 -0.0601
  444loPI   C6A 7100   1.888   7.581   7.515 -0.1813 -0.0444  0.1191
  444loPI   C1B 7101   1.350   7.518   9.382  0.0533 -0.0109 -0.2269
  444loPI   C2B 7102   1.252   7.453   9.020 -0.0497 -0.1351  0.1288
  444loPI   C3B 7103   1.205   7.519   8.608  0.1625 -0.3446 -0.3873
  444loPI   C4B 7104   0.921   7.805   8.402 -0.0105 -0.0557 -0.1345
  445loPI    C1 7105  17.064  12.346  10.801  0.0068  0.0743  0.1247
  445loPI    C2 7106  17.306  12.402  11.114 -0.0193 -0.0026  0.1589
  445loPI    C3 7107  16.916  12.485  11.145 -0.0199  0.0003  0.1434
  445loPI   PO4 7108  17.345  12.401  10.614 -0.2624  0.0747 -0.2416
  445loPI   GL1 7109  17.589  12.376  10.239 -0.0008  0.0475  0.0909
  445loPI   GL2 7110  17.528  12.665  10.172  0.1204 -0.2092 -0.0767
  445loPI   C1A 7111  17.346  12.187   9.918 -0.0393 -0.2409  0.0387
  445loPI   C2A 7112  17.175  12.241   9.505 -0.2876  0.1454 -0.0646
  445loPI   C3A 7113  17.198  12.267   9.176 -0.0984  0.1217  0.1527
  445loPI   C4A 7114  17.203  12.276   8.754 -0.0189  0.0475 -0.0102
  445loPI   C5A 7115  17.170  12.196   8.338 -0.1220  0.2613  0.0111
  445loPI   C6A 7116  17.173  12.548   8.101  0.0466  0.0328  0.0264
  445loPI   C1B 7117  17.557  12.645   9.764  0.1524 -0.2602  0.1377
  445loPI   C2B 7118  17.516  12.638   9.352 -0.1270 -0.1307 -0.2583
  445loPI   C3B 7119  17.524  12.729   8.892  0.0426 -0.0615 -0.0312
  445loPI   C4B 7120  17.552  12.813   8.472 -0.1501  0.2215  0.2288
  446loPI    C1 7121  14.923  10.915  11.253  0.3195 -0.2987  0.1399
  446loPI    C2 7122  15.090  11.016  11.602  0.3004  0.1432  0.0269
  446loPI    C3 7123  14.709  10.895  11.590  0.3519 -0.0384  0.1776
  446loPI   PO4 7124  15.100  11.015  11.053  0.0095  0.2707  0.1332
  446loPI   GL1 7125  15.234  11.002  10.634  0.0738 -0.1490 -0.3246
  446loPI   GL2 7126  14.985  11.067  10.396  0.1343  0.1091  0.0126
  446loPI   C1A 7127  15.426  10.884  10.284 -0.2059  0.0753 -0.0631
  446loPI   C2A 7128  15.471  10.996   9.838 -0.1891  0.0729  0.1954
  446loPI   C3A 7129  15.411  10.969   9.452 -0.1883  0.1856 -0.0566
  446loPI   C4A 7130  15.382  10.847   9.060 -0.3437 -0.0359 -0.1852
  446loPI   C5A 7131  15.405  10.803   8.583 -0.0601  0.1051  0.2496
  446loPI   C6A 7132  15.360  10.459   8.277  0.0620  0.1213  0.5229
  446loPI   C1B 7133  14.993  10.912   9.963  0.2132  0.2278  0.0128
  446loPI   C2B 7134  14.940  10.995   9.520  0.0725 -0.0623  0.2967
  446loPI   C3B 7135  14.869  10.923   9.067  0.1916 -0.3234 -0.0921
  446loPI   C4B 7136  14.701  10.917   8.658  0.0866  0.1286 -0.0228
  447loPI    C1 7137   6.592   5.278  10.819  0.2163 -0.0759 -0.3715
  447loPI    C2 7138   6.594   5.237  11.217 -0.0349 -0.3175 -0.3913
  447loPI    C3 7139   6.792   5.540  11.046 -0.0837 -0.0993 -0.0718
  447loPI   PO4 7140   6.632   5.070  10.646 -0.1265  0.0113  0.4452
  447loPI   GL1 7141   6.705   5.031  10.189 -0.0202  0.0327  0.0874
  447loPI   GL2 7142   6.906   5.254  10.240 -0.0259 -0.2476  0.1563
  447loPI   C1A 7143   6.720   4.912   9.641 -0.2306 -0.1163  0.0390
  447loPI   C2A 7144   6.719   4.720   9.237 -0.0163  0.0286  0.2265
  447loPI   C3A 7145   6.845   4.729   8.832 -0.3122  0.1523 -0.0513
  447loPI   C4A 7146   6.694   4.677   8.420 -0.1861  0.0642  0.1825
  447loPI   C5A 7147   6.295   4.578   8.193 -0.2449 -0.0560  0.0586
  447loPI   C6A 7148   5.805   4.559   8.040 -0.0650  0.1959  0.0535
  447loPI   C1B 7149   7.055   5.333   9.782  0.0296  0.0426  0.0868
  447loPI   C2B 7150   6.992   5.268   9.373 -0.0671  0.1347  0.0117
  447loPI   C3B 7151   7.024   5.254   8.965  0.0020  0.0350 -0.0571
  447loPI   C4B 7152   7.016   5.101   8.559  0.1392 -0.0977  0.0986
  448loPI    C1 7153  16.475   8.364  10.810 -0.1026  0.0742  0.3428
  448loPI    C2 7154  16.467   8.163  11.156  0.1051 -0.1489  0.2206
  448loPI    C3 7155  16.778   8.400  11.069  0.0676 -0.1168  0.1737
  448loPI   PO4 7156  16.216   8.334  10.718 -0.3913  0.0355 -0.3882
  448loPI   GL1 7157  15.969   8.552  10.375 -0.1185  0.0962  0.0622
  448loPI   GL2 7158  15.616   8.695  10.288  0.1018 -0.0611  0.0093
  448loPI   C1A 7159  16.143   8.634   9.931  0.0215  0.1260 -0.0877
  448loPI   C2A 7160  16.167   8.558   9.520 -0.0708 -0.1295 -0.0512
  448loPI   C3A 7161  16.101   8.593   9.048  0.0735  0.0513  0.0935
  448loPI   C4A 7162  16.182   8.545   8.612  0.1556 -0.0885  0.3855
  448loPI   C5A 7163  16.466   8.598   8.281 -0.0794  0.2143 -0.0117
  448loPI   C6A 7164  16.693   8.277   8.163  0.0578 -0.0633 -0.0661
  448loPI   C1B 7165  15.661   8.540   9.897  0.2470  0.2767 -0.3720
  448loPI   C2B 7166  15.657   8.561   9.483  0.2344  0.1685 -0.0393
  448loPI   C3B 7167  15.502   8.574   9.047 -0.0836  0.0926 -0.0044
  448loPI   C4B 7168  15.708   8.633   8.674 -0.4323  0.0405 -0.2955
  449loPI    C1 7169  16.710  16.127  11.243 -0.0759  0.1648 -0.0877
  449loPI    C2 7170  16.964  16.431  11.298  0.1728 -0.0339 -0.1182
  449loPI    C3 7171  17.055  16.067  11.437 -0.1095 -0.1023 -0.1070
  449loPI   PO4 7172  16.633  16.126  10.948 -0.1284  0.0795 -0.3224
  449loPI   GL1 7173  16.741  16.177  10.508  0.0802 -0.5397  0.2788
  449loPI   GL2 7174  16.889  15.926  10.429  0.0718  0.0466  0.1423
  449loPI   C1A 7175  16.421  16.055  10.185 -0.2121 -0.2585 -0.1911
  449loPI   C2A 7176  16.418  15.964   9.808 -0.4476  0.1410 -0.0978
  449loPI   C3A 7177  16.451  15.886   9.447 -0.0297 -0.1673  0.1632
  449loPI   C4A 7178  16.444  15.928   9.049  0.1320 -0.0980  0.0566
  449loPI   C5A 7179  16.425  16.137   8.663 -0.0876  0.0039  0.1904
  449loPI   C6A 7180  16.716  15.891   8.347  0.0158  0.0802 -0.3482
  449loPI   C1B 7181  16.861  15.887  10.032  0.3278 -0.5447 -0.1390
  449loPI   C2B 7182  16.935  15.803   9.617 -0.1556  0.2167 -0.1387
  449loPI   C3B 7183  16.936  15.959   9.225  0.0023  0.0864  0.0237
  449loPI   C4B 7184  16.886  15.964   8.812  0.0010 -0.2373 -0.3720
  450loPI    C1 7185   8.285  11.600  10.943 -0.1472  0.0215 -0.1967
  450loPI    C2 7186   8.336  11.838  11.260  0.0183 -0.1641 -0.0816
  450loPI    C3 7187   8.026  11.896  11.014  0.1912  0.3234 -0.1961
  450loPI   PO4 7188   8.496  11.589  10.776 -0.1326 -0.3896 -0.3739
  450loPI   GL1 7189   8.724  11.676  10.478 -0.1761 -0.3488 -0.0871
  450loPI   GL2 7190   8.432  11.563  10.268 -0.2583 -0.1412 -0.0438
  450loPI   C1A 7191   8.881  11.984  10.063 -0.0813  0.0859  0.0250
  450loPI   C2A 7192   8.975  12.061   9.693  0.3846 -0.1989 -0.2329
  450loPI   C3A 7193   8.961  12.099   9.268 -0.0716  0.0252  0.0937
  450loPI   C4A 7194   8.999  12.061   8.877  0.0569  0.1663 -0.0010
  450loPI   C5A 7195   9.023  12.092   8.470  0.0354  0.1442  0.3063
  450loPI   C6A 7196   9.075  11.772   8.144 -0.0534 -0.2946  0.2410
  450loPI   C1B 7197   8.509  11.674   9.888  0.0136 -0.3360  0.1205
  450loPI   C2B 7198   8.612  11.745   9.513 -0.0421  0.0412 -0.0148
  450loPI   C3B 7199   8.734  11.689   9.119  0.1117  0.3088  0.3366
  450loPI   C4B 7200   8.851  11.548   8.783  0.3542 -0.0543  0.1519
  451loPI    C1 7201   0.043   0.514  10.695  0.1247 -0.0084 -0.1963
  451loPI    C2 7202   0.199   0.857  10.830 -0.0661  0.0146 -0.0291
  451loPI    C3 7203  -0.146   0.860  10.628 -0.1473 -0.0932  0.1058
  451loPI   PO4 7204   0.275   0.369  10.536  0.0250 -0.1161  0.2550
  451loPI   GL1 7205   0.342   0.062  10.162 -0.0505  0.0997 -0.1802
  451loPI   GL2 7206   0.062   0.147  10.057 -0.0119 -0.2446 -0.0423
  451loPI   C1A 7207   0.457   0.071   9.721 -0.2093  0.0847 -0.0712
  451loPI   C2A 7208   0.405   0.015   9.268  0.2744 -0.0787  0.3362
  451loPI   C3A 7209   0.435   0.050   8.845  0.1889  0.1054  0.1743
  451loPI   C4A 7210   0.460  -0.116   8.402  0.1297  0.0377  0.1275
  451loPI   C5A 7211   0.486  -0.497   8.146 -0.0292  0.1138 -0.1914
  451loPI   C6A 7212   0.507  -0.969   7.950  0.1156 -0.0365 -0.2407
  451loPI   C1B 7213  -0.004   0.077   9.565  0.4501 -0.0452  0.0401
  451loPI   C2B 7214  -0.110   0.049   9.150 -0.3334 -0.0286  0.1352
  451loPI   C3B 7215  -0.047   0.234   8.741 -0.4548 -0.1352 -0.2326
  451loPI   C4B 7216   0.209   0.323   8.469  0.2524  0.1218  0.1155
  452loPI    C1 7217   0.242   1.451  10.699 -0.0842  0.0477  0.0066
  452loPI    C2 7218  -0.150   1.454  10.618 -0.1080 -0.0513  0.1153
  452loPI    C3 7219  -0.016   1.277  10.951  0.0178  0.0883  0.1398
  452loPI   PO4 7220   0.291   1.412  10.433 -0.2223  0.0930  0.1411
  452loPI   GL1 7221   0.214   1.413   9.928 -0.0443  0.0951  0.2024
  452loPI   GL2 7222   0.241   1.086   9.942  0.0407  0.1949 -0.0700
  452loPI   C1A 7223   0.346   1.391   9.416  0.2414  0.2269 -0.0036
  452loPI   C2A 7224   0.270   1.551   9.057  0.1658 -0.1233  0.3874
  452loPI   C3A 7225   0.216   1.496   8.628 -0.0734  0.2086 -0.1356
  452loPI   C4A 7226   0.181   1.496   8.244 -0.1331  0.1556  0.0456
  452loPI   C5A 7227  -0.169   1.588   8.086 -0.0111 -0.2892  0.0307
  452loPI   C6A 7228  -0.414   1.628   7.701  0.0998 -0.1644 -0.1786
  452loPI   C1B 7229   0.061   1.014   9.507  0.1646  0.0989  0.1301
  452loPI   C2B 7230   0.016   1.089   9.125  0.0028  0.0828  0.0664
  452loPI   C3B 7231  -0.117   1.156   8.736 -0.1156  0.0022 -0.0378
  452loPI   C4B 7232  -0.128   0.993   8.346 -0.1240 -0.1810 -0.1188
  453loPI    C1 7233  12.334   3.395  10.997 -0.0412  0.0039 -0.0984
  453loPI    C2 7234  12.339   3.079  11.242  0.1010  0.2095  0.1694
  453loPI    C3 7235  11.994   3.263  11.160  0.0097 -0.0448 -0.0313
  453loPI   PO4 7236  12.372   3.359  10.775 -0.0001 -0.1455 -0.0236
  453loPI   GL1 7237  12.210   3.152  10.414 -0.0772  0.0385  0.3285
  453loPI   GL2 7238  12.405   2.934  10.413  0.0249 -0.0295  0.0251
  453loPI   C1A 7239  12.207   3.237  10.045 -0.1771  0.0418 -0.1437
  453loPI   C2A 7240  12.113   3.239   9.655 -0.1958 -0.0598 -0.1861
  453loPI   C3A 7241  12.105   3.287   9.276 -0.3094  0.3205 -0.3643
  453loPI   C4A 7242  12.009   3.092   8.968 -0.0579 -0.1837  0.0046
  453loPI   C5A 7243  12.189   3.030   8.638  0.0887  0.0275 -0.1223
  453loPI   C6A 7244  12.693   3.002   8.633 -0.5399  0.0806  0.2096
  453loPI   C1B 7245  12.390   2.705  10.026  0.0980  0.0847  0.0982
  453loPI   C2B 7246  12.341   2.697   9.603  0.1103 -0.0494  0.1545
  453loPI   C3B 7247  12.352   2.781   9.200 -0.0681 -0.1682 -0.0083
  453loPI   C4B 7248  12.352   2.584   8.736 -0.0092 -0.1422  0.0892
  454loPI    C1 7249  12.721   9.799  11.007  0.0546  0.0366 -0.0046
  454loPI    C2 7250  12.799   9.826  11.398  0.1164 -0.2607  0.0059
  454loPI    C3 7251  12.766   9.467  11.225 -0.0465 -0.1322 -0.2360
  454loPI   PO4 7252  12.540   9.993  10.968 -0.0144 -0.1560 -0.0586
  454loPI   GL1 7253  12.647  10.157  10.572  0.1433  0.2396 -0.2951
  454loPI   GL2 7254  12.268  10.068  10.463 -0.3163 -0.0834  0.0355
  454loPI   C1A 7255  12.588  10.151  10.100  0.3190  0.0830 -0.0557
  454loPI   C2A 7256  12.629  10.045   9.610 -0.2303  0.0276 -0.0031
  454loPI   C3A 7257  12.694  10.105   9.179  0.1292  0.2185  0.0828
  454loPI   C4A 7258  12.665  10.068   8.729  0.1138 -0.1955  0.0313
  454loPI   C5A 7259  12.422   9.996   8.346 -0.2440  0.0114 -0.1931
  454loPI   C6A 7260  12.365  10.016   7.954 -0.0071  0.0840  0.2585
  454loPI   C1B 7261  12.162  10.133   9.902  0.0366 -0.1291 -0.1504
  454loPI   C2B 7262  12.149  10.066   9.425  0.2883 -0.1655 -0.2617
  454loPI   C3B 7263  12.194  10.180   8.999 -0.0803 -0.0255 -0.1334
  454loPI   C4B 7264  12.115  10.320   8.556 -0.1088  0.0425  0.0499
  455loPI    C1 7265  15.136  12.313  10.825  0.1677  0.1051 -0.1357
  455loPI    C2 7266  15.463  12.341  10.596  0.2360 -0.0352 -0.0568
  455loPI    C3 7267  15.431  12.562  10.928  0.2725 -0.0566 -0.0388
  455loPI   PO4 7268  14.970  12.387  10.643 -0.3641 -0.0031 -0.2187
  455loPI   GL1 7269  14.872  12.151  10.208  0.1283  0.2112  0.0858
  455loPI   GL2 7270  15.087  12.240  10.237  0.0077  0.0064  0.5384
  455loPI   C1A 7271  14.857  11.816   9.959 -0.2672  0.0141 -0.1262
  455loPI   C2A 7272  14.900  11.773   9.489  0.4934 -0.1585  0.0059
  455loPI   C3A 7273  14.942  11.773   9.070 -0.2051  0.2942 -0.3787
  455loPI   C4A 7274  14.941  11.967   8.748 -0.0455  0.1652  0.0945
  455loPI   C5A 7275  15.024  11.922   8.331  0.0659  0.2172 -0.0656
  455loPI   C6A 7276  15.032  11.788   7.939 -0.2171 -0.0411 -0.1438
  455loPI   C1B 7277  15.145  12.173   9.721  0.2118 -0.1031 -0.0748
  455loPI   C2B 7278  15.132  12.156   9.295  0.0939  0.0568 -0.3188
  455loPI   C3B 7279  15.161  12.336   9.018 -0.2247  0.0653  0.0940
  455loPI   C4B 7280  15.194  12.396   8.615 -0.1280  0.1182  0.4845
  456loPI    C1 7281  12.429   1.220  11.223 -0.2648 -0.1220  0.1417
  456loPI    C2 7282  12.378   1.615  11.265 -0.1354 -0.0904  0.0122
  456loPI    C3 7283  12.569   1.407  11.548 -0.2201 -0.0638  0.0894
  456loPI   PO4 7284  12.441   1.202  11.015 -0.0279 -0.0616 -0.0372
  456loPI   GL1 7285  12.165   1.410  10.679 -0.0138  0.0536  0.0151
  456loPI   GL2 7286  11.970   1.153  10.758  0.3477  0.1273  0.2742
  456loPI   C1A 7287  12.089   1.430  10.306  0.0681 -0.0506 -0.2402
  456loPI   C2A 7288  12.113   1.368   9.929  0.1282 -0.1085  0.5093
  456loPI   C3A 7289  12.187   1.373   9.492  0.2698  0.1770  0.4815
  456loPI   C4A 7290  12.101   1.313   9.089  0.1377 -0.1226 -0.0988
  456loPI   C5A 7291  12.200   1.280   8.670 -0.0822 -0.2602  0.1614
  456loPI   C6A 7292  12.306   1.418   8.237 -0.0996 -0.1618 -0.0341
  456loPI   C1B 7293  11.868   0.941  10.378  0.0335 -0.0608  0.2854
  456loPI   C2B 7294  11.869   0.934   9.906 -0.3235 -0.1550 -0.0452
  456loPI   C3B 7295  11.696   0.878   9.465 -0.0871  0.0684  0.2064
  456loPI   C4B 7296  11.842   0.887   9.006 -0.0314  0.0083 -0.2156
  457loPI    C1 7297   5.774  10.033  10.402 -0.0242  0.1989  0.1182
  457loPI    C2 7298   5.756  10.386  10.590 -0.0821  0.1269  0.2494
  457loPI    C3 7299   5.953  10.080  10.757 -0.2442  0.0246  0.2551
  457loPI   PO4 7300   5.787  10.118  10.106 -0.0681  0.0405  0.2974
  457loPI   GL1 7301   5.689  10.108   9.692  0.2796 -0.1136  0.1234
  457loPI   GL2 7302   5.893  10.258   9.570 -0.2094 -0.3983  0.1766
  457loPI   C1A 7303   5.806   9.804   9.307  0.3185  0.2015  0.0384
  457loPI   C2A 7304   6.111   9.884   8.918  0.2648  0.0986 -0.0902
  457loPI   C3A 7305   6.231   9.868   8.521 -0.0353 -0.1929 -0.1213
  457loPI   C4A 7306   6.427   9.938   8.116  0.2165 -0.1457 -0.1075
  457loPI   C5A 7307   6.796   9.892   7.983 -0.1029 -0.1636  0.1116
  457loPI   C6A 7308   7.049  10.190   7.789  0.1739 -0.0908  0.1305
  457loPI   C1B 7309   5.776  10.251   9.072 -0.3142  0.1580 -0.0295
  457loPI   C2B 7310   5.837  10.302   8.678 -0.0539  0.0755  0.0956
  457loPI   C3B 7311   6.125  10.285   8.295 -0.1354  0.0448  0.2260
  457loPI   C4B 7312   6.353  10.406   7.892 -0.1655 -0.3322 -0.0599
  458loPI    C1 7313   1.975  14.585  10.765  0.0378  0.0798 -0.3221
  458loPI    C2 7314   1.773  14.678  11.097 -0.0458 -0.0379 -0.3392
  458loPI    C3 7315   2.069  14.410  11.112  0.1835  0.2132 -0.2932
  458loPI   PO4 7316   1.635  14.500  10.572 -0.0351  0.0327  0.1500
  458loPI   GL1 7317   1.651  14.401  10.209 -0.0708 -0.0326 -0.1353
  458loPI   GL2 7318   1.885  14.152  10.167  0.0770  0.0892  0.2476
  458loPI   C1A 7319   1.538  14.768  10.058  0.0582 -0.2845 -0.2930
  458loPI   C2A 7320   1.536  14.670   9.604  0.1238  0.1075  0.1196
  458loPI   C3A 7321   1.584  14.782   9.118  0.1011 -0.0713  0.0443
  458loPI   C4A 7322   1.560  14.922   8.751  0.2137 -0.0616  0.1221
  458loPI   C5A 7323   1.626  14.874   8.309  0.2219  0.0491 -0.1156
  458loPI   C6A 7324   1.444  14.827   7.955  0.0969  0.1924  0.2803
  458loPI   C1B 7325   1.880  14.273   9.701  0.0711  0.0202 -0.1258
  458loPI   C2B 7326   1.801  14.394   9.245 -0.2379 -0.2616  0.2419
  458loPI   C3B 7327   1.864  14.514   8.783  0.0446  0.3089  0.1653
  458loPI   C4B 7328   1.897  14.408   8.352 -0.2468 -0.0378 -0.3901
  459loPI    C1 7329  13.971   4.991  10.991 -0.2384  0.0644 -0.0005
  459loPI    C2 7330  14.084   4.649  11.163  0.0789  0.2631  0.1941
  459loPI    C3 7331  13.726   4.806  11.247 -0.2393 -0.2221 -0.2042
  459loPI   PO4 7332  14.004   4.932  10.725  0.1593  0.0383  0.0049
  459loPI   GL1 7333  14.046   4.680  10.307  0.0814 -0.0854 -0.2965
  459loPI   GL2 7334  13.752   4.667  10.336  0.1178  0.0449  0.1230
  459loPI   C1A 7335  14.295   4.679   9.934  0.0888 -0.0171  0.0044
  459loPI   C2A 7336  14.228   4.810   9.485  0.0530  0.0402 -0.3609
  459loPI   C3A 7337  14.109   4.570   9.135  0.2293 -0.0263  0.0534
  459loPI   C4A 7338  13.839   4.702   8.698  0.1499  0.4497  0.1531
  459loPI   C5A 7339  13.387   4.513   8.635  0.0033  0.0087  0.1759
  459loPI   C6A 7340  13.311   4.275   8.370  0.1413  0.0169  0.1595
  459loPI   C1B 7341  13.795   4.873   9.918  0.0370  0.0653 -0.0764
  459loPI   C2B 7342  13.757   4.911   9.468  0.2307  0.5003 -0.1332
  459loPI   C3B 7343  13.809   5.068   9.103  0.1285 -0.2720  0.0243
  459loPI   C4B 7344  13.866   5.281   8.676 -0.1139 -0.2170  0.0167
  460loPI    C1 7345  15.815   4.128  10.926  0.0744 -0.1420  0.0845
  460loPI    C2 7346  15.985   4.145  11.288  0.1555 -0.0704  0.0433
  460loPI    C3 7347  15.588   4.115  11.255  0.1234  0.2217  0.1372
  460loPI   PO4 7348  15.974   4.267  10.672  0.2179 -0.3130 -0.0935
  460loPI   GL1 7349  15.995   4.304  10.280  0.2478 -0.4562 -0.1080
  460loPI   GL2 7350  15.965   4.051  10.057  0.4375 -0.0188  0.4887
  460loPI   C1A 7351  15.825   4.478   9.901  0.0226  0.2957 -0.0835
  460loPI   C2A 7352  15.676   4.521   9.464 -0.1149 -0.2963  0.1867
  460loPI   C3A 7353  15.608   4.520   9.015 -0.0988 -0.2188  0.3168
  460loPI   C4A 7354  15.731   4.524   8.595 -0.0593  0.0050 -0.0153
  460loPI   C5A 7355  15.539   4.635   8.205  0.0084 -0.1403 -0.0940
  460loPI   C6A 7356  15.121   4.750   8.128 -0.2456  0.0247 -0.0472
  460loPI   C1B 7357  15.814   4.036   9.623 -0.0126 -0.0170  0.1780
  460loPI   C2B 7358  15.708   4.038   9.189 -0.3715 -0.1875 -0.2558
  460loPI   C3B 7359  15.840   3.958   8.759  0.2658  0.1599 -0.0581
  460loPI   C4B 7360  15.878   3.856   8.258 -0.4133  0.1783  0.0999
  461loPI    C1 7361   2.008  17.113  10.881 -0.2265 -0.2035 -0.1719
  461loPI    C2 7362   2.106  16.808  11.120  0.0531  0.0957  0.1050
  461loPI    C3 7363   2.162  17.185  11.243 -0.4272  0.2669 -0.1724
  461loPI   PO4 7364   2.086  17.057  10.685  0.0614  0.1025  0.0821
  461loPI   GL1 7365   2.127  17.203  10.328  0.0598  0.0981 -0.3679
  461loPI   GL2 7366   2.366  17.152  10.077  0.1985 -0.1767  0.1642
  461loPI   C1A 7367   1.808  16.979  10.039  0.0652 -0.0511  0.1358
  461loPI   C2A 7368   1.854  16.911   9.637 -0.2201  0.0906 -0.0152
  461loPI   C3A 7369   1.999  16.973   9.303  0.2516 -0.1774  0.1908
  461loPI   C4A 7370   2.020  17.090   8.828 -0.1981  0.2856  0.1998
  461loPI   C5A 7371   1.772  17.141   8.433 -0.1827  0.0413  0.0223
  461loPI   C6A 7372   1.388  17.291   8.259 -0.0954  0.2440 -0.1550
  461loPI   C1B 7373   2.329  17.148   9.595 -0.0075  0.0180  0.0034
  461loPI   C2B 7374   2.269  17.437   9.225  0.0596 -0.1980  0.1387
  461loPI   C3B 7375   2.216  17.567   8.733 -0.0650 -0.0749 -0.0934
  461loPI   C4B 7376   2.051  17.541   8.286  0.1816  0.1642 -0.0975
  462loPI    C1 7377   4.424   3.239  10.852  0.1500 -0.0408 -0.0591
  462loPI    C2 7378   4.295   3.611  10.921 -0.2185 -0.1800  0.0272
  462loPI    C3 7379   4.148   3.305  11.133  0.0276 -0.3854 -0.0925
  462loPI   PO4 7380   4.496   3.217  10.537  0.2393  0.2918  0.1760
  462loPI   GL1 7381   4.341   3.357  10.103 -0.2275 -0.3446 -0.0767
  462loPI   GL2 7382   4.107   3.175   9.837  0.2792  0.1078 -0.4133
  462loPI   C1A 7383   4.585   3.280   9.722  0.0301  0.2582  0.2299
  462loPI   C2A 7384   4.579   3.132   9.289  0.1178 -0.1577 -0.1865
  462loPI   C3A 7385   4.642   3.079   8.914  0.3049 -0.0322 -0.2377
  462loPI   C4A 7386   4.546   3.102   8.438 -0.0754 -0.0389 -0.0865
  462loPI   C5A 7387   4.525   2.747   8.095 -0.0143  0.1912 -0.1101
  462loPI   C6A 7388   5.009   2.571   8.087  0.1042 -0.1988  0.1154
  462loPI   C1B 7389   4.090   3.261   9.491 -0.1691  0.3517  0.3027
  462loPI   C2B 7390   4.022   3.091   9.033  0.1705 -0.3405  0.0913
  462loPI   C3B 7391   4.024   3.051   8.591 -0.1702 -0.0024 -0.1888
  462loPI   C4B 7392   4.101   2.951   8.224 -0.0497 -0.0104  0.0372
  463loPI    C1 7393   4.734  14.387  10.657  0.0482  0.2331  0.1860
  463loPI    C2 7394   4.424  14.343  10.906 -0.0548  0.3218  0.0748
  463loPI    C3 7395   4.791  14.406  11.052 -0.0490 -0.0141  0.2141
  463loPI   PO4 7396   4.654  14.548  10.500 -0.0553  0.0750 -0.1091
  463loPI   GL1 7397   4.457  14.633  10.136 -0.1381 -0.0230 -0.1127
  463loPI   GL2 7398   4.633  14.438   9.983 -0.0163 -0.0723  0.0883
  463loPI   C1A 7399   4.522  14.946   9.901 -0.1495 -0.2930  0.0224
  463loPI   C2A 7400   4.549  15.042   9.544 -0.0092 -0.0438  0.0570
  463loPI   C3A 7401   4.500  15.119   9.147 -0.0659  0.1203  0.0831
  463loPI   C4A 7402   4.616  15.160   8.750 -0.0772  0.1416 -0.1711
  463loPI   C5A 7403   4.442  15.129   8.357  0.3820 -0.1224 -0.2881
  463loPI   C6A 7404   4.180  14.899   7.992  0.0458  0.0060 -0.1363
  463loPI   C1B 7405   4.791  14.624   9.588  0.0692 -0.1168 -0.1291
  463loPI   C2B 7406   4.772  14.682   9.071  0.1329  0.1468 -0.0570
  463loPI   C3B 7407   4.750  14.679   8.612 -0.0440  0.1478  0.1786
  463loPI   C4B 7408   4.839  14.863   8.200  0.0202  0.0503 -0.1088
  464loPI    C1 7409   0.864  12.990  10.595  0.0179 -0.0594 -0.1988
  464loPI    C2 7410   0.897  12.658  10.816  0.0747 -0.0675 -0.2193
  464loPI    C3 7411   0.754  12.995  10.979  0.2063 -0.0472 -0.1437
  464loPI   PO4 7412   0.757  12.918  10.444  0.0682  0.0549  0.3166
  464loPI   GL1 7413   0.706  12.854  10.066  0.0029 -0.0950  0.3164
  464loPI   GL2 7414   0.897  13.045   9.925  0.1206 -0.2461 -0.0605
  464loPI   C1A 7415   0.355  12.897   9.744  0.2125  0.3903 -0.1519
  464loPI   C2A 7416   0.380  12.997   9.364  0.0878  0.1666  0.0115
  464loPI   C3A 7417   0.369  13.054   8.933 -0.1724 -0.1841  0.2268
  464loPI   C4A 7418   0.364  13.268   8.525 -0.2754 -0.2486 -0.0915
  464loPI   C5A 7419   0.175  13.404   8.201  0.1909  0.0074 -0.1095
  464loPI   C6A 7420  -0.172  13.337   7.984  0.2013  0.1392 -0.0886
  464loPI   C1B 7421   0.664  13.293   9.609 -0.3773  0.2728 -0.3504
  464loPI   C2B 7422   0.634  13.413   9.306  0.2198  0.0746  0.0541
  464loPI   C3B 7423   0.603  13.458   8.943  0.0550  0.1628 -0.5182
  464loPI   C4B 7424   0.770  13.539   8.596 -0.0079  0.0831  0.3349
  465loPI    C1 7425  10.552   2.318  11.213 -0.1547 -0.0849  0.0436
  465loPI    C2 7426  10.844   2.536  11.379 -0.0643 -0.0596 -0.1453
  465loPI    C3 7427  10.695   2.219  11.573 -0.0593  0.0527  0.0444
  465loPI   PO4 7428  10.717   2.279  10.962  0.3097 -0.0442  0.1067
  465loPI   GL1 7429  10.566   2.412  10.525 -0.2595 -0.1503  0.1559
  465loPI   GL2 7430  10.399   2.012  10.350  0.1255 -0.0703 -0.1416
  465loPI   C1A 7431  10.474   2.430  10.043 -0.1280  0.2419  0.0023
  465loPI   C2A 7432  10.514   2.545   9.631 -0.2923  0.2943 -0.3686
  465loPI   C3A 7433  10.577   2.323   9.266  0.1245  0.1462  0.2034
  465loPI   C4A 7434  10.586   2.452   8.868  0.2474 -0.1416  0.0981
  465loPI   C5A 7435  10.738   2.611   8.525 -0.0713  0.0561 -0.1018
  465loPI   C6A 7436  11.188   2.815   8.502  0.1620 -0.1812  0.0231
  465loPI   C1B 7437  10.373   1.982   9.940  0.3148  0.1350 -0.3081
  465loPI   C2B 7438  10.220   1.967   9.505 -0.4138 -0.1574 -0.1097
  465loPI   C3B 7439  10.243   1.851   9.103 -0.0721  0.4614 -0.1715
  465loPI   C4B 7440  10.316   1.983   8.791  0.0604 -0.0812 -0.1270
  466loPI    C1 7441   9.599  17.840  11.225  0.4692 -0.2972  0.1021
  466loPI    C2 7442   9.685  17.527  11.459 -0.1164 -0.3895  0.2105
  466loPI    C3 7443   9.327  17.702  11.484  0.0425  0.0086 -0.1704
  466loPI   PO4 7444   9.735  17.762  10.991  0.2945  0.2044  0.1844
  466loPI   GL1 7445   9.835  17.821  10.736 -0.0962  0.1491  0.1018
  466loPI   GL2 7446  10.037  17.665  10.635  0.0663 -0.1417 -0.0213
  466loPI   C1A 7447   9.717  18.128  10.418  0.0030 -0.3097 -0.0448
  466loPI   C2A 7448   9.624  18.157   9.969 -0.1905  0.0047  0.2792
  466loPI   C3A 7449   9.627  18.114   9.519 -0.1258  0.1533 -0.1546
  466loPI   C4A 7450   9.759  18.102   9.141 -0.0163  0.1011  0.0149
  466loPI   C5A 7451   9.759  18.110   8.726  0.2824  0.3418  0.0427
  466loPI   C6A 7452   9.807  17.815   8.507  0.0391 -0.1525  0.0731
  466loPI   C1B 7453   9.832  17.711  10.214 -0.1398  0.2187  0.2086
  466loPI   C2B 7454   9.776  17.654   9.702  0.2365 -0.1812 -0.2318
  466loPI   C3B 7455   9.998  17.685   9.323 -0.0307  0.2272 -0.0334
  466loPI   C4B 7456  10.018  17.591   8.889 -0.0011  0.0620  0.0161
  467loPI    C1 7457  10.524  13.357  11.253 -0.2053  0.2656  0.1302
  467loPI    C2 7458  10.922  13.378  11.286 -0.1651 -0.2847  0.0794
  467loPI    C3 7459  10.702  13.256  11.597 -0.2765 -0.1751  0.0440
  467loPI   PO4 7460  10.514  13.358  10.973  0.2835 -0.3413 -0.0215
  467loPI   GL1 7461  10.607  13.355  10.597 -0.1329  0.0564  0.0532
  467loPI   GL2 7462  10.825  13.087  10.728  0.4423  0.2415  0.0963
  467loPI   C1A 7463  10.824  13.351  10.130 -0.0195  0.3689 -0.0670
  467loPI   C2A 7464  10.912  13.366   9.664  0.1773  0.2426 -0.1675
  467loPI   C3A 7465  10.970  13.380   9.231  0.1580  0.2576  0.1681
  467loPI   C4A 7466  11.107  13.435   8.873  0.6858  0.1481 -0.2573
  467loPI   C5A 7467  11.255  13.304   8.554  0.0509  0.0780 -0.1556
  467loPI   C6A 7468  11.284  13.461   8.087  0.3100  0.5141 -0.0845
  467loPI   C1B 7469  11.088  13.120  10.469 -0.2188  0.2538  0.0083
  467loPI   C2B 7470  11.380  13.291  10.226 -0.0742 -0.4109 -0.0619
  467loPI   C3B 7471  11.465  13.322   9.801 -0.2227 -0.0983 -0.1543
  467loPI   C4B 7472  11.569  13.455   9.465 -0.0995  0.0435  0.1848
  468loPI    C1 7473   4.443   6.278  10.406  0.0679 -0.0430 -0.1835
  468loPI    C2 7474   4.650   6.586  10.255  0.0837 -0.0484 -0.1731
  468loPI    C3 7475   4.531   6.593  10.637  0.2754 -0.1530 -0.1102
  468loPI   PO4 7476   4.392   6.186  10.044 -0.2373 -0.2218  0.1377
  468loPI   GL1 7477   4.347   6.179   9.540  0.1821  0.3194 -0.1652
  468loPI   GL2 7478   4.036   5.995   9.689 -0.4359 -0.0353 -0.1576
  468loPI   C1A 7479   4.342   6.363   9.173 -0.0168 -0.2602 -0.1101
  468loPI   C2A 7480   4.286   6.325   8.737  0.0543  0.0101 -0.3162
  468loPI   C3A 7481   4.255   6.315   8.277  0.0853  0.2478 -0.3228
  468loPI   C4A 7482   4.060   6.220   7.919 -0.0903  0.1207  0.2688
  468loPI   C5A 7483   4.308   6.036   7.497 -0.1212 -0.1198 -0.2867
  468loPI   C6A 7484   4.356   5.792   7.031  0.1900  0.1065 -0.0154
  468loPI   C1B 7485   4.056   5.879   9.275 -0.0458  0.2768  0.2023
  468loPI   C2B 7486   4.123   5.874   8.861  0.1690  0.2263  0.3191
  468loPI   C3B 7487   3.985   5.914   8.474 -0.3181 -0.3640  0.1246
  468loPI   C4B 7488   3.846   5.702   8.121 -0.1994  0.0947  0.1764
  469loPI    C1 7489   0.259  16.746  10.806  0.0811  0.2081  0.0144
  469loPI    C2 7490   0.267  16.944  11.154 -0.0526  0.0991  0.0808
  469loPI    C3 7491   0.208  16.548  11.151  0.2299  0.0555 -0.0497
  469loPI   PO4 7492   0.411  16.928  10.643  0.4255 -0.0703  0.3894
  469loPI   GL1 7493   0.699  16.981  10.207 -0.0846 -0.2058 -0.0180
  469loPI   GL2 7494   0.447  16.697  10.151 -0.0313 -0.0869  0.3124
  469loPI   C1A 7495   0.781  17.139   9.909  0.0544  0.1292 -0.2657
  469loPI   C2A 7496   0.915  17.030   9.603  0.0251  0.0928 -0.3414
  469loPI   C3A 7497   0.833  17.069   9.197 -0.3415  0.0319 -0.1303
  469loPI   C4A 7498   0.915  17.090   8.789 -0.0639 -0.1423 -0.5517
  469loPI   C5A 7499   0.998  16.918   8.398 -0.0997  0.1805 -0.2846
  469loPI   C6A 7500   0.981  17.000   8.043  0.0298 -0.1579 -0.1187
  469loPI   C1B 7501   0.549  16.568   9.732  0.1214 -0.0164 -0.2121
  469loPI   C2B 7502   0.613  16.601   9.260  0.1741 -0.5063 -0.1384
  469loPI   C3B 7503   0.597  16.692   8.906  0.2512  0.4232 -0.0417
  469loPI   C4B 7504   0.600  16.572   8.407 -0.0842 -0.0473  0.1544
  470loPI    C1 7505   6.131   8.068   9.906  0.1273 -0.2178 -0.1324
  470loPI    C2 7506   5.788   8.183   9.737  0.0879 -0.1034  0.0227
  470loPI    C3 7507   5.829   8.198  10.134  0.1895 -0.3416  0.0227
  470loPI   PO4 7508   6.181   7.830   9.812 -0.2621 -0.0827 -0.1285
  470loPI   GL1 7509   6.385   7.774   9.382  0.0312 -0.0671  0.0518
  470loPI   GL2 7510   6.538   7.919   9.464  0.4873 -0.0713  0.2597
  470loPI   C1A 7511   6.370   7.541   9.137 -0.3186 -0.0720  0.0453
  470loPI   C2A 7512   6.399   7.444   8.688 -0.1244  0.0116  0.0300
  470loPI   C3A 7513   6.242   7.407   8.238  0.0856  0.2411 -0.2843
  470loPI   C4A 7514   5.961   7.198   8.028  0.0165  0.0671 -0.3230
  470loPI   C5A 7515   5.731   6.844   7.977  0.0444  0.1051  0.3292
  470loPI   C6A 7516   5.400   6.677   7.812  0.0336 -0.1891 -0.3041
  470loPI   C1B 7517   6.734   7.967   9.028 -0.0471 -0.1610  0.1182
  470loPI   C2B 7518   6.571   7.880   8.583 -0.0105  0.0923  0.1039
  470loPI   C3B 7519   6.464   7.800   8.126 -0.1132  0.1968  0.0205
  470loPI   C4B 7520   6.591   8.069   7.784 -0.0747 -0.0662 -0.0193
  471loPI    C1 7521   2.481   1.048  10.565 -0.1857 -0.0644  0.1639
  471loPI    C2 7522   2.473   1.388  10.354 -0.3331 -0.1282  0.0653
  471loPI    C3 7523   2.589   1.393  10.737 -0.1195 -0.0024  0.0003
  471loPI   PO4 7524   2.484   0.892  10.397 -0.2216 -0.0185  0.1828
  471loPI   GL1 7525   2.696   0.913  10.035 -0.0292 -0.0271  0.0104
  471loPI   GL2 7526   2.688   0.614   9.886  0.0539  0.1155  0.0896
  471loPI   C1A 7527   2.572   1.019   9.556  0.2180  0.1471  0.0382
  471loPI   C2A 7528   2.597   1.067   9.102 -0.1303 -0.0542  0.2579
  471loPI   C3A 7529   2.573   1.010   8.734  0.0505 -0.0401  0.2402
  471loPI   C4A 7530   2.671   1.028   8.287 -0.0847 -0.1650 -0.0834
  471loPI   C5A 7531   2.738   1.024   7.905  0.1479  0.1301 -0.0768
  471loPI   C6A 7532   2.717   0.747   7.510  0.0408 -0.1773  0.0986
  471loPI   C1B 7533   2.609   0.534   9.519  0.1502  0.1761 -0.0347
  471loPI   C2B 7534   2.551   0.581   9.110  0.2022 -0.1061 -0.3549
  471loPI   C3B 7535   2.320   0.588   8.723  0.2086 -0.0742 -0.0183
  471loPI   C4B 7536   2.206   0.379   8.391  0.2639  0.0593  0.4868
  472loPI    C1 7537  10.160   4.810  11.515 -0.1286 -0.0667  0.1335
  472loPI    C2 7538  10.531   4.700  11.413 -0.1277 -0.0016  0.0658
  472loPI    C3 7539  10.447   4.791  11.793 -0.0670  0.0129  0.0758
  472loPI   PO4 7540  10.078   4.874  11.208  0.4507  0.1261  0.0725
  472loPI   GL1 7541   9.937   4.744  10.755  0.1836 -0.3038 -0.2411
  472loPI   GL2 7542   9.999   5.124  10.742  0.0921  0.0303 -0.1792
  472loPI   C1A 7543   9.832   4.609  10.375 -0.2605  0.1534  0.0137
  472loPI   C2A 7544   9.688   4.707  10.019 -0.2568  0.1124 -0.1480
  472loPI   C3A 7545   9.849   4.682   9.601  0.0289  0.0109  0.0987
  472loPI   C4A 7546   9.801   4.661   9.161 -0.0525  0.0080  0.3799
  472loPI   C5A 7547   9.599   4.564   8.705  0.0627  0.0036  0.2552
  472loPI   C6A 7548   9.394   4.510   8.409  0.0938  0.1173  0.1570
  472loPI   C1B 7549  10.041   5.212  10.358 -0.1224  0.0052 -0.1785
  472loPI   C2B 7550  10.084   5.134   9.963  0.0942 -0.0882  0.0563
  472loPI   C3B 7551  10.110   5.124   9.446 -0.0676 -0.0351  0.1423
  472loPI   C4B 7552  10.166   5.224   9.046  0.1830 -0.0094 -0.1653
  473loPI    C1 7553   3.524   3.632  10.557 -0.0072 -0.0543  0.0449
  473loPI    C2 7554   3.153   3.709  10.684 -0.0293 -0.1153  0.0173
  473loPI    C3 7555   3.400   3.489  10.909  0.0069 -0.0321  0.0589
  473loPI   PO4 7556   3.657   3.835  10.397 -0.1994 -0.1921  0.2106
  473loPI   GL1 7557   3.867   3.635   9.982  0.2270  0.0222 -0.2061
  473loPI   GL2 7558   3.680   3.302  10.085 -0.0841 -0.1623  0.0285
  473loPI   C1A 7559   3.788   3.654   9.589  0.3402  0.2780 -0.0309
  473loPI   C2A 7560   3.603   3.602   9.190  0.1058 -0.0119  0.0909
  473loPI   C3A 7561   3.786   3.528   8.767  0.2883  0.1900  0.0561
  473loPI   C4A 7562   3.727   3.609   8.371 -0.0239  0.1467 -0.0484
  473loPI   C5A 7563   3.438   3.420   8.070 -0.0092 -0.0054 -0.0445
  473loPI   C6A 7564   3.090   3.333   7.755 -0.0442  0.0695  0.0802
  473loPI   C1B 7565   3.625   3.163   9.661  0.1860 -0.0938 -0.3743
  473loPI   C2B 7566   3.567   3.098   9.250 -0.1982 -0.0285 -0.3691
  473loPI   C3B 7567   3.508   3.149   8.862  0.0594 -0.0075  0.1736
  473loPI   C4B 7568   3.548   3.097   8.434 -0.0473  0.0522 -0.1534
  474POPI    C1 7569  10.239   8.380  11.225 -0.0826  0.0961 -0.1268
  474POPI    C2 7570  10.004   8.668  11.373 -0.1130  0.0057  0.0030
  474POPI    C3 7571  10.171   8.400  11.619  0.0349  0.0009 -0.1010
  474POPI   PO4 7572  10.127   8.238  11.015  0.1557 -0.0662  0.2635
  474POPI   GL1 7573   9.905   8.378  10.574 -0.0966  0.1860  0.3088
  474POPI   GL2 7574   9.776   8.301  10.374 -0.0578  0.0860 -0.0003
  474POPI   C1A 7575  10.351   8.435  10.263  0.3418  0.0884 -0.0987
  474POPI   D2A 7576  10.496   8.411   9.811  0.1469  0.2687  0.0494
  474POPI   C3A 7577  10.536   8.334   9.437  0.0902 -0.1985 -0.2008
  474POPI   C4A 7578  10.549   8.471   8.985 -0.0574 -0.3079 -0.2246
  474POPI   C1B 7579   9.925   8.374  10.052  0.1340 -0.0947 -0.0165
  474POPI   C2B 7580  10.020   8.368   9.591 -0.1736 -0.1261  0.2097
  474POPI   C3B 7581  10.070   8.406   9.151 -0.0353 -0.1183 -0.4791
  474POPI   C4B 7582  10.046   8.420   8.681 -0.2177 -0.1547 -0.2492
  475POPI    C1 7583   7.129  14.491  10.960  0.0201 -0.1740 -0.0804
  475POPI    C2 7584   6.898  14.413  11.277  0.0080  0.0265 -0.0384
  475POPI    C3 7585   7.130  14.739  11.274  0.3546 -0.2140 -0.0456
  475POPI   PO4 7586   6.961  14.534  10.619 -0.1506 -0.1184  0.1058
  475POPI   GL1 7587   6.710  14.617  10.251  0.0833 -0.3879 -0.0604
  475POPI   GL2 7588   6.774  15.003  10.235 -0.0031 -0.2691 -0.3539
  475POPI   C1A 7589   6.883  14.525   9.878  0.2364 -0.2145 -0.0542
  475POPI   D2A 7590   6.735  14.452   9.521 -0.1568  0.0051  0.0292
  475POPI   C3A 7591   6.891  14.601   9.091 -0.6114 -0.1152 -0.1289
  475POPI   C4A 7592   6.970  14.533   8.669  0.0419 -0.1569 -0.1021
  475POPI   C1B 7593   6.631  14.939   9.828 -0.1028 -0.0686 -0.1840
  475POPI   C2B 7594   6.620  14.947   9.419 -0.2609  0.0381  0.2297
  475POPI   C3B 7595   6.693  15.102   9.100  0.2206  0.0686  0.0760
  475POPI   C4B 7596   6.616  15.164   8.689  0.2406 -0.2930  0.0599
  476POPI    C1 7597  15.291   2.739  10.793  0.2588 -0.0565  0.0891
  476POPI    C2 7598  15.049   2.899  11.069  0.0069  0.1075 -0.2192
  476POPI    C3 7599  15.263   2.573  11.156 -0.2030  0.0526  0.1107
  476POPI   PO4 7600  15.423   2.934  10.719  0.3307  0.0564 -0.0321
  476POPI   GL1 7601  15.176   3.200  10.401  0.0940 -0.0592  0.1612
  476POPI   GL2 7602  15.076   3.455  10.192 -0.1896 -0.1427  0.0771
  476POPI   C1A 7603  15.239   3.047   9.901 -0.0268 -0.1024 -0.0694
  476POPI   D2A 7604  15.155   2.979   9.496 -0.0613 -0.2175 -0.1543
  476POPI   C3A 7605  15.405   2.996   9.181 -0.0108 -0.1016 -0.0989
  476POPI   C4A 7606  15.337   3.016   8.779  0.0669  0.1606  0.2168
  476POPI   C1B 7607  15.008   3.468   9.706 -0.2587  0.0405 -0.0214
  476POPI   C2B 7608  15.036   3.473   9.247  0.0802 -0.0562  0.1370
  476POPI   C3B 7609  15.021   3.413   8.801 -0.0785 -0.0973 -0.1164
  476POPI   C4B 7610  14.842   3.577   8.386 -0.1572  0.2132 -0.3652
  477POPI    C1 7611   8.834  17.709  11.369 -0.0684  0.0968  0.0303
  477POPI    C2 7612   8.899  17.508  11.708  0.0488 -0.0720 -0.0901
  477POPI    C3 7613   8.620  17.795  11.696 -0.1294 -0.2346  0.0809
  477POPI   PO4 7614   9.013  17.561  11.125  0.0311  0.1347 -0.0572
  477POPI   GL1 7615   9.118  17.497  10.762  0.0278  0.4473  0.2624
  477POPI   GL2 7616   9.253  17.643  10.633 -0.2408  0.1101  0.1902
  477POPI   C1A 7617   9.094  17.367  10.291  0.0545 -0.0461 -0.1567
  477POPI   D2A 7618   9.004  17.323   9.933  0.0206  0.0667  0.2502
  477POPI   C3A 7619   9.102  17.234   9.524  0.0795 -0.0857  0.0410
  477POPI   C4A 7620   9.197  17.286   9.124 -0.0807  0.0164 -0.3091
  477POPI   C1B 7621   9.356  17.826  10.268  0.1700  0.2255  0.0130
  477POPI   C2B 7622   9.341  17.751   9.843  0.3931 -0.0577 -0.2181
  477POPI   C3B 7623   9.390  17.616   9.413  0.2200 -0.5673 -0.0098
  477POPI   C4B 7624   9.500  17.697   8.954  0.0668 -0.0423  0.2670
  478POPI    C1 7625  10.709   6.671  11.055  0.1975  0.1141 -0.0894
  478POPI    C2 7626  10.527   7.020  11.126  0.0329 -0.0198  0.1611
  478POPI    C3 7627  10.366   6.759  10.869  0.0514  0.0055  0.1238
  478POPI   PO4 7628  11.012   6.727  11.023  0.2181  0.0061 -0.1509
  478POPI   GL1 7629  11.395   6.645  10.827 -0.0339 -0.0102 -0.2663
  478POPI   GL2 7630  11.610   6.498  10.630 -0.3249 -0.3781  0.0119
  478POPI   C1A 7631  11.217   6.844  10.410 -0.0991 -0.0661  0.0411
  478POPI   D2A 7632  11.192   6.960  10.051  0.2641 -0.2457 -0.0739
  478POPI   C3A 7633  11.223   6.990   9.578  0.0389 -0.0714 -0.0381
  478POPI   C4A 7634  11.185   6.983   9.089 -0.0935  0.1041  0.1851
  478POPI   C1B 7635  11.528   6.435  10.256  0.3192 -0.0917 -0.3299
  478POPI   C2B 7636  11.400   6.559   9.860  0.0954  0.1584 -0.0849
  478POPI   C3B 7637  11.457   6.469   9.443  0.0857  0.1792 -0.0393
  478POPI   C4B 7638  11.485   6.479   9.076  0.1753 -0.1832 -0.0032
  479POPI    C1 7639  17.307  17.752  10.852 -0.1437  0.1794 -0.0487
  479POPI    C2 7640  17.697  17.690  10.788 -0.1643 -0.1605  0.1358
  479POPI    C3 7641  17.556  17.712  11.162 -0.3430 -0.1804  0.0706
  479POPI   PO4 7642  17.317  17.938  10.650  0.2610  0.0225  0.0364
  479POPI   GL1 7643  17.301  18.149  10.207  0.1204  0.0822  0.1920
  479POPI   GL2 7644  17.040  17.860  10.246 -0.1207 -0.1775  0.1513
  479POPI   C1A 7645  17.453  18.189   9.734  0.1426 -0.1089 -0.0762
  479POPI   D2A 7646  17.489  18.250   9.341 -0.1010 -0.1609  0.0609
  479POPI   C3A 7647  17.381  18.197   9.017 -0.0574 -0.4510 -0.0952
  479POPI   C4A 7648  17.363  18.146   8.498  0.2676  0.1682  0.6560
  479POPI   C1B 7649  17.047  17.910   9.855 -0.0778  0.0149  0.0855
  479POPI   C2B 7650  17.126  17.946   9.401  0.2225 -0.1893  0.0078
  479POPI   C3B 7651  17.079  17.825   9.026 -0.0449 -0.0001  0.3194
  479POPI   C4B 7652  16.974  17.796   8.676 -0.1647  0.1254 -0.3549
  480POPI    C1 7653  16.404   5.571  10.768  0.0036 -0.4151  0.1030
  480POPI    C2 7654  16.323   5.468  11.146  0.1928  0.1729  0.3157
  480POPI    C3 7655  16.703   5.505  11.026  0.1357 -0.1175  0.0313
  480POPI   PO4 7656  16.166   5.688  10.741 -0.0089 -0.3424  0.2445
  480POPI   GL1 7657  15.869   5.673  10.407 -0.0841  0.0536  0.0235
  480POPI   GL2 7658  15.816   5.958  10.213  0.0781  0.1853  0.4069
  480POPI   C1A 7659  16.050   5.402  10.026 -0.2629 -0.1375 -0.1072
  480POPI   D2A 7660  16.137   5.371   9.642  0.1191  0.2302 -0.1576
  480POPI   C3A 7661  16.009   5.412   9.229 -0.1561  0.0782  0.0916
  480POPI   C4A 7662  16.189   5.292   8.825  0.0639  0.1541 -0.5370
  480POPI   C1B 7663  15.492   5.927   9.825 -0.1316 -0.2406 -0.3570
  480POPI   C2B 7664  15.293   5.874   9.441 -0.1458  0.1424 -0.1291
  480POPI   C3B 7665  15.336   5.864   9.105 -0.2442 -0.4107  0.0058
  480POPI   C4B 7666  15.414   5.821   8.720  0.3445 -0.2012  0.1449
  481POPI    C1 7667  15.514   7.479  11.114  0.0997 -0.3305 -0.0633
  481POPI    C2 7668  15.583   7.238  11.425  0.0840 -0.0073  0.1967
  481POPI    C3 7669  15.642   7.632  11.461  0.1023  0.0321 -0.2191
  481POPI   PO4 7670  15.531   7.385  10.851  0.2156  0.1374  0.0759
  481POPI   GL1 7671  15.267   7.353  10.469 -0.1283 -0.2023  0.1066
  481POPI   GL2 7672  15.198   7.007  10.351 -0.2220  0.3108 -0.1167
  481POPI   C1A 7673  15.335   7.460  10.042  0.1000 -0.1486 -0.1730
  481POPI   D2A 7674  15.173   7.236   9.492  0.2273 -0.0691  0.1372
  481POPI   C3A 7675  15.256   7.228   9.025  0.1498 -0.2232 -0.0656
  481POPI   C4A 7676  15.439   7.174   8.505  0.3048 -0.3140 -0.1538
  481POPI   C1B 7677  15.056   6.921   9.905 -0.2004  0.2961 -0.0936
  481POPI   C2B 7678  14.910   6.771   9.443  0.2661 -0.0943 -0.3733
  481POPI   C3B 7679  14.805   6.731   8.978  0.2166  0.0079 -0.3205
  481POPI   C4B 7680  14.999   6.886   8.553 -0.0274 -0.1951  0.0711
  482POPI    C1 7681  14.976  16.989  11.222  0.0176 -0.0280 -0.0270
  482POPI    C2 7682  15.009  16.714  11.510 -0.3053 -0.1796 -0.1297
  482POPI    C3 7683  14.825  17.061  11.585 -0.0351 -0.0515 -0.0442
  482POPI   PO4 7684  14.870  16.828  11.040 -0.0957  0.0329 -0.0639
  482POPI   GL1 7685  14.658  16.800  10.728 -0.1277 -0.1676 -0.0658
  482POPI   GL2 7686  14.505  16.567  10.548  0.0464  0.0366 -0.1625
  482POPI   C1A 7687  14.855  16.926  10.327  0.3649  0.2762 -0.0953
  482POPI   D2A 7688  14.926  16.933   9.930  0.2461 -0.2383  0.1433
  482POPI   C3A 7689  14.912  16.823   9.462 -0.0880 -0.1013 -0.0763
  482POPI   C4A 7690  14.817  16.874   8.998 -0.2168 -0.1405  0.3231
  482POPI   C1B 7691  14.619  16.530  10.127  0.1403  0.0494  0.0225
  482POPI   C2B 7692  14.629  16.472   9.676 -0.0472 -0.2171  0.0831
  482POPI   C3B 7693  14.588  16.426   9.203 -0.1180  0.0722 -0.1675
  482POPI   C4B 7694  14.462  16.429   8.779  0.3265 -0.1019  0.1393
  483POPI    C1 7695   3.453   0.483  10.459  0.0149  0.1582  0.2426
  483POPI    C2 7696   3.530   0.366  10.834  0.1311  0.0799  0.1947
  483POPI    C3 7697   3.218   0.212  10.637  0.2271 -0.0801  0.1658
  483POPI   PO4 7698   3.667   0.512  10.383  0.1233  0.4418  0.1457
  483POPI   GL1 7699   3.752   0.633  10.013  0.0651 -0.1403 -0.0929
  483POPI   GL2 7700   3.947   0.384  10.041  0.0592 -0.0636  0.0769
  483POPI   C1A 7701   3.516   0.674   9.673  0.0762  0.3545 -0.1994
  483POPI   D2A 7702   3.525   0.649   9.235  0.0807 -0.1564 -0.2794
  483POPI   C3A 7703   3.340   0.577   8.805 -0.3547  0.0861 -0.2361
  483POPI   C4A 7704   3.316   0.474   8.293 -0.1549  0.0283 -0.0103
  483POPI   C1B 7705   3.876   0.386   9.527 -0.0639 -0.1000  0.0291
  483POPI   C2B 7706   3.894   0.415   9.074 -0.1544  0.0528  0.0870
  483POPI   C3B 7707   4.025   0.425   8.756 -0.2346  0.0107  0.3904
  483POPI   C4B 7708   3.865   0.457   8.274  0.0071  0.1900 -0.3898
  484POPI    C1 7709  11.456   3.530  11.403  0.0530  0.2914 -0.0435
  484POPI    C2 7710  11.828   3.578  11.543  0.0713  0.1911 -0.0568
  484POPI    C3 7711  11.533   3.816  11.672  0.0507 -0.0199  0.2957
  484POPI   PO4 7712  11.453   3.573  11.198  0.3025 -0.2420 -0.0603
  484POPI   GL1 7713  11.366   3.509  10.712 -0.0288 -0.4085  0.1770
  484POPI   GL2 7714  11.172   3.288  10.586  0.1203 -0.1014 -0.0193
  484POPI   C1A 7715  11.390   3.733  10.241 -0.1624 -0.0297 -0.0921
  484POPI   D2A 7716  11.320   3.791   9.856 -0.0090 -0.0618 -0.1418
  484POPI   C3A 7717  11.400   3.736   9.432  0.0459  0.0178  0.0509
  484POPI   C4A 7718  11.420   3.745   9.023 -0.2911 -0.0854  0.1297
  484POPI   C1B 7719  11.152   3.336  10.028 -0.1718  0.1670 -0.0946
  484POPI   C2B 7720  11.111   3.361   9.633  0.0045 -0.1451  0.2331
  484POPI   C3B 7721  11.117   3.308   9.185  0.0107 -0.2812 -0.0750
  484POPI   C4B 7722  11.067   3.318   8.698 -0.2520  0.1333  0.2848
  485POPI    C1 7723   3.589   5.497  10.007  0.0951 -0.0327 -0.0023
  485POPI    C2 7724   3.299   5.302   9.813 -0.0383 -0.0382  0.2004
  485POPI    C3 7725   3.221   5.653   9.988  0.0753 -0.0426  0.2608
  485POPI   PO4 7726   3.779   5.523   9.759  0.2155  0.1842  0.2653
  485POPI   GL1 7727   3.659   5.205   9.503 -0.0769  0.2888 -0.2842
  485POPI   GL2 7728   3.656   4.963   9.410  0.0492 -0.1491  0.0155
  485POPI   C1A 7729   3.836   5.406   9.140 -0.0976 -0.2731  0.2651
  485POPI   D2A 7730   3.749   5.446   8.632  0.1661 -0.1682  0.0821
  485POPI   C3A 7731   3.813   5.072   8.405 -0.0793 -0.0235  0.1781
  485POPI   C4A 7732   3.945   4.851   8.019  0.1937  0.0959  0.0650
  485POPI   C1B 7733   3.217   5.082   9.259  0.0971  0.1657 -0.0144
  485POPI   C2B 7734   3.007   4.933   8.959  0.0071  0.1823 -0.0787
  485POPI   C3B 7735   2.989   4.741   8.546 -0.1088 -0.2321 -0.2309
  485POPI   C4B 7736   3.055   4.982   8.144  0.1991 -0.1756 -0.0888
  486POPI    C1 7737  11.418   1.203  11.320 -0.0874  0.3227 -0.0677
  486POPI    C2 7738  11.503   1.548  11.502  0.1063  0.1666  0.1434
  486POPI    C3 7739  11.572   1.201  11.689 -0.2829  0.0162  0.0165
  486POPI   PO4 7740  11.414   1.221  11.111 -0.1730 -0.3233 -0.0481
  486POPI   GL1 7741  11.457   1.222  10.659  0.1061  0.1512  0.1920
  486POPI   GL2 7742  11.176   1.340  10.396  0.2819  0.1272  0.0038
  486POPI   C1A 7743  11.639   1.353  10.284  0.0324  0.1251  0.1006
  486POPI   D2A 7744  11.643   1.450   9.897 -0.4695  0.1928 -0.2776
  486POPI   C3A 7745  11.656   1.353   9.473 -0.2054  0.1434 -0.0842
  486POPI   C4A 7746  11.525   1.394   9.126  0.0526  0.0477 -0.0872
  486POPI   C1B 7747  11.108   1.436   9.955  0.0211 -0.2988  0.0130
  486POPI   C2B 7748  10.964   1.471   9.520  0.2127 -0.0063 -0.0537
  486POPI   C3B 7749  10.947   1.423   9.132 -0.2644 -0.2526  0.1556
  486POPI   C4B 7750  11.068   1.344   8.715 -0.2226  0.0977 -0.0926
  487POPI    C1 7751   3.081   2.806  10.443 -0.0787  0.0584  0.0639
  487POPI    C2 7752   2.710   2.781  10.588 -0.0613 -0.0907  0.0840
  487POPI    C3 7753   3.022   2.794  10.838 -0.0572  0.1274  0.0693
  487POPI   PO4 7754   3.105   3.025  10.236  0.0126  0.3397  0.0707
  487POPI   GL1 7755   2.990   3.070   9.875  0.1211  0.2098 -0.1850
  487POPI   GL2 7756   2.703   3.376   9.858  0.1650  0.0246 -0.0776
  487POPI   C1A 7757   2.870   2.925   9.495  0.0185 -0.1160  0.3399
  487POPI   D2A 7758   2.541   2.801   9.236  0.0790 -0.1664 -0.1049
  487POPI   C3A 7759   2.682   2.800   8.852  0.2612 -0.1164  0.0920
  487POPI   C4A 7760   2.628   2.680   8.442 -0.0110 -0.2364  0.1567
  487POPI   C1B 7761   2.450   3.167   9.597 -0.0074 -0.5109  0.0218
  487POPI   C2B 7762   2.448   3.315   9.271 -0.2379 -0.2833 -0.0764
  487POPI   C3B 7763   2.396   3.176   8.933 -0.2821 -0.3526 -0.2863
  487POPI   C4B 7764   2.532   3.164   8.471 -0.0248  0.2426 -0.1631
  488POPI    C1 7765   1.481  15.117  11.063  0.0070 -0.2650 -0.1881
  488POPI    C2 7766   1.315  14.925  11.372 -0.1577 -0.0168 -0.1190
  488POPI    C3 7767   1.661  15.120  11.420 -0.1733  0.0052 -0.0962
  488POPI   PO4 7768   1.248  15.236  10.953 -0.0293  0.0549  0.1231
  488POPI   GL1 7769   1.156  15.293  10.564 -0.0851  0.0519  0.0986
  488POPI   GL2 7770   1.056  15.553  10.393  0.0956  0.1955 -0.0679
  488POPI   C1A 7771   1.353  15.255  10.158 -0.1777  0.1302  0.0619
  488POPI   D2A 7772   1.220  15.259   9.731  0.0641 -0.0545  0.0965
  488POPI   C3A 7773   1.346  15.144   9.376 -0.0334 -0.2547  0.2158
  488POPI   C4A 7774   1.290  15.308   9.127  0.2565  0.0202 -0.0382
  488POPI   C1B 7775   1.064  15.722   9.996 -0.0839 -0.3766  0.0398
  488POPI   C2B 7776   1.060  15.731   9.536  0.0354  0.1303  0.0152
  488POPI   C3B 7777   1.048  15.784   9.192  0.0047 -0.1055 -0.2858
  488POPI   C4B 7778   1.043  15.749   8.795  0.0093  0.1177 -0.2543
  489POPI    C1 7779   9.186  12.035  11.014 -0.0341  0.2032  0.1068
  489POPI    C2 7780   8.867  12.081  11.252 -0.0020  0.1992  0.1509
  489POPI    C3 7781   8.830  11.891  10.902 -0.0417  0.1731  0.1692
  489POPI   PO4 7782   9.294  12.182  10.847 -0.0203 -0.1763 -0.0224
  489POPI   GL1 7783   9.405  12.189  10.377  0.0106 -0.0605 -0.1505
  489POPI   GL2 7784   9.598  12.187  10.318 -0.2174 -0.2588  0.1968
  489POPI   C1A 7785   9.271  12.400   9.902 -0.1453  0.0768  0.1050
  489POPI   D2A 7786   9.370  12.558   9.518  0.3458 -0.1810 -0.0432
  489POPI   C3A 7787   9.283  12.544   9.058  0.0364  0.0262 -0.1253
  489POPI   C4A 7788   9.362  12.504   8.628  0.1723 -0.0733 -0.0329
  489POPI   C1B 7789   9.805  12.316   9.949 -0.2350 -0.0946 -0.1519
  489POPI   C2B 7790   9.853  12.488   9.536  0.2623 -0.1519 -0.0966
  489POPI   C3B 7791   9.823  12.534   9.069 -0.1649 -0.3558 -0.0578
  489POPI   C4B 7792   9.956  12.488   8.628  0.0407 -0.0093  0.2689
  490POPI    C1 7793   3.381  12.990  10.254  0.1887  0.1212 -0.0270
  490POPI    C2 7794   3.657  12.720  10.148  0.2432  0.1879 -0.0563
  490POPI    C3 7795   3.586  12.793  10.535  0.0533 -0.0464 -0.0440
  490POPI   PO4 7796   3.417  13.222  10.114  0.0109 -0.0001  0.1996
  490POPI   GL1 7797   3.425  13.258   9.698 -0.1406 -0.1527  0.1507
  490POPI   GL2 7798   3.319  12.984   9.716 -0.2281  0.2317  0.1130
  490POPI   C1A 7799   3.542  13.423   9.321 -0.2319 -0.3359  0.0938
  490POPI   D2A 7800   3.608  13.743   8.997  0.1729  0.1214 -0.0905
  490POPI   C3A 7801   3.634  13.797   8.614  0.0909 -0.1617 -0.0127
  490POPI   C4A 7802   3.604  14.003   8.177 -0.2200  0.3685  0.1454
  490POPI   C1B 7803   3.156  13.148   9.225  0.0084  0.0284 -0.0364
  490POPI   C2B 7804   3.232  13.363   8.903 -0.0693 -0.2185 -0.1246
  490POPI   C3B 7805   3.352  13.364   8.494 -0.1309 -0.0730  0.0895
  490POPI   C4B 7806   3.344  13.546   8.127  0.1094  0.2003 -0.1558
  491POPI    C1 7807  17.314   7.277  10.753 -0.1591 -0.0415  0.1689
  491POPI    C2 7808  17.659   7.213  10.944 -0.0020 -0.0261 -0.1043
  491POPI    C3 7809  17.430   6.903  10.836 -0.0370 -0.0402  0.0093
  491POPI   PO4 7810  17.415   7.387  10.450 -0.0483  0.1121 -0.1468
  491POPI   GL1 7811  17.152   7.303  10.091 -0.1272 -0.3203  0.0613
  491POPI   GL2 7812  16.847   7.241  10.092 -0.1413  0.0733  0.1405
  491POPI   C1A 7813  17.101   6.800   9.917  0.0906 -0.2395 -0.3585
  491POPI   D2A 7814  17.003   6.611   9.537 -0.2900  0.1887  0.0787
  491POPI   C3A 7815  16.973   6.717   9.087  0.1380 -0.0814 -0.1779
  491POPI   C4A 7816  16.847   6.595   8.705  0.1706 -0.1058 -0.0006
  491POPI   C1B 7817  16.843   7.195   9.627 -0.2362  0.0564  0.0399
  491POPI   C2B 7818  16.776   7.124   9.208  0.0899 -0.3692  0.2919
  491POPI   C3B 7819  16.648   7.075   8.874 -0.0182 -0.0669 -0.1630
  491POPI   C4B 7820  16.661   7.048   8.426  0.1271  0.1706  0.0076
  492POPI    C1 7821   5.248  14.696  10.451 -0.1649  0.0791 -0.0300
  492POPI    C2 7822   5.476  14.620  10.771 -0.1685 -0.3976 -0.1342
  492POPI    C3 7823   5.101  14.749  10.820  0.0071  0.0682  0.0411
  492POPI   PO4 7824   5.356  14.764  10.331 -0.0497  0.2702 -0.0216
  492POPI   GL1 7825   5.460  15.145  10.061 -0.0268  0.0650 -0.1102
  492POPI   GL2 7826   5.682  14.996   9.875 -0.1865  0.2646  0.2200
  492POPI   C1A 7827   5.307  15.428   9.700  0.0059 -0.0370  0.2611
  492POPI   D2A 7828   5.459  15.523   9.266  0.0191  0.3377  0.1307
  492POPI   C3A 7829   5.302  15.679   8.876  0.3360  0.0484 -0.3988
  492POPI   C4A 7830   5.400  15.548   8.517 -0.1293  0.0830 -0.1628
  492POPI   C1B 7831   5.695  15.048   9.459  0.2533 -0.1800  0.1917
  492POPI   C2B 7832   5.581  15.122   8.970 -0.1359 -0.4629 -0.2366
  492POPI   C3B 7833   5.682  15.087   8.537 -0.3185  0.0052  0.1560
  492POPI   C4B 7834   5.386  15.127   8.160  0.0856 -0.0254 -0.1156
  493POPI    C1 7835   7.202  16.902  11.108 -0.2038  0.3129  0.1015
  493POPI    C2 7836   7.066  16.619  11.356 -0.0627  0.1377 -0.0190
  493POPI    C3 7837   7.411  16.805  11.434 -0.1053  0.2057  0.0074
  493POPI   PO4 7838   7.289  16.859  10.801  0.0740 -0.2836 -0.1356
  493POPI   GL1 7839   7.541  17.044  10.457 -0.0291  0.0656 -0.1444
  493POPI   GL2 7840   7.668  16.730  10.482  0.2366 -0.2959 -0.0901
  493POPI   C1A 7841   7.484  17.271  10.137  0.2087  0.2186 -0.0419
  493POPI   D2A 7842   7.476  17.302   9.659  0.4253  0.0020  0.1947
  493POPI   C3A 7843   7.442  17.318   9.213 -0.1479  0.1135  0.0685
  493POPI   C4A 7844   7.684  17.304   8.894 -0.0012 -0.2759 -0.0420
  493POPI   C1B 7845   7.687  16.812  10.067  0.3863  0.2427  0.0703
  493POPI   C2B 7846   7.686  16.867   9.625 -0.2278  0.1291  0.5347
  493POPI   C3B 7847   7.752  16.887   9.145 -0.2240 -0.0124 -0.2417
  493POPI   C4B 7848   7.957  16.842   8.774  0.3553  0.1696  0.0375
  494POPI    C1 7849   4.002   5.420  10.339 -0.0287 -0.1749 -0.0007
  494POPI    C2 7850   3.682   5.229  10.482 -0.1620 -0.0351 -0.1082
  494POPI    C3 7851   3.970   5.350  10.731 -0.3239  0.0811  0.0253
  494POPI   PO4 7852   4.090   5.216  10.185  0.3460  0.1859  0.2581
  494POPI   GL1 7853   4.118   5.036   9.790  0.1066 -0.0123 -0.1260
  494POPI   GL2 7854   4.456   5.049   9.898 -0.1327  0.0198  0.0365
  494POPI   C1A 7855   4.228   4.902   9.391  0.0055  0.1025  0.1802
  494POPI   D2A 7856   4.107   4.949   8.976  0.1955  0.1187 -0.1143
  494POPI   C3A 7857   3.684   4.919   8.892  0.2479 -0.0991  0.2566
  494POPI   C4A 7858   3.364   5.041   8.642 -0.0482  0.0658 -0.2219
  494POPI   C1B 7859   4.703   4.909   9.517  0.1933 -0.1329 -0.0282
  494POPI   C2B 7860   4.639   4.858   9.122  0.0757  0.1198  0.1488
  494POPI   C3B 7861   4.648   4.911   8.810  0.3152  0.1120  0.0924
  494POPI   C4B 7862   4.272   4.886   8.521 -0.1006  0.0782  0.1127
  495POPI    C1 7863  11.519   5.305  11.239  0.1899 -0.1847  0.0362
  495POPI    C2 7864  11.845   5.519  11.329  0.0452 -0.0327  0.2082
  495POPI    C3 7865  11.589   5.414  11.617 -0.2819  0.2206  0.0177
  495POPI   PO4 7866  11.487   5.445  10.901  0.1378 -0.2702 -0.3369
  495POPI   GL1 7867  11.090   5.503  10.521  0.0300 -0.0978 -0.0829
  495POPI   GL2 7868  11.289   5.374  10.502  0.0670  0.2826 -0.0805
  495POPI   C1A 7869  10.884   5.534  10.240  0.1330 -0.5057 -0.2986
  495POPI   D2A 7870  10.902   5.559   9.810 -0.0557 -0.2700  0.0055
  495POPI   C3A 7871  10.982   5.529   9.406  0.3602  0.1701 -0.0169
  495POPI   C4A 7872  10.905   5.640   8.953 -0.0250 -0.2661 -0.1374
  495POPI   C1B 7873  11.358   5.594   9.984  0.2251  0.0282 -0.1848
  495POPI   C2B 7874  11.520   5.483   9.590 -0.2474  0.0251  0.0236
  495POPI   C3B 7875  11.567   5.517   9.141  0.6145 -0.0713  0.0386
  495POPI   C4B 7876  11.493   5.572   8.744 -0.2021 -0.2222  0.0688
  496POPI    C1 7877   9.548  11.738  10.920 -0.0304  0.0129  0.0230
  496POPI    C2 7878   9.892  11.632  11.094  0.0040  0.0171 -0.0422
  496POPI    C3 7879   9.670  11.925  11.252  0.0472  0.0374 -0.0190
  496POPI   PO4 7880   9.756  11.752  10.555 -0.0460 -0.0920  0.0291
  496POPI   GL1 7881  10.006  11.864  10.176 -0.1700  0.1833  0.2479
  496POPI   GL2 7882   9.840  11.609  10.060 -0.1104 -0.0440 -0.2329
  496POPI   C1A 7883  10.110  11.965   9.764  0.0422  0.0269 -0.1080
  496POPI   D2A 7884  10.138  12.166   9.356 -0.0211 -0.1137  0.1957
  496POPI   C3A 7885  10.146  12.046   8.948 -0.1043 -0.1170  0.0155
  496POPI   C4A 7886  10.221  12.007   8.563 -0.2984 -0.3132 -0.0091
  496POPI   C1B 7887   9.859  11.595   9.557 -0.0266 -0.1420 -0.2137
  496POPI   C2B 7888   9.786  11.611   9.243 -0.0303  0.0013 -0.2871
  496POPI   C3B 7889   9.819  11.637   8.777  0.4352 -0.2094  0.3005
  496POPI   C4B 7890  10.065  11.576   8.351  0.1242 -0.2243  0.0558
  497POPI    C1 7891  12.018  11.835  10.898  0.0252 -0.2977  0.0349
  497POPI    C2 7892  12.222  11.879  11.240  0.1007  0.0227 -0.0482
  497POPI    C3 7893  11.822  11.867  11.245  0.1005  0.0673  0.0478
  497POPI   PO4 7894  12.068  12.012  10.726  0.2192  0.0013  0.1789
  497POPI   GL1 7895  12.247  12.024  10.312  0.0541 -0.2442  0.3144
  497POPI   GL2 7896  12.595  11.917  10.330 -0.1254  0.4142  0.1645
  497POPI   C1A 7897  12.265  11.882   9.875 -0.0494  0.0336 -0.0869
  497POPI   D2A 7898  12.236  11.861   9.559 -0.2011 -0.2048  0.0960
  497POPI   C3A 7899  12.302  11.975   9.219 -0.1036 -0.0603  0.0133
  497POPI   C4A 7900  12.345  12.086   8.845  0.3965  0.0385 -0.2325
  497POPI   C1B 7901  12.806  11.836   9.865 -0.0795  0.0560  0.0022
  497POPI   C2B 7902  12.802  11.942   9.422  0.1998 -0.2564  0.1413
  497POPI   C3B 7903  12.834  12.029   8.962 -0.2054  0.1756  0.0014
  497POPI   C4B 7904  12.840  12.124   8.548 -0.1910  0.0449 -0.0115
  498POPI    C1 7905   8.476   6.860  10.954 -0.2423 -0.1237  0.1084
  498POPI    C2 7906   8.596   7.235  11.025 -0.4433 -0.0588  0.1113
  498POPI    C3 7907   8.421   7.023  11.315 -0.3775 -0.1369  0.0942
  498POPI   PO4 7908   8.685   6.815  10.766 -0.0674  0.1055 -0.0437
  498POPI   GL1 7909   8.672   6.849  10.324 -0.1871 -0.1793  0.0157
  498POPI   GL2 7910   8.584   6.529  10.265  0.0677 -0.3356  0.1586
  498POPI   C1A 7911   9.057   6.972  10.154 -0.2430  0.2114 -0.1842
  498POPI   D2A 7912   9.190   6.881   9.666 -0.1604  0.0289 -0.0531
  498POPI   C3A 7913   9.098   6.932   9.293 -0.4657  0.1784 -0.0458
  498POPI   C4A 7914   9.183   6.948   8.855  0.0267  0.0728  0.0213
  498POPI   C1B 7915   8.866   6.507   9.893 -0.2057 -0.2267 -0.0007
  498POPI   C2B 7916   8.938   6.452   9.430  0.3467  0.0684 -0.3269
  498POPI   C3B 7917   8.890   6.542   9.028  0.3048 -0.0524 -0.0854
  498POPI   C4B 7918   8.894   6.498   8.637  0.0413  0.1091  0.2505
  499POPI    C1 7919   9.252  13.020  11.162  0.0150  0.0402 -0.0601
  499POPI    C2 7920   9.039  12.906  11.481 -0.0931 -0.0091 -0.1494
  499POPI    C3 7921   9.231  13.257  11.484 -0.1327  0.0121 -0.0485
  499POPI   PO4 7922   9.118  12.953  10.960 -0.1385  0.0371 -0.1531
  499POPI   GL1 7923   9.304  13.124  10.496 -0.0244  0.4885 -0.2385
  499POPI   GL2 7924   9.539  13.134  10.575 -0.1249 -0.2656  0.0778
  499POPI   C1A 7925   9.329  13.312  10.110 -0.0697 -0.1099  0.2727
  499POPI   D2A 7926   9.428  13.409   9.669 -0.0362 -0.0320  0.0379
  499POPI   C3A 7927   9.374  13.416   9.199 -0.4285  0.1891 -0.0527
  499POPI   C4A 7928   9.479  13.387   8.733  0.0343  0.1234  0.1650
  499POPI   C1B 7929   9.869  13.103  10.320 -0.0561 -0.2274 -0.0648
  499POPI   C2B 7930   9.838  13.236   9.925  0.1817 -0.0901 -0.0354
  499POPI   C3B 7931   9.933  13.446   9.606 -0.5318  0.3577 -0.1140
  499POPI   C4B 7932   9.910  13.404   9.113  0.0106  0.1203  0.3494
  500POPI    C1 7933  15.770   6.328  10.871 -0.1511 -0.0188 -0.1734
  500POPI    C2 7934  15.765   5.943  10.763 -0.0757 -0.0891  0.0663
  500POPI    C3 7935  15.985   6.060  11.075  0.1592  0.2031 -0.2012
  500POPI   PO4 7936  15.880   6.467  10.703 -0.2603  0.0158 -0.0539
  500POPI   GL1 7937  16.088   6.461  10.304  0.1121  0.2247  0.2959
  500POPI   GL2 7938  16.301   6.656  10.258 -0.2955  0.1838  0.0956
  500POPI   C1A 7939  15.797   6.302   9.887  0.1817 -0.0603  0.0815
  500POPI   D2A 7940  15.645   6.320   9.433 -0.2208 -0.1722 -0.1082
  500POPI   C3A 7941  15.688   6.231   9.017  0.0821 -0.1816  0.1163
  500POPI   C4A 7942  15.637   6.197   8.564  0.2645 -0.2969 -0.1972
  500POPI   C1B 7943  16.031   6.707   9.889  0.8030 -0.0228 -0.0740
  500POPI   C2B 7944  16.020   6.810   9.503 -0.0860 -0.2440 -0.1069
  500POPI   C3B 7945  15.919   6.708   9.128  0.4472  0.0045 -0.1668
  500POPI   C4B 7946  15.910   6.597   8.628  0.2159 -0.1113 -0.0979
  501POPI    C1 7947  15.411   8.252  10.936  0.1701  0.0312  0.0703
  501POPI    C2 7948  15.069   8.122  10.775  0.2011  0.1230 -0.0721
  501POPI    C3 7949  15.228   7.932  11.089 -0.0515  0.1611  0.0815
  501POPI   PO4 7950  15.580   8.288  10.665  0.2438  0.0608  0.0285
  501POPI   GL1 7951  15.404   8.245  10.285  0.0428  0.0573  0.0257
  501POPI   GL2 7952  15.154   8.524  10.246  0.1075  0.0791  0.0658
  501POPI   C1A 7953  15.396   8.054   9.828 -0.1271 -0.3963  0.3403
  501POPI   D2A 7954  15.328   8.186   9.373  0.0146 -0.0813 -0.2514
  501POPI   C3A 7955  15.272   8.150   8.948  0.1180 -0.2326  0.0984
  501POPI   C4A 7956  15.041   7.932   8.574  0.1610 -0.1564  0.0746
  501POPI   C1B 7957  15.212   8.582   9.763  0.1019 -0.0746  0.1807
  501POPI   C2B 7958  15.067   8.620   9.278 -0.2515  0.3393  0.1735
  501POPI   C3B 7959  15.080   8.603   8.788 -0.0553  0.2183  0.3520
  501POPI   C4B 7960  15.072   8.745   8.382 -0.1816  0.0850 -0.2693
  502POPI    C1 7961   5.970   0.229  10.733  0.1255 -0.1257 -0.2985
  502POPI    C2 7962   6.160  -0.030  10.971  0.0630  0.0378 -0.0671
  502POPI    C3 7963   5.776  -0.089  10.877  0.0895 -0.0303 -0.1335
  502POPI   PO4 7964   6.060   0.193  10.526  0.1117  0.0870 -0.3611
  502POPI   GL1 7965   6.285  -0.124  10.297  0.0709 -0.1748  0.2306
  502POPI   GL2 7966   6.073  -0.396  10.211  0.0362 -0.2678 -0.0436
  502POPI   C1A 7967   6.305  -0.075   9.801 -0.0019 -0.1926  0.2675
  502POPI   D2A 7968   6.295  -0.174   9.440  0.0278 -0.3549 -0.4955
  502POPI   C3A 7969   6.277  -0.016   9.031  0.3495 -0.1903  0.2130
  502POPI   C4A 7970   6.263  -0.044   8.666 -0.0686 -0.2075  0.1436
  502POPI   C1B 7971   6.070  -0.544   9.865  0.2394  0.1400  0.0804
  502POPI   C2B 7972   5.917  -0.589   9.417 -0.0761  0.4533 -0.2621
  502POPI   C3B 7973   5.988  -0.564   8.986  0.2096 -0.0969  0.0126
  502POPI   C4B 7974   6.097  -0.482   8.492 -0.0537 -0.1157 -0.0221
  503POPI    C1 7975  13.879  11.002  10.963  0.2027  0.1072  0.0197
  503POPI    C2 7976  13.744  11.371  10.891 -0.1226  0.0539  0.3260
  503POPI    C3 7977  13.525  11.117  11.109 -0.0392 -0.4215 -0.1219
  503POPI   PO4 7978  14.158  11.052  10.926 -0.2161 -0.0192  0.4952
  503POPI   GL1 7979  14.301  11.259  10.568 -0.1793  0.1258  0.1097
  503POPI   GL2 7980  14.434  11.433  10.462  0.0921 -0.0003  0.2096
  503POPI   C1A 7981  14.415  11.003  10.230 -0.2201 -0.0069 -0.0381
  503POPI   D2A 7982  14.487  10.952   9.793 -0.0106  0.1838  0.0944
  503POPI   C3A 7983  14.421  10.907   9.349 -0.0456 -0.1099  0.1213
  503POPI   C4A 7984  14.368  10.927   8.996  0.2810  0.0814  0.2908
  503POPI   C1B 7985  14.688  11.401  10.126 -0.0029 -0.2891 -0.1452
  503POPI   C2B 7986  14.718  11.369   9.765  0.0150 -0.0866  0.0168
  503POPI   C3B 7987  14.665  11.341   9.329 -0.4984  0.1814  0.2538
  503POPI   C4B 7988  14.636  11.332   8.964  0.0053  0.1363 -0.1941
  504POPI    C1 7989  11.597  10.173  11.260  0.2595 -0.4186  0.1620
  504POPI    C2 7990  11.822  10.503  11.270 -0.0516 -0.1891 -0.1681
  504POPI    C3 7991  11.855  10.230  11.560  0.2157  0.1252  0.1056
  504POPI   PO4 7992  11.581  10.007  11.084  0.4109 -0.0598  0.2324
  504POPI   GL1 7993  11.629   9.953  10.606  0.1779 -0.3940 -0.0263
  504POPI   GL2 7994  11.401   9.726  10.447  0.1197  0.0645  0.0540
  504POPI   C1A 7995  11.650  10.115  10.166 -0.0970 -0.2116  0.2066
  504POPI   D2A 7996  11.679  10.041   9.762 -0.0548  0.1104  0.1962
  504POPI   C3A 7997  11.608  10.187   9.307  0.1259  0.0950  0.0399
  504POPI   C4A 7998  11.701  10.261   8.799 -0.2394 -0.0214 -0.0932
  504POPI   C1B 7999  11.431   9.674  10.030 -0.1387  0.1008  0.0389
  504POPI   C2B 8000  11.342   9.653   9.612 -0.4405 -0.2689 -0.1199
  504POPI   C3B 8001  11.271   9.791   9.228 -0.2366  0.0003 -0.0331
  504POPI   C4B 8002  11.416   9.814   8.746  0.2467  0.0595  0.1809
  505POPI    C1 8003  11.242  12.166  10.935 -0.1121  0.1658  0.0403
  505POPI    C2 8004  11.637  12.225  10.903 -0.0849  0.0705  0.1898
  505POPI    C3 8005  11.449  12.312  11.245 -0.1188 -0.2897  0.2667
  505POPI   PO4 8006  11.190  12.061  10.705  0.2342  0.2778 -0.0509
  505POPI   GL1 8007  11.014  11.991  10.359  0.2399 -0.1406  0.1752
  505POPI   GL2 8008  10.762  11.794  10.508 -0.1455  0.1084 -0.2792
  505POPI   C1A 8009  11.096  11.971   9.945  0.0414  0.1054 -0.3525
  505POPI   D2A 8010  11.038  11.937   9.562  0.0172 -0.0818  0.1454
  505POPI   C3A 8011  11.157  11.959   9.170 -0.1733  0.1311 -0.0697
  505POPI   C4A 8012  11.299  12.234   8.797  0.2475  0.1681  0.1866
  505POPI   C1B 8013  10.549  11.922  10.104 -0.0244 -0.0725  0.1042
  505POPI   C2B 8014  10.571  11.956   9.662  0.1475  0.2293  0.1921
  505POPI   C3B 8015  10.671  11.978   9.149 -0.3400  0.0718  0.0223
  505POPI   C4B 8016  10.730  12.079   8.751 -0.1718  0.0085  0.2184
  506POPI    C1 8017   2.531   8.419  10.382 -0.2996 -0.0761 -0.0482
  506POPI    C2 8018   2.366   8.289  10.722  0.1439 -0.2640  0.1034
  506POPI    C3 8019   2.687   8.527  10.734 -0.0383  0.0040 -0.1854
  506POPI   PO4 8020   2.501   8.230  10.230  0.0371 -0.1569 -0.0637
  506POPI   GL1 8021   2.470   8.148   9.860 -0.0585  0.2621 -0.1363
  506POPI   GL2 8022   2.490   7.797   9.786 -0.4226  0.2185 -0.2615
  506POPI   C1A 8023   2.129   8.053   9.568  0.0362 -0.2661 -0.1775
  506POPI   D2A 8024   2.185   7.867   9.186  0.3510 -0.2285 -0.1885
  506POPI   C3A 8025   2.021   7.806   8.775 -0.0278 -0.0493 -0.0723
  506POPI   C4A 8026   1.911   7.932   8.350 -0.2217  0.1283 -0.4693
  506POPI   C1B 8027   2.602   7.813   9.408  0.0667  0.0811 -0.1652
  506POPI   C2B 8028   2.659   7.891   9.010  0.2566 -0.0280 -0.4042
  506POPI   C3B 8029   2.509   7.846   8.615 -0.1415 -0.1633  0.1671
  506POPI   C4B 8030   2.393   7.886   8.224 -0.0482  0.1715 -0.0779
  507POPI    C1 8031   8.897   1.343  11.251  0.0146 -0.0865  0.0977
  507POPI    C2 8032   9.200   1.410  11.502  0.0338  0.0565  0.0374
  507POPI    C3 8033   8.883   1.654  11.503  0.0291  0.0510 -0.0693
  507POPI   PO4 8034   8.927   1.244  11.006 -0.0959 -0.1399 -0.2200
  507POPI   GL1 8035   8.966   0.884  10.822 -0.0288 -0.2520  0.3646
  507POPI   GL2 8036   9.307   0.998  10.798 -0.0230 -0.1623  0.3195
  507POPI   C1A 8037   8.890   0.741  10.478  0.1117  0.1036  0.2398
  507POPI   D2A 8038   8.731   0.681  10.066  0.2195  0.1647  0.2697
  507POPI   C3A 8039   8.832   0.745   9.571  0.2511  0.1131  0.0566
  507POPI   C4A 8040   8.982   0.648   9.244 -0.2983 -0.2960 -0.0819
  507POPI   C1B 8041   9.186   1.108  10.438 -0.2233 -0.2392  0.0903
  507POPI   C2B 8042   9.128   1.179   9.988  0.1221 -0.0014  0.2181
  507POPI   C3B 8043   9.217   1.097   9.604  0.0854 -0.4759 -0.0474
  507POPI   C4B 8044   9.226   1.079   9.194  0.1696  0.0794 -0.0793
  508POPI    C1 8045   1.924   3.056  10.560 -0.3250  0.1583 -0.2629
  508POPI    C2 8046   1.652   3.128  10.844 -0.0463 -0.0093  0.0536
  508POPI    C3 8047   1.952   2.872  10.914  0.0330 -0.0464 -0.3915
  508POPI   PO4 8048   1.814   2.996  10.390  0.2584  0.2136  0.0084
  508POPI   GL1 8049   1.811   2.678  10.081  0.2383 -0.4830 -0.2176
  508POPI   GL2 8050   1.565   2.919   9.987 -0.2434 -0.2638  0.2764
  508POPI   C1A 8051   2.099   2.805   9.664 -0.3858 -0.2018  0.0648
  508POPI   D2A 8052   2.099   2.873   9.234  0.4032  0.2657  0.1744
  508POPI   C3A 8053   2.079   2.649   8.920 -0.0306  0.0058 -0.0581
  508POPI   C4A 8054   2.085   2.857   8.517 -0.1564 -0.0774 -0.2063
  508POPI   C1B 8055   1.624   2.859   9.455 -0.1354 -0.0999 -0.0556
  508POPI   C2B 8056   1.624   2.832   9.069 -0.1702  0.0618  0.3206
  508POPI   C3B 8057   1.606   2.775   8.627 -0.1774 -0.1476  0.0420
  508POPI   C4B 8058   1.535   2.687   8.160  0.2370  0.3048  0.0538
  509POPI    C1 8059   5.585   7.086  10.534 -0.1922  0.1033 -0.0087
  509POPI    C2 8060   5.487   6.905  10.876 -0.0405 -0.0706 -0.0560
  509POPI    C3 8061   5.719   7.231  10.882  0.1430 -0.2000 -0.0053
  509POPI   PO4 8062   5.461   6.929  10.329 -0.1140  0.1084 -0.0503
  509POPI   GL1 8063   5.503   6.863   9.855  0.0406 -0.2449  0.4495
  509POPI   GL2 8064   5.941   6.797   9.709  0.0092  0.1864 -0.0254
  509POPI   C1A 8065   5.539   6.731   9.431 -0.0017 -0.2461  0.0018
  509POPI   D2A 8066   5.751   6.478   9.347 -0.1434  0.0935 -0.0406
  509POPI   C3A 8067   5.764   6.552   8.856 -0.0258 -0.1363 -0.0724
  509POPI   C4A 8068   5.724   6.527   8.367  0.0280 -0.3369  0.1691
  509POPI   C1B 8069   6.200   6.782   9.296  0.0602 -0.3767  0.0143
  509POPI   C2B 8070   6.310   6.614   8.844 -0.0717  0.1999  0.2312
  509POPI   C3B 8071   6.414   6.475   8.483 -0.2402  0.0526 -0.1472
  509POPI   C4B 8072   6.616   6.439   8.201  0.1946 -0.2163 -0.0096
  510POPI    C1 8073   6.284   8.418  10.279  0.0782  0.1399 -0.0349
  510POPI    C2 8074   6.418   8.310  10.640 -0.1407  0.0851  0.0318
  510POPI    C3 8075   6.228   8.044  10.409 -0.1034  0.1516 -0.0767
  510POPI   PO4 8076   6.474   8.530  10.171  0.1292  0.0676 -0.1545
  510POPI   GL1 8077   6.718   8.556   9.899  0.0374  0.1471 -0.0352
  510POPI   GL2 8078   6.877   8.845   9.981  0.1854 -0.0719  0.2358
  510POPI   C1A 8079   6.755   8.503   9.460 -0.1594 -0.1331  0.1654
  510POPI   D2A 8080   6.988   8.387   9.103  0.3200  0.1631 -0.1797
  510POPI   C3A 8081   6.796   8.360   8.761 -0.1874  0.4297 -0.1058
  510POPI   C4A 8082   6.797   8.253   8.330  0.2492 -0.2555  0.0005
  510POPI   C1B 8083   6.963   8.929   9.598 -0.2138 -0.2746  0.1518
  510POPI   C2B 8084   7.120   8.798   9.351  0.1028 -0.0355  0.3406
  510POPI   C3B 8085   7.164   8.801   8.941 -0.0377  0.0118  0.0036
  510POPI   C4B 8086   7.115   8.748   8.557  0.1849  0.1837  0.0956
  511POPI    C1 8087  17.207   2.637  10.388  0.0106 -0.3374 -0.2621
  511POPI    C2 8088  17.099   2.302  10.578  0.0178 -0.2792 -0.1544
  511POPI    C3 8089  17.239   2.284  10.203  0.1554 -0.4120 -0.0976
  511POPI   PO4 8090  16.950   2.802  10.403 -0.0693  0.2456  0.4163
  511POPI   GL1 8091  16.827   2.964  10.050 -0.1902  0.2549 -0.2117
  511POPI   GL2 8092  17.044   3.068   9.838 -0.0683 -0.3338  0.0905
  511POPI   C1A 8093  16.468   2.927   9.690  0.2404  0.3144 -0.2588
  511POPI   D2A 8094  16.430   2.917   9.269  0.1021  0.1303 -0.1292
  511POPI   C3A 8095  16.416   2.950   8.873 -0.0089 -0.3374 -0.0400
  511POPI   C4A 8096  16.466   2.994   8.399 -0.1769 -0.0140  0.3480
  511POPI   C1B 8097  16.883   2.933   9.414 -0.0129 -0.0589  0.0763
  511POPI   C2B 8098  16.965   2.923   8.968 -0.0767 -0.1149 -0.0076
  511POPI   C3B 8099  16.984   3.036   8.530  0.0227  0.0715 -0.4709
  511POPI   C4B 8100  16.815   3.303   8.173 -0.0382  0.4213 -0.0356
  512POPI    C1 8101  11.894   2.666  11.223 -0.0062  0.1312  0.1615
  512POPI    C2 8102  11.610   2.715  11.500 -0.1823 -0.1434  0.0341
  512POPI    C3 8103  11.925   2.479  11.575 -0.1264 -0.0566  0.0739
  512POPI   PO4 8104  11.694   2.683  10.927  0.3403 -0.2948 -0.3341
  512POPI   GL1 8105  11.418   2.666  10.594  0.1314 -0.3157  0.0050
  512POPI   GL2 8106  11.072   2.607  10.596 -0.1637  0.3059 -0.0931
  512POPI   C1A 8107  11.330   2.784  10.105  0.2560  0.0476  0.0134
  512POPI   D2A 8108  11.347   2.956   9.698 -0.2787  0.2170  0.0173
  512POPI   C3A 8109  11.347   2.788   9.380 -0.1180 -0.3520 -0.0161
  512POPI   C4A 8110  11.411   2.615   8.919  0.2564 -0.0480 -0.0249
  512POPI   C1B 8111  10.930   2.528  10.162  0.2190 -0.1374 -0.1177
  512POPI   C2B 8112  11.036   2.555   9.731  0.0370 -0.1723  0.1756
  512POPI   C3B 8113  11.088   2.391   9.252 -0.2792 -0.0093 -0.2612
  512POPI   C4B 8114  11.081   2.211   8.833  0.2590 -0.2323  0.1751
  513POPI    C1 8115   5.721  10.964  10.271 -0.0026 -0.1290 -0.0670
  513POPI    C2 8116   6.114  10.993  10.203 -0.0160  0.0894 -0.0595
  513POPI    C3 8117   5.981  10.822  10.539  0.0617 -0.4222 -0.2796
  513POPI   PO4 8118   5.672  11.016  10.002  0.2434  0.3103  0.1065
  513POPI   GL1 8119   5.820  10.851   9.640  0.0389 -0.0675 -0.0572
  513POPI   GL2 8120   5.579  10.646   9.649 -0.2974  0.1761  0.0420
  513POPI   C1A 8121   5.907  10.703   9.305 -0.2157  0.3295 -0.1730
  513POPI   D2A 8122   5.778  10.744   8.989 -0.3206  0.2117  0.2415
  513POPI   C3A 8123   5.736  10.799   8.561 -0.0618 -0.2933 -0.0967
  513POPI   C4A 8124   5.877  11.027   8.243  0.2999  0.1527  0.2322
  513POPI   C1B 8125   5.387  10.876   9.297 -0.0296  0.2561  0.0106
  513POPI   C2B 8126   5.390  11.040   8.847 -0.2983 -0.0719 -0.3907
  513POPI   C3B 8127   5.325  11.101   8.388  0.1634 -0.0562  0.2933
  513POPI   C4B 8128   5.373  10.777   7.985  0.1446  0.0761  0.0391
  514POPI    C1 8129   6.437   4.381  10.771  0.0024  0.1668  0.0260
  514POPI    C2 8130   6.038   4.383  10.781 -0.0004 -0.1168  0.0448
  514POPI    C3 8131   6.245   4.264  11.101  0.0918 -0.2713 -0.0707
  514POPI   PO4 8132   6.482   4.171  10.473 -0.2400 -0.2653  0.0726
  514POPI   GL1 8133   6.737   4.080  10.112  0.1981  0.1087 -0.4042
  514POPI   GL2 8134   7.005   4.049  10.141  0.3128 -0.0570 -0.0700
  514POPI   C1A 8135   6.605   3.987   9.685 -0.2728 -0.1292 -0.0496
  514POPI   D2A 8136   6.666   3.925   9.284 -0.1388 -0.0371  0.1585
  514POPI   C3A 8137   6.823   3.874   8.780  0.2237 -0.0412 -0.0023
  514POPI   C4A 8138   6.981   3.916   8.353 -0.3876 -0.0715  0.0589
  514POPI   C1B 8139   7.106   3.936   9.779  0.0976 -0.1878  0.1069
  514POPI   C2B 8140   7.187   3.921   9.414  0.0948  0.1400  0.0802
  514POPI   C3B 8141   7.267   3.848   8.986  0.2903 -0.1143 -0.0545
  514POPI   C4B 8142   7.381   3.853   8.630 -0.2145  0.2827  0.0589
  515POPI    C1 8143  15.566   9.185  11.125 -0.0716  0.1414 -0.2207
  515POPI    C2 8144  15.199   9.074  11.236  0.0633 -0.0539  0.0411
  515POPI    C3 8145  15.485   8.799  11.191  0.2320  0.1190  0.0463
  515POPI   PO4 8146  15.480   9.356  10.870 -0.3348 -0.0694 -0.0896
  515POPI   GL1 8147  15.244   9.695  10.644 -0.1408 -0.3091  0.1970
  515POPI   GL2 8148  15.073   9.642  10.384 -0.1560  0.3296 -0.1775
  515POPI   C1A 8149  15.349   9.987  10.166  0.0567 -0.1479 -0.0868
  515POPI   D2A 8150  15.396  10.109   9.821  0.0738 -0.1281  0.2139
  515POPI   C3A 8151  15.315   9.996   9.366  0.1475 -0.2610  0.1720
  515POPI   C4A 8152  15.283   9.928   8.891  0.2280 -0.2600  0.1349
  515POPI   C1B 8153  15.183   9.455  10.056 -0.0973  0.2444 -0.0005
  515POPI   C2B 8154  15.176   9.474   9.596  0.0669  0.1660 -0.2425
  515POPI   C3B 8155  15.023   9.550   9.121 -0.0079 -0.1607  0.3065
  515POPI   C4B 8156  14.885   9.597   8.673 -0.0143  0.0582  0.2360
  516POPI    C1 8157   1.965  12.324  10.348 -0.0492 -0.0850 -0.1692
  516POPI    C2 8158   2.118  11.954  10.352 -0.2818 -0.1822 -0.0588
  516POPI    C3 8159   2.224  12.218  10.634 -0.0188 -0.1223 -0.2106
  516POPI   PO4 8160   1.905  12.426  10.119  0.1429 -0.0149  0.0698
  516POPI   GL1 8161   1.852  12.794   9.951  0.0622  0.2152 -0.0024
  516POPI   GL2 8162   1.520  12.802  10.014  0.0447  0.1311  0.4310
  516POPI   C1A 8163   1.822  12.836   9.501 -0.2187 -0.0949  0.1561
  516POPI   D2A 8164   1.680  13.036   9.257 -0.1883  0.1184  0.3071
  516POPI   C3A 8165   1.737  13.070   8.848  0.1643 -0.0830  0.3490
  516POPI   C4A 8166   1.724  13.076   8.383  0.1315 -0.1733  0.2814
  516POPI   C1B 8167   1.368  13.004   9.694 -0.0233  0.3302  0.1861
  516POPI   C2B 8168   1.087  13.155   9.444 -0.0395  0.2276 -0.2672
  516POPI   C3B 8169   1.055  13.250   9.020  0.2591  0.1962 -0.0522
  516POPI   C4B 8170   0.894  13.083   8.664 -0.0288 -0.2713 -0.4399
  517POPI    C1 8171   1.189   0.042  10.729 -0.0867  0.0360  0.0215
  517POPI    C2 8172   1.567   0.113  10.838 -0.0682 -0.2123  0.1243
  517POPI    C3 8173   1.266   0.224  11.076 -0.0623  0.0027  0.0337
  517POPI   PO4 8174   1.206   0.155  10.484 -0.1759 -0.1229  0.0762
  517POPI   GL1 8175   1.079   0.108  10.107  0.0686 -0.2328  0.3433
  517POPI   GL2 8176   0.826   0.122   9.967  0.0041  0.2462 -0.1669
  517POPI   C1A 8177   1.147   0.493   9.808  0.4895  0.1475 -0.1558
  517POPI   D2A 8178   1.237   0.407   9.346  0.0918  0.2220  0.4241
  517POPI   C3A 8179   1.262   0.456   8.975 -0.1758 -0.1403  0.0146
  517POPI   C4A 8180   1.181   0.507   8.624 -0.5094  0.0687  0.0207
  517POPI   C1B 8181   0.961   0.001   9.638  0.0135 -0.1437 -0.1666
  517POPI   C2B 8182   0.872   0.080   9.230 -0.0785  0.0769  0.2539
  517POPI   C3B 8183   0.903   0.075   8.711 -0.0371 -0.3536 -0.0336
  517POPI   C4B 8184   0.979   0.084   8.299  0.0695  0.1732  0.1839
  518POPI    C1 8185  11.373   4.546  11.284  0.1099  0.0383 -0.0257
  518POPI    C2 8186  11.101   4.522  11.576  0.0562 -0.0225 -0.0804
  518POPI    C3 8187  11.482   4.425  11.649  0.1014  0.2407  0.0452
  518POPI   PO4 8188  11.269   4.471  10.993  0.1067 -0.1712 -0.0688
  518POPI   GL1 8189  11.016   4.628  10.632  0.0569 -0.0790 -0.2038
  518POPI   GL2 8190  10.963   4.965  10.519 -0.0725 -0.0905 -0.1409
  518POPI   C1A 8191  10.855   4.630  10.160 -0.1540 -0.0989  0.2953
  518POPI   D2A 8192  10.783   4.558   9.669 -0.1661  0.2061  0.1803
  518POPI   C3A 8193  10.873   4.685   9.232  0.0000 -0.1022 -0.1854
  518POPI   C4A 8194  11.008   4.721   8.841  0.2742  0.0350 -0.1983
  518POPI   C1B 8195  11.103   5.128  10.110  0.2017 -0.0785  0.0070
  518POPI   C2B 8196  11.189   5.119   9.715  0.0249 -0.0592 -0.1783
  518POPI   C3B 8197  11.285   5.145   9.352 -0.1409  0.2828 -0.0294
  518POPI   C4B 8198  11.356   5.131   8.917  0.1377  0.1149  0.0974
  519POPI    C1 8199  12.317  12.395  10.980  0.2189  0.0516 -0.0656
  519POPI    C2 8200  12.008  12.376  11.234  0.2626 -0.0293 -0.0183
  519POPI    C3 8201  12.364  12.508  11.361  0.3759 -0.3890  0.0521
  519POPI   PO4 8202  12.163  12.524  10.686 -0.0380  0.0634 -0.1479
  519POPI   GL1 8203  12.413  12.650  10.365  0.2599  0.2395  0.2483
  519POPI   GL2 8204  12.610  12.417  10.414  0.0814 -0.2763  0.0647
  519POPI   C1A 8205  12.271  12.849  10.022  0.1825  0.3572 -0.2220
  519POPI   D2A 8206  12.239  12.987   9.696 -0.0412 -0.0505 -0.1081
  519POPI   C3A 8207  12.309  12.900   9.298 -0.2093 -0.1234  0.1459
  519POPI   C4A 8208  12.433  12.994   8.940  0.0102  0.1616 -0.0441
  519POPI   C1B 8209  12.484  12.375   9.934 -0.1527 -0.1215 -0.1882
  519POPI   C2B 8210  12.500  12.356   9.487 -0.0714  0.0813  0.1546
  519POPI   C3B 8211  12.584  12.464   9.057 -0.0457  0.0490 -0.3213
  519POPI   C4B 8212  12.585  12.551   8.591  0.2844  0.0215 -0.0136
  520POPI    C1 8213  16.853   1.544  10.598 -0.1195 -0.0998 -0.0050
  520POPI    C2 8214  17.175   1.448  10.814 -0.0939  0.0549  0.0271
  520POPI    C3 8215  17.061   1.831  10.784 -0.1309  0.0285 -0.1867
  520POPI   PO4 8216  16.917   1.458  10.371  0.3144  0.0874  0.1836
  520POPI   GL1 8217  16.866   1.020  10.117  0.3221 -0.0407 -0.1637
  520POPI   GL2 8218  17.188   1.206  10.055  0.1998  0.0038 -0.4649
  520POPI   C1A 8219  16.735   1.130   9.680  0.1157 -0.3934 -0.2246
  520POPI   D2A 8220  16.766   1.122   9.256  0.1565  0.1389  0.1802
  520POPI   C3A 8221  16.864   1.095   8.833  0.1736  0.2316 -0.2403
  520POPI   C4A 8222  16.807   1.097   8.499  0.0927 -0.0196  0.0043
  520POPI   C1B 8223  17.246   1.129   9.616  0.0058  0.2534 -0.2312
  520POPI   C2B 8224  17.317   1.085   9.203  0.0147  0.4495 -0.0482
  520POPI   C3B 8225  17.349   1.101   8.764 -0.2530  0.3503 -0.3601
  520POPI   C4B 8226  17.481   1.283   8.414 -0.2599 -0.5508 -0.0849
  521POPI    C1 8227   2.382  17.635  10.582  0.0481  0.0756  0.0487
  521POPI    C2 8228   2.630  17.633  10.896  0.0173 -0.7054  0.0871
  521POPI    C3 8229   2.236  17.592  10.952 -0.0826 -0.0012 -0.0110
  521POPI   PO4 8230   2.555  17.790  10.411 -0.1833 -0.2125  0.0229
  521POPI   GL1 8231   2.656  17.686  10.039  0.1902 -0.1939 -0.1251
  521POPI   GL2 8232   2.829  17.430   9.929 -0.0017  0.0590 -0.1858
  521POPI   C1A 8233   2.340  17.592   9.801 -0.0890 -0.0383 -0.3320
  521POPI   D2A 8234   2.036  17.803   9.578  0.2763  0.0625 -0.2993
  521POPI   C3A 8235   1.956  17.807   9.098  0.1322 -0.0335 -0.0527
  521POPI   C4A 8236   1.888  17.962   8.689 -0.0759 -0.1186  0.0477
  521POPI   C1B 8237   2.712  17.502   9.487  0.1862 -0.2350  0.1965
  521POPI   C2B 8238   2.750  17.496   9.054  0.1526  0.0764  0.1879
  521POPI   C3B 8239   2.728  17.590   8.668 -0.1121 -0.0807  0.0519
  521POPI   C4B 8240   2.859  17.728   8.350 -0.0436 -0.0183 -0.0138
  522POPI    C1 8241   8.244   1.427  11.428 -0.0731 -0.0144  0.2322
  522POPI    C2 8242   8.037   1.759  11.512 -0.0351  0.0615  0.0327
  522POPI    C3 8243   8.235   1.568  11.803 -0.0705  0.2038  0.1517
  522POPI   PO4 8244   8.408   1.540  11.198  0.0039 -0.0203 -0.2012
  522POPI   GL1 8245   8.403   1.495  10.715 -0.3962  0.0613 -0.3480
  522POPI   GL2 8246   8.651   1.315  10.603 -0.3013 -0.0305  0.0386
  522POPI   C1A 8247   8.423   1.589  10.263 -0.1394 -0.0784 -0.0125
  522POPI   D2A 8248   8.450   1.695   9.795  0.2707  0.0299 -0.1189
  522POPI   C3A 8249   8.453   1.562   9.297 -0.1260 -0.0811 -0.0044
  522POPI   C4A 8250   8.564   1.525   8.839 -0.0008  0.2905 -0.0665
  522POPI   C1B 8251   8.658   1.137  10.189 -0.0307  0.1640  0.0372
  522POPI   C2B 8252   8.691   1.212   9.690 -0.0014  0.2512  0.1324
  522POPI   C3B 8253   8.719   1.143   9.262  0.1793  0.4525  0.0964
  522POPI   C4B 8254   8.757   1.037   8.878 -0.2780  0.2495 -0.4087
  523POPI    C1 8255  13.504   8.838  11.135  0.0624  0.1460  0.0183
  523POPI    C2 8256  13.522   8.507  11.358 -0.0041  0.0732 -0.0837
  523POPI    C3 8257  13.790   8.799  11.411 -0.0789  0.0996  0.1598
  523POPI   PO4 8258  13.563   8.803  10.824  0.1477 -0.1036 -0.1764
  523POPI   GL1 8259  13.427   8.653  10.484 -0.1900  0.0737 -0.0293
  523POPI   GL2 8260  13.200   8.494  10.471 -0.1171 -0.0732  0.1013
  523POPI   C1A 8261  13.388   8.747  10.118 -0.2939  0.3053 -0.1045
  523POPI   D2A 8262  13.418   8.704   9.661 -0.1897 -0.0791  0.1278
  523POPI   C3A 8263  13.400   8.673   9.145 -0.3909 -0.2926 -0.0575
  523POPI   C4A 8264  13.469   8.614   8.602 -0.0655 -0.2924 -0.1458
  523POPI   C1B 8265  13.058   8.289  10.088 -0.2940  0.0704  0.1402
  523POPI   C2B 8266  13.089   8.270   9.644 -0.0390 -0.2063  0.0275
  523POPI   C3B 8267  13.109   8.261   9.248  0.0562 -0.3204  0.1850
  523POPI   C4B 8268  13.166   8.217   8.789 -0.4885 -0.0398 -0.1757
  524DPPI    C1 8269  10.998   3.053  11.194  0.0282 -0.1978  0.0494
  524DPPI    C2 8270  11.169   2.881  11.512  0.0513  0.0368  0.1662
  524DPPI    C3 8271  10.977   3.230  11.552  0.1134  0.1025 -0.0906
  524DPPI   PO4 8272  10.995   2.969  11.049  0.0233  0.0176  0.0465
  524DPPI   GL1 8273  10.750   2.951  10.669  0.0385 -0.1023 -0.0708
  524DPPI   GL2 8274  10.447   2.947  10.577  0.1746 -0.0095  0.0903
  524DPPI   C1A 8275  10.863   2.990  10.281  0.0537  0.2563 -0.1052
  524DPPI   C2A 8276  10.802   2.949   9.833 -0.0364  0.1418  0.0532
  524DPPI   C3A 8277  10.824   2.879   9.335 -0.0231  0.1171 -0.2436
  524DPPI   C4A 8278  10.879   2.839   8.918 -0.1822  0.0162 -0.0175
  524DPPI   C1B 8279  10.312   2.910  10.174 -0.0259 -0.0369 -0.1303
  524DPPI   C2B 8280  10.279   2.987   9.788 -0.1585  0.1300  0.0722
  524DPPI   C3B 8281  10.229   2.868   9.333  0.1222 -0.0671 -0.2585
  524DPPI   C4B 8282  10.263   2.976   8.849  0.0296  0.0119  0.1601
  525DPPI    C1 8283   3.952   4.043  10.725 -0.0476 -0.1386 -0.0084
  525DPPI    C2 8284   3.811   3.757  10.967 -0.1048 -0.0921  0.0135
  525DPPI    C3 8285   3.575   4.060  10.855 -0.0591 -0.0790 -0.0488
  525DPPI   PO4 8286   4.126   3.950  10.608  0.0024  0.1419 -0.1821
  525DPPI   GL1 8287   4.238   3.958  10.153  0.0973  0.0350 -0.0069
  525DPPI   GL2 8288   4.095   4.209  10.047  0.4008  0.1407 -0.0783
  525DPPI   C1A 8289   4.367   3.702   9.778 -0.0320 -0.1474  0.0499
  525DPPI   C2A 8290   4.458   3.627   9.405 -0.5291  0.0359 -0.0816
  525DPPI   C3A 8291   4.276   3.529   9.038  0.0993 -0.1878 -0.1308
  525DPPI   C4A 8292   4.320   3.491   8.630  0.0578  0.1216  0.2339
  525DPPI   C1B 8293   4.088   4.150   9.604 -0.2232  0.0534  0.3451
  525DPPI   C2B 8294   4.220   4.006   9.260  0.3652 -0.3617  0.1530
  525DPPI   C3B 8295   4.170   3.951   8.791 -0.1490 -0.2396 -0.3010
  525DPPI   C4B 8296   4.117   3.885   8.374 -0.1994 -0.0501 -0.0283
  526DPPI    C1 8297  15.220   8.648  10.714  0.0428  0.0000  0.0130
  526DPPI    C2 8298  15.025   8.598  11.060  0.0269 -0.2503 -0.0296
  526DPPI    C3 8299  14.831   8.555  10.713  0.0578 -0.0638 -0.0712
  526DPPI   PO4 8300  15.329   8.888  10.740 -0.2774 -0.1199  0.0435
  526DPPI   GL1 8301  15.260   9.101  10.409 -0.3734  0.1115 -0.2957
  526DPPI   GL2 8302  14.970   8.961  10.403  0.3090 -0.1029 -0.2351
  526DPPI   C1A 8303  15.309   9.010  10.019 -0.0608  0.0522  0.2438
  526DPPI   C2A 8304  15.400   9.039   9.582 -0.0537  0.0663 -0.1867
  526DPPI   C3A 8305  15.292   9.103   9.214  0.1890  0.1802  0.3431
  526DPPI   C4A 8306  15.227   9.056   8.755 -0.1957  0.0353 -0.0707
  526DPPI   C1B 8307  14.818   8.923  10.133  0.0449 -0.1254 -0.0425
  526DPPI   C2B 8308  14.869   8.953   9.723  0.1774  0.4734  0.2806
  526DPPI   C3B 8309  14.738   8.952   9.163 -0.6001 -0.1670 -0.1437
  526DPPI   C4B 8310  14.701   9.088   8.788  0.0567  0.3304  0.1950
  527DPPI    C1 8311  17.609  10.767  10.954  0.0111 -0.0864  0.1127
  527DPPI    C2 8312  17.870  10.528  10.767 -0.0690 -0.1065  0.0259
  527DPPI    C3 8313  17.826  10.504  11.164  0.2872  0.1137  0.0831
  527DPPI   PO4 8314  17.368  10.733  10.790 -0.2815 -0.2279  0.0201
  527DPPI   GL1 8315  17.128  10.653  10.419  0.1495 -0.1688  0.1171
  527DPPI   GL2 8316  17.179  10.349  10.411  0.0960 -0.4199 -0.1347
  527DPPI   C1A 8317  16.964  10.826  10.035 -0.0703  0.1239  0.1965
  527DPPI   C2A 8318  17.007  10.854   9.647 -0.2934  0.3972 -0.1325
  527DPPI   C3A 8319  16.909  10.890   9.176 -0.2133  0.1345  0.0210
  527DPPI   C4A 8320  16.936  10.819   8.756  0.2376 -0.4690 -0.1523
  527DPPI   C1B 8321  17.219  10.396  10.010 -0.2520 -0.0754 -0.1868
  527DPPI   C2B 8322  17.193  10.411   9.550 -0.1968 -0.0902  0.0584
  527DPPI   C3B 8323  17.207  10.496   9.144  0.0395 -0.1247 -0.1734
  527DPPI   C4B 8324  17.151  10.370   8.803 -0.3416 -0.0935  0.1651
  528DPPI    C1 8325  17.129   4.053  10.416 -0.0638  0.3089 -0.1183
  528DPPI    C2 8326  17.442   3.980  10.654 -0.1087 -0.1101 -0.1808
  528DPPI    C3 8327  17.137   4.202  10.787  0.0406 -0.0190  0.0149
  528DPPI   PO4 8328  17.138   3.835  10.240 -0.2847  0.2440 -0.2041
  528DPPI   GL1 8329  17.097   3.570   9.954 -0.0602 -0.1832 -0.2124
  528DPPI   GL2 8330  17.425   3.362   9.935 -0.0063  0.0779  0.1611
  528DPPI   C1A 8331  17.252   3.494   9.475  0.0011  0.1065 -0.1959
  528DPPI   C2A 8332  17.297   3.463   9.124  0.0019  0.2935  0.2131
  528DPPI   C3A 8333  17.283   3.435   8.680  0.0704 -0.0049 -0.0597
  528DPPI   C4A 8334  17.268   3.503   8.248  0.0977 -0.0141  0.0807
  528DPPI   C1B 8335  17.748   3.369   9.615  0.1263 -0.4691  0.4159
  528DPPI   C2B 8336  17.780   3.303   9.244  0.0010 -0.0069 -0.1133
  528DPPI   C3B 8337  17.788   3.405   8.719  0.0033 -0.0909 -0.1570
  528DPPI   C4B 8338  17.787   3.383   8.295  0.0928 -0.0784  0.3717
  529DPPI    C1 8339  10.081  12.602  10.855  0.0294 -0.1804  0.1308
  529DPPI    C2 8340  10.313  12.898  10.990 -0.0471 -0.1509  0.1985
  529DPPI    C3 8341   9.947  12.979  10.849  0.0232 -0.1841 -0.0070
  529DPPI   PO4 8342  10.235  12.453  10.789 -0.0089  0.0990 -0.1435
  529DPPI   GL1 8343  10.523  12.462  10.374  0.0026 -0.0660 -0.0330
  529DPPI   GL2 8344  10.285  12.284  10.301  0.2787 -0.2063  0.3179
  529DPPI   C1A 8345  10.799  12.395  10.098  0.4706  0.1073  0.0384
  529DPPI   C2A 8346  10.794  12.387   9.688 -0.2827  0.1202  0.1167
  529DPPI   C3A 8347  10.861  12.428   9.180 -0.2238  0.0687  0.1012
  529DPPI   C4A 8348  10.899  12.552   8.802  0.0746  0.0390 -0.2749
  529DPPI   C1B 8349  10.321  12.396   9.827  0.0590 -0.0438  0.0389
  529DPPI   C2B 8350  10.337  12.600   9.441  0.3304  0.0258 -0.2138
  529DPPI   C3B 8351  10.361  12.559   8.969  0.0888  0.2764  0.3619
  529DPPI   C4B 8352  10.438  12.524   8.465  0.2945 -0.1519  0.0124
  530DPPI    C1 8353   6.353   2.550  10.923  0.0706 -0.0018  0.0118
  530DPPI    C2 8354   6.497   2.607  11.291 -0.1134 -0.0386  0.0905
  530DPPI    C3 8355   6.633   2.827  10.987  0.0003  0.0294  0.1899
  530DPPI   PO4 8356   6.114   2.508  10.763  0.0767  0.1502 -0.3449
  530DPPI   GL1 8357   6.165   2.275  10.456 -0.2003  0.2963 -0.0183
  530DPPI   GL2 8358   6.262   1.890  10.413  0.0728  0.0300  0.2929
  530DPPI   C1A 8359   6.429   2.245  10.122  0.1586 -0.2769  0.1747
  530DPPI   C2A 8360   6.521   2.129   9.646  0.0375  0.2912  0.2689
  530DPPI   C3A 8361   6.576   2.096   9.210  0.0989  0.1505  0.0034
  530DPPI   C4A 8362   6.672   2.051   8.745  0.3166 -0.1921  0.1655
  530DPPI   C1B 8363   6.212   1.740  10.043  0.0335 -0.0097  0.1301
  530DPPI   C2B 8364   6.250   1.737   9.619  0.1640 -0.4878  0.0178
  530DPPI   C3B 8365   6.307   1.681   9.248  0.1730 -0.1765  0.0284
  530DPPI   C4B 8366   6.348   1.636   8.780  0.0405  0.1069 -0.2560
  531DPPI    C1 8367   7.082   5.865  10.842 -0.1073 -0.1168 -0.0278
  531DPPI    C2 8368   7.192   6.142  11.109 -0.1715 -0.0334 -0.0873
  531DPPI    C3 8369   6.810   6.116  10.994 -0.2109 -0.3004  0.0942
  531DPPI   PO4 8370   7.175   5.950  10.586  0.0428  0.2002  0.0115
  531DPPI   GL1 8371   7.056   6.083  10.153 -0.1725 -0.1505 -0.1009
  531DPPI   GL2 8372   6.886   5.857   9.973 -0.0255  0.0646 -0.1295
  531DPPI   C1A 8373   7.135   6.259   9.739  0.0384 -0.0090 -0.2914
  531DPPI   C2A 8374   7.090   6.159   9.373 -0.3443  0.1887 -0.0908
  531DPPI   C3A 8375   7.063   6.085   8.955 -0.1209 -0.2724  0.2051
  531DPPI   C4A 8376   7.124   6.030   8.549  0.0844  0.1322  0.2403
  531DPPI   C1B 8377   6.835   5.743   9.467 -0.4316 -0.0603 -0.3033
  531DPPI   C2B 8378   6.824   5.684   9.100 -0.2901  0.0636 -0.0154
  531DPPI   C3B 8379   6.848   5.648   8.709 -0.2073 -0.0670  0.0743
  531DPPI   C4B 8380   6.714   5.481   8.342 -0.1036 -0.2933 -0.0022
  532DPPI    C1 8381   5.061  13.151  10.504 -0.2201 -0.0229  0.1034
  532DPPI    C2 8382   5.042  13.390  10.824  0.0994  0.1062  0.0296
  532DPPI    C3 8383   5.396  13.257  10.695 -0.0455 -0.1166 -0.1463
  532DPPI   PO4 8384   4.895  13.166  10.306 -0.0013 -0.3096  0.0164
  532DPPI   GL1 8385   4.899  13.440   9.866  0.1825  0.2660 -0.0496
  532DPPI   GL2 8386   4.743  13.208   9.777  0.0079 -0.2020  0.1373
  532DPPI   C1A 8387   5.133  13.658   9.589 -0.1234 -0.1136 -0.0739
  532DPPI   C2A 8388   5.203  13.703   9.138 -0.0450  0.1466 -0.2614
  532DPPI   C3A 8389   5.276  13.712   8.735  0.1600 -0.0289  0.0689
  532DPPI   C4A 8390   5.312  13.721   8.343 -0.0975  0.1043 -0.1408
  532DPPI   C1B 8391   4.977  13.236   9.412 -0.0133 -0.1690 -0.0561
  532DPPI   C2B 8392   4.912  13.327   8.953 -0.1658 -0.4157  0.1826
  532DPPI   C3B 8393   4.967  13.296   8.562 -0.2413  0.2814 -0.0176
  532DPPI   C4B 8394   5.030  13.273   8.140 -0.2035 -0.0945  0.2942
  533DPPI    C1 8395  13.856  12.332  10.905 -0.2084  0.3715  0.2365
  533DPPI    C2 8396  14.097  12.065  11.081 -0.5524  0.0271  0.1984
  533DPPI    C3 8397  14.111  12.450  11.190  0.2157  0.0733 -0.0073
  533DPPI   PO4 8398  13.954  12.291  10.682  0.0898  0.2891  0.2342
  533DPPI   GL1 8399  13.787  12.673  10.379 -0.0012 -0.1733  0.1572
  533DPPI   GL2 8400  13.574  12.558  10.478 -0.3194 -0.3036  0.2915
  533DPPI   C1A 8401  13.766  12.839   9.935  0.0056  0.2231  0.0893
  533DPPI   C2A 8402  13.918  12.891   9.567 -0.1517  0.2287 -0.1147
  533DPPI   C3A 8403  13.922  12.798   9.166  0.1100  0.0031 -0.0651
  533DPPI   C4A 8404  13.944  12.819   8.706  0.0723  0.1055  0.0717
  533DPPI   C1B 8405  13.584  12.378  10.003 -0.1535  0.0759  0.0482
  533DPPI   C2B 8406  13.609  12.421   9.614  0.0418 -0.2345 -0.2117
  533DPPI   C3B 8407  13.645  12.389   9.167  0.2920  0.0769 -0.1793
  533DPPI   C4B 8408  13.668  12.348   8.771 -0.0129 -0.0524  0.1962
  534DPPI    C1 8409   6.279  11.334  10.716 -0.2731  0.1775  0.0257
  534DPPI    C2 8410   6.398  10.952  10.721 -0.2732  0.1765 -0.0373
  534DPPI    C3 8411   6.172  11.095  11.018 -0.3156  0.1139 -0.0392
  534DPPI   PO4 8412   6.209  11.472  10.450 -0.1106  0.0415 -0.3651
  534DPPI   GL1 8413   6.328  11.455  10.004 -0.0049  0.2865  0.1228
  534DPPI   GL2 8414   6.172  11.803  10.072  0.0212  0.3305  0.1573
  534DPPI   C1A 8415   6.470  11.454   9.547 -0.1712  0.1775 -0.3607
  534DPPI   C2A 8416   6.462  11.485   9.105 -0.1630  0.3630 -0.0036
  534DPPI   C3A 8417   6.466  11.372   8.639 -0.0184  0.0370  0.0050
  534DPPI   C4A 8418   6.231  11.382   8.290 -0.0356  0.2782 -0.0762
  534DPPI   C1B 8419   6.186  11.873   9.673  0.1587 -0.2026  0.0399
  534DPPI   C2B 8420   6.193  11.802   9.344 -0.1682  0.2469 -0.2090
  534DPPI   C3B 8421   6.228  11.885   8.914  0.2039  0.0614 -0.0287
  534DPPI   C4B 8422   6.278  11.903   8.456 -0.0880 -0.1733  0.2731
  535DPPI    C1 8423  14.722   6.958  11.061  0.0297  0.0775 -0.0062
  535DPPI    C2 8424  15.012   7.031  10.794  0.0722  0.0234  0.0250
  535DPPI    C3 8425  15.006   6.684  10.994  0.0317  0.0574  0.0834
  535DPPI   PO4 8426  14.521   7.141  10.928 -0.2144  0.0598 -0.1463
  535DPPI   GL1 8427  14.617   7.307  10.598 -0.1942 -0.2317 -0.0382
  535DPPI   GL2 8428  14.391   7.269  10.367 -0.0178 -0.2754 -0.3092
  535DPPI   C1A 8429  14.827   7.329  10.154 -0.1102 -0.2462 -0.0429
  535DPPI   C2A 8430  14.722   7.333   9.761 -0.1939  0.0719 -0.1077
  535DPPI   C3A 8431  14.600   7.227   9.306  0.0597  0.1492  0.2177
  535DPPI   C4A 8432  14.758   7.218   8.886 -0.1446 -0.1741 -0.1729
  535DPPI   C1B 8433  14.330   7.407   9.965  0.4511  0.2603  0.0826
  535DPPI   C2B 8434  14.196   7.393   9.573  0.1236 -0.0424 -0.1281
  535DPPI   C3B 8435  14.138   7.289   9.165 -0.0142  0.0891 -0.0413
  535DPPI   C4B 8436  13.986   7.219   8.793 -0.1225 -0.0488  0.1136
  536DPPI    C1 8437   8.378  14.783  10.884  0.0159  0.1931 -0.0383
  536DPPI    C2 8438   8.358  15.041  11.188  0.1931 -0.3361  0.4401
  536DPPI    C3 8439   8.713  14.909  11.061  0.1408  0.1015 -0.2061
  536DPPI   PO4 8440   8.301  14.866  10.670  0.1854 -0.2733 -0.2901
  536DPPI   GL1 8441   8.229  14.811  10.275  0.0505 -0.2275 -0.0845
  536DPPI   GL2 8442   7.968  14.603  10.296  0.4637  0.1025 -0.4253
  536DPPI   C1A 8443   8.159  14.911   9.807 -0.1569  0.2527 -0.0747
  536DPPI   C2A 8444   8.156  14.897   9.372  0.0394  0.0867 -0.2711
  536DPPI   C3A 8445   8.190  14.993   8.938  0.0688  0.0382  0.1735
  536DPPI   C4A 8446   8.163  14.877   8.531  0.0790 -0.1619 -0.1141
  536DPPI   C1B 8447   7.903  14.468   9.890  0.2569 -0.1674 -0.1262
  536DPPI   C2B 8448   7.861  14.453   9.454  0.1336  0.1765 -0.1363
  536DPPI   C3B 8449   7.913  14.479   9.037 -0.1922  0.2710 -0.0473
  536DPPI   C4B 8450   7.950  14.388   8.608 -0.1068 -0.2581  0.0219
  537DPPI    C1 8451  13.485   3.872  11.037 -0.2481 -0.4436 -0.0887
  537DPPI    C2 8452  13.211   4.051  11.266 -0.0056  0.0824 -0.1961
  537DPPI    C3 8453  13.475   3.799  11.430 -0.1257  0.0957  0.0215
  537DPPI   PO4 8454  13.358   3.761  10.847  0.1123  0.3203 -0.0819
  537DPPI   GL1 8455  13.469   3.745  10.463  0.2230 -0.3500 -0.2722
  537DPPI   GL2 8456  13.699   3.559  10.292 -0.0681  0.1856 -0.1849
  537DPPI   C1A 8457  13.318   3.981   9.998  0.0131 -0.0840 -0.2850
  537DPPI   C2A 8458  13.320   3.991   9.512  0.1387 -0.0134 -0.2272
  537DPPI   C3A 8459  13.347   4.233   9.153 -0.1492  0.0671  0.1424
  537DPPI   C4A 8460  13.582   4.613   9.110  0.0157  0.1070 -0.0039
  537DPPI   C1B 8461  13.628   3.618   9.938 -0.1846 -0.1665 -0.1143
  537DPPI   C2B 8462  13.668   3.627   9.550  0.1449 -0.4083  0.2378
  537DPPI   C3B 8463  13.529   3.572   9.057  0.0956  0.2827 -0.0926
  537DPPI   C4B 8464  13.441   3.416   8.581 -0.0784 -0.1480 -0.1142
  538DPPI    C1 8465   2.086   4.312  10.356 -0.0638 -0.0926 -0.0363
  538DPPI    C2 8466   2.370   4.365  10.632 -0.1780  0.0237  0.0601
  538DPPI    C3 8467   2.147   4.033  10.636 -0.2050  0.0427  0.1310
  538DPPI   PO4 8468   2.175   4.329   9.968 -0.1696  0.0291 -0.0091
  538DPPI   GL1 8469   2.362   3.956   9.752 -0.0017 -0.2396  0.2341
  538DPPI   GL2 8470   2.207   3.650   9.768 -0.0887 -0.1170  0.1788
  538DPPI   C1A 8471   2.295   4.086   9.206  0.1170 -0.1900 -0.0183
  538DPPI   C2A 8472   2.439   4.065   8.770 -0.1054 -0.0004 -0.3265
  538DPPI   C3A 8473   2.801   4.044   8.615 -0.0848 -0.2934  0.1017
  538DPPI   C4A 8474   3.131   4.186   8.512  0.0840 -0.2421 -0.0767
  538DPPI   C1B 8475   2.132   3.667   9.376 -0.2325 -0.1744  0.1468
  538DPPI   C2B 8476   2.160   3.656   8.908  0.1363 -0.1044 -0.2626
  538DPPI   C3B 8477   2.192   3.677   8.470 -0.0825  0.0297 -0.0626
  538DPPI   C4B 8478   2.206   3.386   8.139  0.0193 -0.3785  0.0196
  539DPPI    C1 8479   0.840  17.051  10.954  0.1459 -0.2404  0.0070
  539DPPI    C2 8480   1.070  17.175  11.257  0.0373 -0.1413  0.0496
  539DPPI    C3 8481   0.771  16.919  11.325 -0.0164 -0.0829  0.0338
  539DPPI   PO4 8482   0.954  16.904  10.712  0.0172 -0.0724  0.0043
  539DPPI   GL1 8483   1.133  17.139  10.272 -0.2301  0.0214 -0.1926
  539DPPI   GL2 8484   1.284  16.820  10.306 -0.2182 -0.2201  0.3690
  539DPPI   C1A 8485   1.340  17.000   9.851  0.1749 -0.1724 -0.0055
  539DPPI   C2A 8486   1.398  16.996   9.439  0.2489  0.0469 -0.1072
  539DPPI   C3A 8487   1.377  17.027   9.101 -0.0671  0.1585 -0.0838
  539DPPI   C4A 8488   1.413  16.959   8.698 -0.1313  0.3667  0.0232
  539DPPI   C1B 8489   0.958  16.634  10.033  0.1975 -0.4480 -0.2504
  539DPPI   C2B 8490   1.078  16.556   9.629 -0.3503  0.3012 -0.1700
  539DPPI   C3B 8491   1.116  16.606   9.174 -0.1176 -0.0943  0.2377
  539DPPI   C4B 8492   1.067  16.496   8.696 -0.1091 -0.1198  0.0024
  540DPPI    C1 8493   2.920   9.100  10.133  0.0048 -0.0395 -0.3305
  540DPPI    C2 8494   2.582   9.273  10.259  0.1009 -0.0138 -0.1034
  540DPPI    C3 8495   2.700   8.926  10.418  0.1576 -0.0469 -0.2165
  540DPPI   PO4 8496   2.975   9.177   9.850 -0.1219  0.4258  0.1448
  540DPPI   GL1 8497   2.908   8.895   9.540 -0.3106 -0.0882  0.1757
  540DPPI   GL2 8498   3.086   8.645   9.603 -0.1585 -0.3078  0.0963
  540DPPI   C1A 8499   2.745   8.749   9.077  0.1194 -0.1357 -0.0613
  540DPPI   C2A 8500   2.558   8.700   8.675  0.4455 -0.0471 -0.0788
  540DPPI   C3A 8501   2.513   8.806   8.259  0.1720 -0.0328  0.0883
  540DPPI   C4A 8502   2.452   8.881   7.786  0.1611  0.1952  0.1352
  540DPPI   C1B 8503   3.276   8.688   9.219 -0.4653 -0.1996  0.1211
  540DPPI   C2B 8504   3.086   8.756   8.748 -0.3107  0.1213  0.0401
  540DPPI   C3B 8505   3.056   8.906   8.322  0.1008  0.1298 -0.2981
  540DPPI   C4B 8506   2.963   8.905   7.965 -0.1324  0.0932  0.0064
  541DPPI    C1 8507   8.151   9.252  10.385 -0.0973  0.0999  0.0211
  541DPPI    C2 8508   7.909   9.286  10.701 -0.1353  0.1084 -0.0089
  541DPPI    C3 8509   8.095   8.939  10.628  0.0212  0.1615  0.1293
  541DPPI   PO4 8510   8.401   9.491  10.420 -0.0305 -0.1526  0.1512
  541DPPI   GL1 8511   8.581   9.851  10.351 -0.0588 -0.0188  0.2637
  541DPPI   GL2 8512   8.467  10.020  10.137 -0.1671 -0.1889  0.2546
  541DPPI   C1A 8513   8.695   9.734   9.873 -0.0830  0.1736  0.1479
  541DPPI   C2A 8514   8.797   9.720   9.370 -0.1089 -0.2066 -0.0706
  541DPPI   C3A 8515   8.693   9.729   8.834  0.0209 -0.1340 -0.2223
  541DPPI   C4A 8516   8.906   9.821   8.452  0.0184  0.0179 -0.1080
  541DPPI   C1B 8517   8.535  10.235   9.795  0.0319 -0.3091 -0.1529
  541DPPI   C2B 8518   8.425  10.328   9.379 -0.2670 -0.1061 -0.1203
  541DPPI   C3B 8519   8.414  10.227   8.942 -0.2489 -0.2913 -0.3759
  541DPPI   C4B 8520   8.589  10.262   8.491  0.0510  0.2372  0.4302
  542DPPI    C1 8521   4.555  13.509  10.380  0.1513 -0.0494  0.0184
  542DPPI    C2 8522   4.243  13.324  10.549 -0.0702  0.2839 -0.0169
  542DPPI    C3 8523   4.538  13.467  10.777  0.1346 -0.1586  0.0066
  542DPPI   PO4 8524   4.407  13.535  10.078 -0.1187  0.2126 -0.1032
  542DPPI   GL1 8525   4.176  13.218   9.707  0.1558  0.2756  0.1224
  542DPPI   GL2 8526   3.850  13.127   9.590 -0.2475  0.1729  0.1086
  542DPPI   C1A 8527   4.466  13.208   9.305  0.0444 -0.1024  0.1729
  542DPPI   C2A 8528   4.396  13.290   8.811 -0.1839  0.2941  0.2047
  542DPPI   C3A 8529   4.501  13.336   8.375 -0.0479  0.0690  0.1408
  542DPPI   C4A 8530   4.547  13.250   7.925 -0.0533  0.1820  0.0286
  542DPPI   C1B 8531   3.999  13.268   9.151 -0.0451 -0.0535  0.1270
  542DPPI   C2B 8532   3.933  13.278   8.701  0.0054 -0.1674  0.0326
  542DPPI   C3B 8533   3.880  13.406   8.197 -0.0618  0.1637 -0.2752
  542DPPI   C4B 8534   3.863  13.775   7.855  0.2422  0.3716  0.2381
  543DPPI    C1 8535   2.079   9.174  10.084 -0.1135  0.1247  0.2947
  543DPPI    C2 8536   2.201   8.881  10.327  0.0277 -0.1048 -0.0460
  543DPPI    C3 8537   1.841   9.047  10.380  0.0328 -0.1918  0.2806
  543DPPI   PO4 8538   1.995   9.102   9.830  0.3421 -0.0777  0.1738
  543DPPI   GL1 8539   2.185   9.136   9.447  0.0559 -0.1240  0.1615
  543DPPI   GL2 8540   2.388   8.892   9.375  0.1776  0.4061  0.1453
  543DPPI   C1A 8541   1.890   9.391   9.235 -0.1339 -0.2708 -0.3292
  543DPPI   C2A 8542   1.774   9.308   8.781 -0.0472 -0.0083 -0.1652
  543DPPI   C3A 8543   1.876   9.221   8.383  0.0344 -0.2651  0.0511
  543DPPI   C4A 8544   2.193   9.240   8.112 -0.0273 -0.2459  0.1304
  543DPPI   C1B 8545   2.075   8.945   9.011 -0.0063  0.2029  0.0868
  543DPPI   C2B 8546   2.023   8.831   8.631 -0.1391 -0.0926 -0.1800
  543DPPI   C3B 8547   1.904   8.849   8.103  0.2025  0.1371  0.0890
  543DPPI   C4B 8548   1.892   9.054   7.722 -0.0540  0.0147  0.0502
  544DPPI    C1 8549   5.000  10.653  10.385 -0.1784  0.2334  0.1244
  544DPPI    C2 8550   5.237  10.490  10.663 -0.0160 -0.2070 -0.2598
  544DPPI    C3 8551   5.334  10.841  10.499  0.1240 -0.1623 -0.0848
  544DPPI   PO4 8552   4.988  10.526  10.174 -0.2350 -0.0140 -0.2503
  544DPPI   GL1 8553   5.154  10.373   9.770  0.2808  0.1111 -0.0753
  544DPPI   GL2 8554   4.916  10.589   9.729  0.0232 -0.3229  0.1393
  544DPPI   C1A 8555   5.310  10.326   9.376 -0.0533  0.0142  0.3262
  544DPPI   C2A 8556   5.355  10.486   8.969  0.2243 -0.1975 -0.2308
  544DPPI   C3A 8557   5.286  10.583   8.587  0.2362 -0.0253  0.1829
  544DPPI   C4A 8558   5.637  10.389   8.255  0.1625  0.0585 -0.0244
  544DPPI   C1B 8559   4.889  10.665   9.290  0.1837  0.2550 -0.0163
  544DPPI   C2B 8560   4.934  10.762   8.822 -0.0855 -0.0660  0.1272
  544DPPI   C3B 8561   4.878  10.813   8.381  0.1815 -0.0315 -0.1783
  544DPPI   C4B 8562   4.561  10.946   8.200  0.2039  0.2236 -0.2885
  545DPPI    C1 8563   3.631   6.710  10.166  0.0244  0.2106 -0.0792
  545DPPI    C2 8564   3.396   6.559  10.453 -0.0186  0.0839 -0.1796
  545DPPI    C3 8565   3.587   6.906  10.512  0.0797 -0.0078  0.0538
  545DPPI   PO4 8566   3.469   6.711   9.956  0.0921  0.1515  0.0194
  545DPPI   GL1 8567   3.559   6.923   9.522 -0.0778  0.0339 -0.2978
  545DPPI   GL2 8568   3.738   6.568   9.436 -0.0639  0.1268 -0.0523
  545DPPI   C1A 8569   3.507   6.926   9.005 -0.2170 -0.0412 -0.0851
  545DPPI   C2A 8570   3.584   6.900   8.547  0.3569  0.1374 -0.2366
  545DPPI   C3A 8571   3.557   6.946   8.103 -0.1377  0.0183 -0.2842
  545DPPI   C4A 8572   3.268   6.918   7.802 -0.0684  0.1458 -0.0064
  545DPPI   C1B 8573   3.852   6.365   9.052 -0.3156  0.1649  0.0553
  545DPPI   C2B 8574   3.786   6.360   8.671 -0.2424 -0.0885  0.2540
  545DPPI   C3B 8575   3.745   6.411   8.267  0.2209  0.0727  0.0229
  545DPPI   C4B 8576   3.637   6.496   7.795  0.2238 -0.0097  0.1678
  546DPPI    C1 8577  10.111   2.008  11.283  0.2415 -0.4076  0.0920
  546DPPI    C2 8578   9.833   2.026  11.570  0.0810  0.1106 -0.0862
  546DPPI    C3 8579  10.215   2.103  11.657  0.0495  0.1582  0.0105
  546DPPI   PO4 8580  10.036   2.192  11.110 -0.1951  0.1485 -0.0121
  546DPPI   GL1 8581  10.107   2.361  10.723  0.1502  0.2469  0.0277
  546DPPI   GL2 8582   9.952   2.013  10.577  0.3131 -0.0406  0.0914
  546DPPI   C1A 8583  10.031   2.434  10.250  0.0753 -0.1589 -0.2131
  546DPPI   C2A 8584   9.958   2.404   9.810 -0.0425  0.0154  0.3524
  546DPPI   C3A 8585  10.006   2.469   9.463  0.1103  0.3377  0.0014
  546DPPI   C4A 8586  10.074   2.463   9.009 -0.0215  0.1825  0.1952
  546DPPI   C1B 8587   9.788   2.028  10.129  0.1749 -0.1436  0.0999
  546DPPI   C2B 8588   9.758   1.975   9.618  0.2458  0.1979  0.0719
  546DPPI   C3B 8589   9.769   1.994   9.240 -0.1862  0.2632  0.3392
  546DPPI   C4B 8590   9.761   1.964   8.863  0.1317 -0.0845  0.1860
  547DPPI    C1 8591   8.221   4.806  10.896 -0.0960  0.1197 -0.0755
  547DPPI    C2 8592   8.476   4.503  10.954  0.0273  0.2163 -0.1087
  547DPPI    C3 8593   8.247   4.633  11.256 -0.2439 -0.1042 -0.1704
  547DPPI   PO4 8594   8.359   4.952  10.797  0.1211 -0.1999  0.2078
  547DPPI   GL1 8595   8.283   5.183  10.442 -0.0794 -0.2101 -0.0046
  547DPPI   GL2 8596   7.967   5.159  10.487 -0.1524  0.0161 -0.1477
  547DPPI   C1A 8597   8.579   5.158  10.102  0.0324 -0.1641  0.2430
  547DPPI   C2A 8598   8.648   5.103   9.649 -0.0967  0.1081  0.1896
  547DPPI   C3A 8599   8.610   5.274   9.201 -0.2902  0.0886 -0.1490
  547DPPI   C4A 8600   8.722   5.171   8.713  0.3238  0.0352 -0.1268
  547DPPI   C1B 8601   8.074   5.222  10.025  0.1146  0.1879  0.2313
  547DPPI   C2B 8602   8.119   5.256   9.559  0.0411 -0.3103  0.3280
  547DPPI   C3B 8603   8.106   5.290   9.118 -0.2786  0.0992 -0.2976
  547DPPI   C4B 8604   8.231   5.261   8.833 -0.0048 -0.2348 -0.2250
  548DPPI    C1 8605  12.962   6.173  11.163 -0.1555  0.0752  0.0064
  548DPPI    C2 8606  13.288   6.039  11.354 -0.3248 -0.3621  0.0004
  548DPPI    C3 8607  12.960   6.136  11.562 -0.1222  0.3081  0.0292
  548DPPI   PO4 8608  12.976   6.022  10.897 -0.1078 -0.0322 -0.0075
  548DPPI   GL1 8609  12.783   5.999  10.517 -0.1694 -0.2682 -0.0260
  548DPPI   GL2 8610  12.963   5.646  10.467 -0.0497 -0.1162 -0.0017
  548DPPI   C1A 8611  12.903   6.047  10.140 -0.0977  0.4123  0.1823
  548DPPI   C2A 8612  12.894   6.026   9.701 -0.0319 -0.3132  0.0124
  548DPPI   C3A 8613  12.767   5.991   9.293 -0.2504 -0.1652  0.3569
  548DPPI   C4A 8614  12.829   5.861   8.852 -0.0048  0.0146 -0.0471
  548DPPI   C1B 8615  12.684   5.561  10.192 -0.1351 -0.0762  0.2621
  548DPPI   C2B 8616  12.509   5.550   9.724 -0.0931  0.2891  0.0811
  548DPPI   C3B 8617  12.546   5.517   9.337 -0.0564 -0.0762  0.0481
  548DPPI   C4B 8618  12.551   5.416   8.940  0.2267  0.2540 -0.0670
  549DPPI    C1 8619   8.396   7.622  10.816  0.1572  0.1336  0.0008
  549DPPI    C2 8620   8.199   7.958  10.726  0.1481  0.1217 -0.0235
  549DPPI    C3 8621   8.291   7.876  11.106 -0.0451  0.0444  0.0079
  549DPPI   PO4 8622   8.576   7.623  10.625 -0.2095  0.1362  0.1908
  549DPPI   GL1 8623   8.869   7.598  10.239 -0.0650 -0.0657  0.3131
  549DPPI   GL2 8624   8.740   7.365  10.263 -0.0696  0.2033 -0.1442
  549DPPI   C1A 8625   8.916   7.450   9.831  0.1979  0.1711 -0.1503
  549DPPI   C2A 8626   8.888   7.423   9.326 -0.4273 -0.0425  0.0946
  549DPPI   C3A 8627   8.940   7.382   8.970  0.1580  0.0046  0.2960
  549DPPI   C4A 8628   8.868   7.471   8.550 -0.0334 -0.2828 -0.0514
  549DPPI   C1B 8629   8.679   7.014   9.906  0.2070 -0.0201  0.1080
  549DPPI   C2B 8630   8.689   6.886   9.560 -0.0319 -0.1626 -0.0141
  549DPPI   C3B 8631   8.591   6.982   9.223 -0.0541  0.0361  0.1747
  549DPPI   C4B 8632   8.695   6.961   8.793  0.3630  0.1220 -0.1634
  550DPPI    C1 8633  14.399   0.380  11.181 -0.0552 -0.0326  0.1911
  550DPPI    C2 8634  14.498   0.101  11.449 -0.0651 -0.1985  0.0247
  550DPPI    C3 8635  14.736   0.418  11.392 -0.0258 -0.2000  0.1755
  550DPPI   PO4 8636  14.229   0.226  11.012 -0.2288  0.2169  0.0031
  550DPPI   GL1 8637  14.318   0.142  10.668 -0.4398  0.2427 -0.3105
  550DPPI   GL2 8638  14.653   0.185  10.541  0.0611 -0.0275 -0.1323
  550DPPI   C1A 8639  14.222   0.376  10.286  0.0763  0.4430  0.1373
  550DPPI   C2A 8640  14.225   0.371   9.904 -0.0211 -0.0492  0.0555
  550DPPI   C3A 8641  14.106   0.202   9.470 -0.1806 -0.0514 -0.2148
  550DPPI   C4A 8642  14.150   0.329   8.990 -0.0777  0.2924  0.1786
  550DPPI   C1B 8643  14.713   0.249  10.043  0.2983  0.0472 -0.2140
  550DPPI   C2B 8644  14.666   0.256   9.592  0.0446 -0.2556 -0.0963
  550DPPI   C3B 8645  14.558   0.241   9.236  0.0469 -0.3942  0.0031
  550DPPI   C4B 8646  14.611   0.225   8.811  0.1766 -0.3134  0.0524
  551DPPI    C1 8647   5.857  13.076  10.587 -0.0678 -0.0504 -0.0842
  551DPPI    C2 8648   6.214  12.938  10.703 -0.0196  0.1918  0.0624
  551DPPI    C3 8649   5.881  12.797  10.873  0.0229  0.1770  0.1338
  551DPPI   PO4 8650   5.908  13.091  10.312  0.0542  0.0740  0.1316
  551DPPI   GL1 8651   5.700  13.034  10.026  0.1608 -0.1357 -0.1268
  551DPPI   GL2 8652   5.667  12.747   9.947  0.1535 -0.0702 -0.3285
  551DPPI   C1A 8653   5.856  13.233   9.605  0.1240  0.2399  0.0907
  551DPPI   C2A 8654   5.927  13.332   9.154 -0.2021 -0.1628 -0.1625
  551DPPI   C3A 8655   5.948  13.262   8.729  0.3814  0.1374 -0.2496
  551DPPI   C4A 8656   6.156  13.319   8.264 -0.2238 -0.0937  0.1457
  551DPPI   C1B 8657   5.766  12.730   9.517  0.0625  0.0315 -0.0981
  551DPPI   C2B 8658   5.701  12.775   9.110  0.0096  0.2908 -0.2052
  551DPPI   C3B 8659   5.686  12.816   8.646 -0.0255 -0.3685  0.1210
  551DPPI   C4B 8660   5.753  12.907   8.178  0.0447  0.0968 -0.0435
  552DPPI    C1 8661   1.361  17.248  10.779  0.0544 -0.0331 -0.0962
  552DPPI    C2 8662   1.608  17.172  10.473  0.1604  0.2075 -0.0727
  552DPPI    C3 8663   1.521  16.883  10.737  0.1692  0.0347 -0.2563
  552DPPI   PO4 8664   1.204  17.439  10.690 -0.0176  0.1219 -0.1949
  552DPPI   GL1 8665   1.082  17.621  10.346 -0.0279 -0.2880 -0.0566
  552DPPI   GL2 8666   0.690  17.621  10.141  0.1764 -0.4757  0.1851
  552DPPI   C1A 8667   1.202  17.494   9.968  0.0795 -0.2173 -0.0168
  552DPPI   C2A 8668   1.079  17.477   9.585 -0.2628  0.1020 -0.0204
  552DPPI   C3A 8669   1.123  17.501   9.193 -0.0701 -0.1649 -0.3371
  552DPPI   C4A 8670   1.193  17.547   8.837  0.1662 -0.2794  0.1095
  552DPPI   C1B 8671   0.589  17.557   9.654 -0.0182  0.1219 -0.4497
  552DPPI   C2B 8672   0.668  17.546   9.193  0.1590 -0.0916  0.0601
  552DPPI   C3B 8673   0.656  17.549   8.739 -0.2063 -0.2242 -0.0418
  552DPPI   C4B 8674   0.913  17.508   8.396  0.0987  0.2722 -0.0682
  553DPPI    C1 8675   8.448   6.038  11.171 -0.0067 -0.0646 -0.0039
  553DPPI    C2 8676   8.288   5.678  11.238  0.1535 -0.1756 -0.2069
  553DPPI    C3 8677   8.484   5.867  11.531 -0.1300 -0.1485 -0.0307
  553DPPI   PO4 8678   8.530   5.942  10.851  0.3455  0.0662  0.0717
  553DPPI   GL1 8679   8.461   6.050  10.340  0.2588 -0.3108 -0.1513
  553DPPI   GL2 8680   8.782   6.141  10.448 -0.0646  0.1850  0.0625
  553DPPI   C1A 8681   8.673   6.071   9.956 -0.1504  0.0531  0.0575
  553DPPI   C2A 8682   8.597   6.073   9.537 -0.3387 -0.0928 -0.0599
  553DPPI   C3A 8683   8.666   6.089   9.171 -0.0577  0.2064  0.0777
  553DPPI   C4A 8684   8.698   6.056   8.742  0.1349 -0.2340  0.0778
  553DPPI   C1B 8685   9.096   6.055  10.208 -0.0611  0.0630 -0.1475
  553DPPI   C2B 8686   9.133   6.052   9.690 -0.0155  0.0916 -0.0122
  553DPPI   C3B 8687   9.163   6.042   9.272  0.2041  0.2228  0.2485
  553DPPI   C4B 8688   9.170   6.043   8.824 -0.1834  0.0750  0.2205
  554PYPI    C1 8689  13.055  10.187  10.989  0.0034 -0.0535  0.0047
  554PYPI    C2 8690  13.177  10.192  11.370  0.0216 -0.1159 -0.0002
  554PYPI    C3 8691  12.824  10.351  11.271  0.1057  0.0814  0.0115
  554PYPI   PO4 8692  13.152  10.305  10.831  0.0331  0.2018  0.3620
  554PYPI   GL1 8693  13.006  10.496  10.441 -0.0972 -0.1291  0.2784
  554PYPI   GL2 8694  13.091  10.222  10.342 -0.0282  0.2953 -0.1225
  554PYPI   C1A 8695  12.891  10.562  10.046  0.4316 -0.2789 -0.0077
  554PYPI   C2A 8696  12.876  10.477   9.622  0.0548  0.1559 -0.1214
  554PYPI   D3A 8697  13.085  10.510   9.231 -0.3116  0.0317  0.4260
  554PYPI   C4A 8698  12.939  10.435   8.884 -0.0749 -0.2112  0.1954
  554PYPI   C1B 8699  13.078  10.110   9.906 -0.3749  0.0155 -0.0572
  554PYPI   C2B 8700  13.124  10.025   9.427  0.1983  0.1925  0.0450
  554PYPI   C3B 8701  13.252  10.048   8.938 -0.2804  0.0210  0.3020
  554PYPI   C4B 8702  13.303  10.077   8.505 -0.2165 -0.0202 -0.0477
  555PYPI    C1 8703  12.237   2.402  10.924  0.1712 -0.1828 -0.0107
  555PYPI    C2 8704  12.443   2.574  11.220  0.2370 -0.3607  0.0482
  555PYPI    C3 8705  12.242   2.234  11.287 -0.1362 -0.1531  0.0102
  555PYPI   PO4 8706  12.351   2.425  10.723  0.1221  0.1751 -0.1881
  555PYPI   GL1 8707  12.549   2.069  10.510 -0.0435  0.1907 -0.2467
  555PYPI   GL2 8708  12.448   1.797  10.424 -0.1506 -0.1520  0.0702
  555PYPI   C1A 8709  12.601   2.231  10.142 -0.1256 -0.3114 -0.3099
  555PYPI   C2A 8710  12.609   2.298   9.798  0.0579 -0.3608  0.0437
  555PYPI   D3A 8711  12.552   2.312   9.360 -0.1465 -0.0709 -0.0866
  555PYPI   C4A 8712  12.712   2.131   8.995  0.1363 -0.1223  0.2058
  555PYPI   C1B 8713  12.276   1.832  10.031  0.1653  0.2575 -0.0025
  555PYPI   C2B 8714  12.364   1.851   9.616  0.0974 -0.1526 -0.0167
  555PYPI   C3B 8715  12.390   1.762   9.200  0.0913 -0.1636 -0.1034
  555PYPI   C4B 8716  12.445   1.631   8.828  0.1126 -0.0841 -0.0341
  556PYPI    C1 8717  11.599  17.046  11.293 -0.2857  0.0410 -0.1143
  556PYPI    C2 8718  11.206  16.973  11.307 -0.2148 -0.3224  0.0862
  556PYPI    C3 8719  11.437  16.887  11.622 -0.0088  0.1158  0.0615
  556PYPI   PO4 8720  11.553  17.084  10.896  0.3315 -0.2624  0.0041
  556PYPI   GL1 8721  11.717  17.354  10.576 -0.1153  0.0153  0.1268
  556PYPI   GL2 8722  11.366  17.521  10.341  0.3011 -0.1537 -0.1481
  556PYPI   C1A 8723  11.717  17.132  10.271 -0.0449  0.2631  0.2378
  556PYPI   C2A 8724  11.679  17.197   9.827  0.1694 -0.1493 -0.1051
  556PYPI   D3A 8725  11.698  16.860   9.606  0.0113 -0.1648 -0.1897
  556PYPI   C4A 8726  11.711  16.999   9.175  0.1966  0.1668 -0.1475
  556PYPI   C1B 8727  11.452  17.693   9.919 -0.1798  0.2329  0.1367
  556PYPI   C2B 8728  11.414  17.645   9.593 -0.1013  0.0048  0.0045
  556PYPI   C3B 8729  11.525  17.404   9.294 -0.0119  0.0070 -0.0956
  556PYPI   C4B 8730  11.506  17.401   8.831  0.2829 -0.0118  0.1742
  557PYPI    C1 8731   1.949  10.074  10.280 -0.2247  0.0130  0.3091
  557PYPI    C2 8732   2.245  10.094  10.548  0.0867  0.1363 -0.0338
  557PYPI    C3 8733   1.965  10.380  10.537  0.1414  0.1950  0.0779
  557PYPI   PO4 8734   2.160  10.041  10.067 -0.0071 -0.0944  0.3026
  557PYPI   GL1 8735   2.139  10.063   9.698  0.2057 -0.2901 -0.2555
  557PYPI   GL2 8736   2.416  10.243   9.675  0.0589  0.0745  0.0352
  557PYPI   C1A 8737   2.210  10.140   9.244  0.5615 -0.3223  0.1251
  557PYPI   C2A 8738   2.164  10.241   8.844  0.1136 -0.2348 -0.0258
  557PYPI   D3A 8739   2.067  10.137   8.447  0.0365 -0.0779  0.3245
  557PYPI   C4A 8740   1.662  10.155   8.198 -0.2704 -0.0292 -0.0122
  557PYPI   C1B 8741   2.679  10.047   9.376 -0.1190 -0.0407  0.1146
  557PYPI   C2B 8742   2.617  10.046   8.939  0.1200  0.0717 -0.1357
  557PYPI   C3B 8743   2.565  10.066   8.490  0.0476  0.1933 -0.2009
  557PYPI   C4B 8744   2.474  10.216   8.127 -0.1634 -0.1667 -0.0618
  558PYPI    C1 8745  13.838   4.367  10.789 -0.0535  0.0465  0.0908
  558PYPI    C2 8746  14.073   4.158  11.036 -0.0048  0.2453  0.2153
  558PYPI    C3 8747  14.214   4.280  10.682 -0.0630 -0.0083  0.1024
  558PYPI   PO4 8748  13.567   4.254  10.754  0.1065 -0.1863  0.1695
  558PYPI   GL1 8749  13.385   4.288  10.401  0.1542 -0.1246  0.1376
  558PYPI   GL2 8750  13.216   4.591  10.452 -0.0131  0.4072  0.1991
  558PYPI   C1A 8751  13.430   4.437  10.015 -0.1247  0.1140  0.2598
  558PYPI   C2A 8752  13.357   4.503   9.583 -0.0288 -0.1805  0.2305
  558PYPI   D3A 8753  13.017   4.644   9.307 -0.0166 -0.1369 -0.1631
  558PYPI   C4A 8754  12.969   4.495   8.894 -0.0059  0.1873 -0.0755
  558PYPI   C1B 8755  13.248   4.897  10.034 -0.0837 -0.0711  0.0736
  558PYPI   C2B 8756  13.274   5.034   9.648  0.0483  0.2326 -0.0663
  558PYPI   C3B 8757  13.320   5.068   9.209  0.5502 -0.1909  0.2158
  558PYPI   C4B 8758  13.436   5.030   8.798  0.1504  0.1186 -0.2532
  559PYPI    C1 8759  14.385   8.172  11.164 -0.0935 -0.1723  0.0530
  559PYPI    C2 8760  14.780   8.219  11.204 -0.0996  0.1033 -0.1753
  559PYPI    C3 8761  14.600   7.898  11.361  0.1730  0.1076  0.1593
  559PYPI   PO4 8762  14.341   8.228  10.847 -0.0401 -0.2966  0.2691
  559PYPI   GL1 8763  14.259   8.484  10.430 -0.4207  0.0118  0.1094
  559PYPI   GL2 8764  14.447   8.686  10.288 -0.2721  0.0986  0.1368
  559PYPI   C1A 8765  14.254   8.213  10.013  0.0218 -0.0393 -0.0420
  559PYPI   C2A 8766  14.274   8.228   9.590  0.2610 -0.2282 -0.0125
  559PYPI   D3A 8767  14.203   8.229   9.096  0.1551  0.0231  0.0484
  559PYPI   C4A 8768  14.310   8.172   8.673 -0.2940 -0.3694  0.2232
  559PYPI   C1B 8769  14.459   8.717   9.884  0.1534  0.1382  0.1568
  559PYPI   C2B 8770  14.450   8.698   9.455 -0.3108 -0.0832 -0.0486
  559PYPI   C3B 8771  14.491   8.620   8.950  0.3056 -0.3010 -0.3822
  559PYPI   C4B 8772  14.383   8.824   8.542  0.0784 -0.2779  0.3938
  560PYPI    C1 8773   5.087   9.213  10.246  0.1500 -0.2150  0.0645
  560PYPI    C2 8774   4.755   9.250  10.026  0.2917 -0.1148 -0.1357
  560PYPI    C3 8775   4.752   9.024  10.356  0.0644 -0.2304 -0.2148
  560PYPI   PO4 8776   5.272   9.198  10.075  0.0434  0.1084  0.0449
  560PYPI   GL1 8777   5.400   9.007   9.741 -0.5814  0.0277  0.1327
  560PYPI   GL2 8778   5.125   9.119   9.627 -0.2742 -0.2725 -0.0547
  560PYPI   C1A 8779   5.493   8.945   9.325  0.1982 -0.1635 -0.0011
  560PYPI   C2A 8780   5.493   8.913   8.864 -0.0536  0.1704 -0.0567
  560PYPI   D3A 8781   5.668   9.031   8.441  0.0771 -0.1972  0.0927
  560PYPI   C4A 8782   5.727   8.953   7.961  0.1024  0.1040 -0.0239
  560PYPI   C1B 8783   5.105   9.243   9.199  0.2474  0.1315  0.0163
  560PYPI   C2B 8784   5.247   9.413   8.853  0.2262  0.0114  0.0487
  560PYPI   C3B 8785   5.299   9.338   8.534  0.4653  0.0463 -0.0169
  560PYPI   C4B 8786   5.550   9.461   8.157 -0.1344  0.0081  0.4271
  561PYPI    C1 8787   2.530  11.454  10.432 -0.0086 -0.1042 -0.1874
  561PYPI    C2 8788   2.215  11.514  10.672  0.0455 -0.0396 -0.1322
  561PYPI    C3 8789   2.446  11.192  10.722 -0.0005 -0.0771 -0.1604
  561PYPI   PO4 8790   2.441  11.511  10.194  0.2365  0.2904  0.0518
  561PYPI   GL1 8791   2.496  11.888   9.944  0.2676 -0.0070  0.0327
  561PYPI   GL2 8792   2.322  12.090   9.663  0.3453 -0.0358 -0.1049
  561PYPI   C1A 8793   2.563  11.645   9.592 -0.0370  0.0071  0.1083
  561PYPI   C2A 8794   2.476  11.539   9.139  0.2793 -0.1625 -0.1353
  561PYPI   D3A 8795   2.538  11.901   8.756  0.0102 -0.1764  0.1228
  561PYPI   C4A 8796   2.536  12.059   8.333  0.1641  0.2456  0.1885
  561PYPI   C1B 8797   2.378  12.084   9.212  0.2432  0.0097 -0.0036
  561PYPI   C2B 8798   2.334  12.359   8.869 -0.0979  0.2166 -0.3748
  561PYPI   C3B 8799   2.353  12.511   8.448  0.2695 -0.2876  0.1310
  561PYPI   C4B 8800   2.220  12.325   8.052 -0.2021 -0.2795  0.1190
  562PYPI    C1 8801   2.332   5.159  10.171 -0.0375 -0.0337 -0.2507
  562PYPI    C2 8802   2.485   5.470  10.372 -0.0765 -0.0793 -0.1501
  562PYPI    C3 8803   2.650   5.107  10.408  0.1221 -0.0233 -0.4593
  562PYPI   PO4 8804   2.330   5.271   9.911 -0.2175 -0.0006  0.1223
  562PYPI   GL1 8805   2.306   5.404   9.606  0.1146 -0.1548  0.0546
  562PYPI   GL2 8806   2.065   5.106   9.542  0.0704  0.0925  0.1294
  562PYPI   C1A 8807   2.232   5.593   9.201  0.1879  0.0592  0.0594
  562PYPI   C2A 8808   2.110   5.606   8.824 -0.0182 -0.2642  0.0514
  562PYPI   D3A 8809   2.198   5.630   8.458 -0.0495 -0.1485 -0.3245
  562PYPI   C4A 8810   2.273   5.382   8.097 -0.1785 -0.3882  0.0750
  562PYPI   C1B 8811   2.107   5.162   9.019  0.0081 -0.1266 -0.0162
  562PYPI   C2B 8812   2.037   5.141   8.521  0.2706 -0.0654  0.3150
  562PYPI   C3B 8813   1.799   5.066   8.082  0.0273 -0.1734 -0.1364
  562PYPI   C4B 8814   1.714   4.944   7.643  0.0738 -0.0387  0.0409
  563PYPI    C1 8815   1.513   6.929  10.581 -0.0508 -0.0359 -0.0139
  563PYPI    C2 8816   1.626   6.968  10.963  0.1305  0.0758 -0.0771
  563PYPI    C3 8817   1.251   7.058  10.855 -0.0292 -0.3041  0.1368
  563PYPI   PO4 8818   1.682   6.953  10.475 -0.0299 -0.0887  0.0210
  563PYPI   GL1 8819   1.590   6.855  10.100 -0.1396  0.3490  0.0349
  563PYPI   GL2 8820   1.881   6.875   9.950 -0.0342  0.2959  0.2318
  563PYPI   C1A 8821   1.547   7.136   9.670  0.0643 -0.0768  0.3639
  563PYPI   C2A 8822   1.557   7.090   9.216 -0.0942 -0.1266 -0.2539
  563PYPI   D3A 8823   1.340   6.985   8.708  0.2497  0.3885  0.0971
  563PYPI   C4A 8824   1.503   7.095   8.293 -0.0140  0.1001 -0.1051
  563PYPI   C1B 8825   2.095   6.902   9.486 -0.2565 -0.0694 -0.0559
  563PYPI   C2B 8826   1.992   7.008   9.022 -0.2953 -0.3267 -0.3905
  563PYPI   C3B 8827   1.997   7.001   8.608  0.1406  0.0953  0.0602
  563PYPI   C4B 8828   1.964   6.936   8.215  0.0528 -0.2167  0.0763
  564PYPI    C1 8829   8.562  10.159  10.878  0.1473 -0.1195 -0.0564
  564PYPI    C2 8830   8.352   9.822  10.825 -0.0160  0.0074 -0.2304
  564PYPI    C3 8831   8.212  10.109  11.066  0.0354  0.0259 -0.2225
  564PYPI   PO4 8832   8.665  10.214  10.684 -0.0341  0.1281 -0.2841
  564PYPI   GL1 8833   8.884  10.229  10.333  0.3993  0.1272  0.3010
  564PYPI   GL2 8834   9.261  10.243  10.380 -0.3606  0.0011 -0.0166
  564PYPI   C1A 8835   8.990  10.255   9.938 -0.2618  0.2776 -0.2407
  564PYPI   C2A 8836   8.958  10.235   9.609 -0.0359  0.0921  0.0925
  564PYPI   D3A 8837   8.866  10.146   9.125  0.1036  0.0247 -0.0057
  564PYPI   C4A 8838   9.061  10.233   8.781  0.0544  0.2537 -0.2376
  564PYPI   C1B 8839   9.492  10.278  10.006 -0.1696  0.0894 -0.0298
  564PYPI   C2B 8840   9.512  10.303   9.573 -0.0510  0.0273 -0.0215
  564PYPI   C3B 8841   9.478  10.230   9.180 -0.2642 -0.2941  0.1870
  564PYPI   C4B 8842   9.541  10.275   8.739 -0.0248  0.1084 -0.1568
  565PYPI    C1 8843   0.278  12.740  10.874 -0.5013 -0.0703 -0.2127
  565PYPI    C2 8844   0.156  12.496  11.166 -0.2479  0.2212  0.1451
  565PYPI    C3 8845   0.391  12.809  11.251  0.1086  0.1216 -0.4183
  565PYPI   PO4 8846   0.386  12.651  10.676  0.3116 -0.1218 -0.3643
  565PYPI   GL1 8847   0.353  12.599  10.214  0.2225 -0.0080 -0.1378
  565PYPI   GL2 8848   0.249  12.929  10.261 -0.2329  0.0635  0.1056
  565PYPI   C1A 8849   0.066  12.560   9.958 -0.2905  0.1937  0.0702
  565PYPI   C2A 8850   0.037  12.623   9.485 -0.0242  0.0654  0.1972
  565PYPI   D3A 8851   0.088  12.693   8.969  0.4976 -0.1979 -0.1605
  565PYPI   C4A 8852   0.116  12.763   8.507  0.0251 -0.2873  0.0249
  565PYPI   C1B 8853  -0.110  13.013   9.996  0.0703  0.2094  0.0260
  565PYPI   C2B 8854  -0.195  13.026   9.612 -0.0208 -0.0551  0.0722
  565PYPI   C3B 8855  -0.156  13.064   9.096 -0.0055 -0.0410 -0.0745
  565PYPI   C4B 8856  -0.120  13.173   8.693  0.0120  0.0386  0.1363
  566PYPI    C1 8857  16.568  12.157  11.057 -0.0138 -0.1340 -0.0158
  566PYPI    C2 8858  16.923  12.004  11.157  0.1583  0.1824 -0.1287
  566PYPI    C3 8859  16.685  12.156  11.440  0.0372 -0.1780 -0.0314
  566PYPI   PO4 8860  16.596  12.388  10.779 -0.0092  0.0677 -0.0759
  566PYPI   GL1 8861  16.752  12.313  10.362  0.3543 -0.1546 -0.0189
  566PYPI   GL2 8862  16.953  12.249  10.184 -0.0016 -0.1073 -0.3218
  566PYPI   C1A 8863  16.454  12.648  10.103 -0.2409 -0.2554 -0.3078
  566PYPI   C2A 8864  16.439  12.737   9.670 -0.0482 -0.1950 -0.2104
  566PYPI   D3A 8865  16.588  12.745   9.183  0.1828  0.0607  0.2540
  566PYPI   C4A 8866  16.482  12.734   8.696 -0.0590  0.0100  0.2700
  566PYPI   C1B 8867  16.759  12.244   9.793 -0.1027  0.1276  0.0479
  566PYPI   C2B 8868  16.697  12.199   9.457  0.2380  0.1268  0.0496
  566PYPI   C3B 8869  16.747  12.281   9.057 -0.2292  0.2009 -0.1096
  566PYPI   C4B 8870  16.689  12.258   8.612 -0.0854  0.0344  0.0376
  567PYPI    C1 8871   5.763   3.479  11.137 -0.1476  0.1533  0.2331
  567PYPI    C2 8872   5.972   3.191  11.321  0.0106  0.1205  0.0059
  567PYPI    C3 8873   5.660   3.360  11.505  0.1314  0.0498  0.2809
  567PYPI   PO4 8874   5.837   3.600  10.971  0.2810  0.3486 -0.0828
  567PYPI   GL1 8875   5.841   3.542  10.545  0.0439  0.0455  0.0525
  567PYPI   GL2 8876   6.108   3.440  10.579 -0.0832 -0.2054 -0.2306
  567PYPI   C1A 8877   5.860   3.688  10.113  0.0086  0.0495 -0.0667
  567PYPI   C2A 8878   5.874   3.532   9.718 -0.1604 -0.5159 -0.2922
  567PYPI   D3A 8879   5.846   3.453   9.284 -0.0525 -0.0500  0.0980
  567PYPI   C4A 8880   5.901   3.480   8.877  0.0550 -0.1263 -0.1258
  567PYPI   C1B 8881   6.179   3.241  10.229  0.2023 -0.0342  0.3201
  567PYPI   C2B 8882   6.073   3.033   9.752  0.0493 -0.1180 -0.0584
  567PYPI   C3B 8883   6.126   2.986   9.392 -0.1717 -0.2132  0.2713
  567PYPI   C4B 8884   6.186   3.057   8.940 -0.0861 -0.0444 -0.1468
  568PYPI    C1 8885  14.668  12.762  10.829  0.0286 -0.2078 -0.1280
  568PYPI    C2 8886  14.530  12.733  11.204  0.0454 -0.0609 -0.1095
  568PYPI    C3 8887  14.913  12.648  11.124  0.0857  0.0748 -0.0630
  568PYPI   PO4 8888  14.641  13.063  10.674 -0.1385  0.2918 -0.0612
  568PYPI   GL1 8889  14.499  13.227  10.362 -0.0675  0.1121  0.5568
  568PYPI   GL2 8890  14.287  12.938  10.365  0.1714  0.2131  0.3969
  568PYPI   C1A 8891  14.687  13.153  10.002  0.0136 -0.1482  0.2262
  568PYPI   C2A 8892  14.727  13.253   9.536 -0.1741  0.0517 -0.4043
  568PYPI   D3A 8893  14.786  13.357   9.069  0.1856  0.0472  0.2772
  568PYPI   C4A 8894  14.685  13.148   8.713  0.2043  0.1733 -0.0256
  568PYPI   C1B 8895  14.277  12.808  10.080 -0.0873  0.0042 -0.0982
  568PYPI   C2B 8896  14.397  12.826   9.708  0.2736  0.5115  0.3238
  568PYPI   C3B 8897  14.431  12.782   9.323 -0.0549  0.1641 -0.2704
  568PYPI   C4B 8898  14.357  12.820   8.981  0.3498 -0.0391 -0.1979
  569PYPI    C1 8899   9.191  15.022  11.173 -0.0506  0.0087 -0.3355
  569PYPI    C2 8900   9.157  14.631  11.249 -0.1271  0.0577 -0.1098
  569PYPI    C3 8901   9.518  14.803  11.246 -0.1333  0.0879  0.3302
  569PYPI   PO4 8902   9.172  15.140  10.937 -0.2806 -0.1301  0.1858
  569PYPI   GL1 8903   9.375  15.260  10.601 -0.3147  0.1658  0.2942
  569PYPI   GL2 8904   9.586  14.976  10.762 -0.2065 -0.1547 -0.3060
  569PYPI   C1A 8905   9.455  15.401  10.153  0.2532  0.4452 -0.2832
  569PYPI   C2A 8906   9.498  15.365   9.709 -0.1520 -0.1974  0.1865
  569PYPI   D3A 8907   9.570  15.454   9.394 -0.0488  0.1312  0.0078
  569PYPI   C4A 8908   9.518  15.239   9.040 -0.0323  0.0500  0.1326
  569PYPI   C1B 8909   9.352  14.795  10.431 -0.1216  0.0048 -0.0055
  569PYPI   C2B 8910   9.445  14.797   9.941 -0.0474 -0.0587 -0.0483
  569PYPI   C3B 8911   9.630  14.815   9.597  0.1994 -0.1282  0.0981
  569PYPI   C4B 8912   9.806  14.814   9.118 -0.1813  0.0308 -0.0909
  570PYPI    C1 8913   7.591   9.598  10.313 -0.0463 -0.0417 -0.0745
  570PYPI    C2 8914   7.755   9.950  10.218 -0.2018  0.0183 -0.1233
  570PYPI    C3 8915   7.903   9.737  10.522 -0.0626  0.0924 -0.1381
  570PYPI   PO4 8916   7.613   9.346  10.245 -0.1353 -0.0507 -0.1823
  570PYPI   GL1 8917   7.781   9.256   9.898 -0.1049 -0.0256 -0.1350
  570PYPI   GL2 8918   7.985   8.940  10.017 -0.2245 -0.3964  0.0569
  570PYPI   C1A 8919   7.870   9.294   9.529 -0.2153  0.2168  0.1990
  570PYPI   C2A 8920   7.866   9.409   9.116 -0.2494  0.2381  0.1629
  570PYPI   D3A 8921   7.827   9.324   8.700  0.0699 -0.2104 -0.0502
  570PYPI   C4A 8922   7.862   9.427   8.235 -0.0597 -0.0578 -0.0500
  570PYPI   C1B 8923   8.131   8.873   9.637 -0.0877 -0.0059 -0.2896
  570PYPI   C2B 8924   8.227   8.830   9.257  0.1316  0.0736  0.2564
  570PYPI   C3B 8925   8.161   8.825   8.887  0.0194 -0.0625  0.1243
  570PYPI   C4B 8926   8.288   8.693   8.380  0.0381  0.1084  0.3336
  571PYPI    C1 8927   5.743   5.341  10.827  0.0857  0.0809  0.0494
  571PYPI    C2 8928   5.363   5.463  10.850  0.0397 -0.0597  0.0413
  571PYPI    C3 8929   5.657   5.701  10.979 -0.0433  0.0902 -0.0438
  571PYPI   PO4 8930   5.754   5.175  10.597  0.1938 -0.0030 -0.0383
  571PYPI   GL1 8931   5.946   5.106  10.171 -0.0503 -0.1300 -0.3431
  571PYPI   GL2 8932   5.800   5.372  10.058  0.2924 -0.1294 -0.2038
  571PYPI   C1A 8933   6.166   4.960   9.800  0.0146  0.0031  0.1019
  571PYPI   C2A 8934   6.269   4.958   9.475  0.0037 -0.0555  0.2266
  571PYPI   D3A 8935   6.237   4.868   9.119  0.2796  0.0307  0.2580
  571PYPI   C4A 8936   6.293   4.707   8.736 -0.0195  0.1159  0.0653
  571PYPI   C1B 8937   5.959   5.373   9.691 -0.0557  0.0188 -0.3248
  571PYPI   C2B 8938   6.037   5.336   9.283 -0.1070  0.0138 -0.1236
  571PYPI   C3B 8939   6.017   5.273   8.885  0.1185  0.3034  0.0697
  571PYPI   C4B 8940   6.034   5.147   8.551  0.1310  0.0864  0.0404
  572PYPI    C1 8941   2.934  14.409  10.864  0.1579 -0.0467  0.0269
  572PYPI    C2 8942   3.324  14.383  10.950  0.1228 -0.1229  0.1667
  572PYPI    C3 8943   3.055  14.203  11.185  0.0023 -0.0635  0.0755
  572PYPI   PO4 8944   2.833  14.546  10.580 -0.3776  0.5309  0.2342
  572PYPI   GL1 8945   2.893  14.739  10.261 -0.1989 -0.2592  0.0734
  572PYPI   GL2 8946   2.633  14.564  10.082 -0.3702 -0.1013  0.1586
  572PYPI   C1A 8947   2.858  15.086   9.892  0.1299  0.2141  0.0272
  572PYPI   C2A 8948   2.892  15.056   9.494 -0.3129  0.0645 -0.1581
  572PYPI   D3A 8949   2.979  15.256   9.095 -0.0032 -0.0860 -0.0648
  572PYPI   C4A 8950   2.995  15.209   8.675  0.1984  0.2243 -0.0250
  572PYPI   C1B 8951   2.519  14.650   9.708 -0.3538  0.2837 -0.1175
  572PYPI   C2B 8952   2.632  14.698   9.275  0.1472  0.5335 -0.2252
  572PYPI   C3B 8953   2.677  14.810   8.900  0.1119  0.0846  0.1463
  572PYPI   C4B 8954   2.775  14.815   8.458  0.1239 -0.1749 -0.0288
  573PYPI    C1 8955   2.660  13.104  10.494 -0.2673 -0.1321 -0.0196
  573PYPI    C2 8956   2.952  12.841  10.569 -0.2045 -0.0169  0.1456
  573PYPI    C3 8957   2.786  13.046  10.870 -0.1867  0.2019  0.0087
  573PYPI   PO4 8958   2.590  12.994  10.238  0.0163  0.0443 -0.0345
  573PYPI   GL1 8959   2.399  12.774   9.797  0.2275 -0.1816  0.1620
  573PYPI   GL2 8960   2.235  12.565   9.718  0.1582  0.1588 -0.2994
  573PYPI   C1A 8961   2.487  12.741   9.249  0.2046 -0.0201  0.0331
  573PYPI   C2A 8962   2.577  12.790   8.800  0.2957 -0.2117  0.1199
  573PYPI   D3A 8963   2.630  12.959   8.324  0.2686 -0.1682 -0.0421
  573PYPI   C4A 8964   2.263  13.029   8.142 -0.1311 -0.1226 -0.1849
  573PYPI   C1B 8965   2.084  12.452   9.370 -0.3163  0.1376 -0.0258
  573PYPI   C2B 8966   2.044  12.795   9.031 -0.1326  0.2659 -0.1965
  573PYPI   C3B 8967   2.227  13.095   8.683  0.1325 -0.2387 -0.0844
  573PYPI   C4B 8968   2.349  13.474   8.485 -0.0526 -0.1807  0.0452
  574ERGO   ROH 8969  11.434   4.730  10.299  0.1603 -0.0811  0.0470
  574ERGO    R1 8970  11.462   4.606  10.046  0.2165 -0.0567  0.0399
  574ERGO    R2 8971  11.273   4.631   9.847  0.1643 -0.1980  0.0658
  574ERGO    R3 8972  11.485   4.715   9.700  0.0794 -0.0312  0.0385
  574ERGO    R4 8973  11.293   4.614   9.502  0.2895 -0.5640  0.0881
  574ERGO    R5 8974  11.502   4.555   9.523  0.3828 -0.2152  0.2250
  574ERGO    C1 8975  11.504   4.683   9.164  0.2828 -0.6204  0.0754
  574ERGO    C2 8976  11.472   4.558   8.861  0.0841  0.1757  0.3639
  575ERGO   ROH 8977  14.059  16.393  10.317 -0.1121 -0.1620 -0.0658
  575ERGO    R1 8978  13.971  16.445  10.053 -0.1048 -0.1645 -0.0683
  575ERGO    R2 8979  14.103  16.617   9.883 -0.2100 -0.0136  0.0010
  575ERGO    R3 8980  14.103  16.402   9.717 -0.0075  0.0272 -0.0555
  575ERGO    R4 8981  14.089  16.634   9.538 -0.6330  0.0587  0.0160
  575ERGO    R5 8982  13.954  16.464   9.540 -0.3259 -0.1924  0.1285
  575ERGO    C1 8983  14.081  16.442   9.181 -0.6890  0.1395 -0.0282
  575ERGO    C2 8984  13.999  16.320   8.792  0.1344 -0.2042  0.2550
  576ERGO   ROH 8985  17.178   4.285   9.979 -0.2360 -0.0073  0.0424
  576ERGO    R1 8986  17.268   4.374   9.726 -0.1361 -0.0594  0.0586
  576ERGO    R2 8987  17.320   4.201   9.516 -0.1701 -0.0942  0.0746
  576ERGO    R3 8988  17.147   4.362   9.383 -0.0662 -0.0167  0.0331
  576ERGO    R4 8989  17.307   4.236   9.173  0.0178  0.0269  0.0785
  576ERGO    R5 8990  17.275   4.449   9.200  0.0452  0.0204  0.1313
  576ERGO    C1 8991  17.137   4.408   8.848  0.2249  0.1702  0.0420
  576ERGO    C2 8992  17.167   4.327   8.634 -0.0387  0.1014  0.0678
  577ERGO   ROH 8993   3.652  16.372  10.100 -0.0668 -0.1987 -0.0736
  577ERGO    R1 8994   3.615  16.463   9.834 -0.0468 -0.1728 -0.0676
  577ERGO    R2 8995   3.800  16.621   9.703 -0.0552 -0.1258 -0.0245
  577ERGO    R3 8996   3.786  16.425   9.516  0.0017 -0.1059 -0.0494
  577ERGO    R4 8997   3.842  16.669   9.364 -0.0463 -0.0759 -0.0164
  577ERGO    R5 8998   3.679  16.529   9.328 -0.0109 -0.1091 -0.0431
  577ERGO    C1 8999   3.854  16.512   8.990  0.0124 -0.0285 -0.0351
  577ERGO    C2 9000   3.814  16.594   8.703  0.3697 -0.0886  0.0512
  578ERGO   ROH 9001   1.670   8.224   9.562 -0.1299 -0.0621  0.0764
  578ERGO    R1 9002   1.657   8.048   9.341  0.1090  0.0128  0.0010
  578ERGO    R2 9003   1.419   7.982   9.216  0.1769 -0.3640  0.0670
  578ERGO    R3 9004   1.550   8.066   8.994 -0.0596 -0.0213  0.0484
  578ERGO    R4 9005   1.323   7.912   8.892  0.2171 -0.4862  0.0802
  578ERGO    R5 9006   1.533   7.883   8.841  0.2796 -0.0314  0.0075
  578ERGO    C1 9007   1.390   7.951   8.494  0.0185 -0.2357  0.0706
  578ERGO    C2 9008   1.295   8.026   8.141 -0.0824 -0.0168  0.0022
  579ERGO   ROH 9009   4.327   5.551   9.881 -0.0911 -0.1224  0.0128
  579ERGO    R1 9010   4.392   5.568   9.606 -0.0967  0.0078  0.0184
  579ERGO    R2 9011   4.498   5.355   9.464  0.0773  0.1283 -0.0416
  579ERGO    R3 9012   4.288   5.404   9.298  0.0403  0.0103 -0.0297
  579ERGO    R4 9013   4.509   5.339   9.119  0.0019 -0.0962 -0.0348
  579ERGO    R5 9014   4.384   5.517   9.111 -0.0067 -0.1081 -0.1245
  579ERGO    C1 9015   4.319   5.375   8.763 -0.0766 -0.3376 -0.0195
  579ERGO    C2 9016   4.253   5.365   8.450  0.0975 -0.2779  0.0785
  580ERGO   ROH 9017  15.316  13.705  10.607  0.0928  0.0376  0.0282
  580ERGO    R1 9018  15.413  13.767  10.348  0.1553 -0.0443  0.0312
  580ERGO    R2 9019  15.577  13.596  10.205 -0.0215 -0.2074  0.0162
  580ERGO    R3 9020  15.386  13.624  10.014  0.0023  0.0051  0.0221
  580ERGO    R4 9021  15.639  13.634   9.867  0.0121 -0.1278  0.0314
  580ERGO    R5 9022  15.479  13.781   9.859  0.1211 -0.0060  0.0822
  580ERGO    C1 9023  15.495  13.682   9.491  0.0540  0.1181  0.0458
  580ERGO    C2 9024  15.574  13.713   9.212  0.0810  0.1338 -0.0407
  581ERGO   ROH 9025   8.871   3.021  10.822  0.0623 -0.1018  0.1356
  581ERGO    R1 9026   8.767   2.929  10.575  0.0793 -0.0002  0.0902
  581ERGO    R2 9027   8.638   3.095  10.396  0.0772  0.0704  0.1571
  581ERGO    R3 9028   8.823   2.999  10.222  0.0913  0.1580  0.1230
  581ERGO    R4 9029   8.574   3.012  10.067  0.0800  0.1330  0.1405
  581ERGO    R5 9030   8.703   2.838  10.091  0.1245  0.1594  0.0912
  581ERGO    C1 9031   8.711   2.874   9.711  0.0949  0.2517  0.0989
  581ERGO    C2 9032   8.680   2.797   9.404  0.0958  0.2127  0.2571
  582ERGO   ROH 9033  12.232  17.043  10.248 -0.0027 -0.2263 -0.0192
  582ERGO    R1 9034  12.131  16.994   9.989 -0.0542 -0.0343 -0.0386
  582ERGO    R2 9035  12.160  17.174   9.781  0.0352  0.0610  0.0444
  582ERGO    R3 9036  12.268  16.960   9.653 -0.0969  0.0585 -0.0632
  582ERGO    R4 9037  12.196  17.145   9.438 -0.0680  0.1510  0.0263
  582ERGO    R5 9038  12.137  16.936   9.454 -0.1541  0.1801 -0.0326
  582ERGO    C1 9039  12.319  16.928   9.119 -0.2520  0.2011 -0.0852
  582ERGO    C2 9040  12.304  16.972   8.779 -0.2473 -0.0826 -0.4366
  583ERGO   ROH 9041   0.607  12.250  10.013  0.0074  0.0087 -0.0595
  583ERGO    R1 9042   0.427  12.276   9.797  0.0432  0.0181 -0.0880
  583ERGO    R2 9043   0.478  12.437   9.579  0.1090 -0.0256 -0.1023
  583ERGO    R3 9044   0.431  12.209   9.439  0.0762 -0.0340 -0.0784
  583ERGO    R4 9045   0.427  12.422   9.237 -0.0809 -0.0281 -0.0751
  583ERGO    R5 9046   0.271  12.273   9.273 -0.0330 -0.0615  0.0120
  583ERGO    C1 9047   0.353  12.198   8.908 -0.2224 -0.0373 -0.0369
  583ERGO    C2 9048   0.152  12.218   8.666 -0.0809  0.1683  0.2251
  584ERGO   ROH 9049  17.258   6.734   6.698 -0.1629 -0.1333  0.1332
  584ERGO    R1 9050  17.179   6.781   6.965 -0.0676  0.0105  0.1388
  584ERGO    R2 9051  17.327   6.695   7.182 -0.0432  0.0268  0.1378
  584ERGO    R3 9052  17.313   6.957   7.254  0.0981  0.0642  0.0274
  584ERGO    R4 9053  17.360   6.815   7.505 -0.1701  0.1399  0.1085
  584ERGO    R5 9054  17.199   6.956   7.464 -0.0374  0.2358 -0.0492
  584ERGO    C1 9055  17.366   7.130   7.760 -0.1115  0.2409 -0.0123
  584ERGO    C2 9056  17.325   7.449   7.854 -0.0758  0.1664  0.1112
  585ERGO   ROH 9057   4.966  11.124   9.331  0.2108  0.0196 -0.1166
  585ERGO    R1 9058   4.841  11.204   9.090  0.2105 -0.1123 -0.1600
  585ERGO    R2 9059   4.921  11.426   8.947  0.0107 -0.0129 -0.1156
  585ERGO    R3 9060   4.940  11.248   8.743  0.2929  0.0181 -0.1214
  585ERGO    R4 9061   4.910  11.508   8.611 -0.0253 -0.0070 -0.1134
  585ERGO    R5 9062   4.788  11.331   8.577  0.2144 -0.1722 -0.1497
  585ERGO    C1 9063   4.921  11.388   8.224  0.2187  0.0254 -0.1177
  585ERGO    C2 9064   4.953  11.587   7.976 -0.0340  0.3736 -0.1188
  586ERGO   ROH 9065   1.499  15.748  10.257 -0.1391  0.1670  0.1895
  586ERGO    R1 9066   1.630  15.718  10.008  0.0048  0.1879  0.2608
  586ERGO    R2 9067   1.518  15.579   9.797  0.2543 -0.0599  0.2798
  586ERGO    R3 9068   1.565  15.810   9.662  0.0386 -0.0697  0.1849
  586ERGO    R4 9069   1.530  15.608   9.453 -0.0602 -0.1203  0.2616
  586ERGO    R5 9070   1.699  15.744   9.475 -0.0999 -0.0469  0.0810
  586ERGO    C1 9071   1.581  15.841   9.126 -0.4458 -0.1644  0.1618
  586ERGO    C2 9072   1.600  15.719   8.742 -0.0020 -0.0545  0.1778
  587ERGO   ROH 9073   1.226  13.455   9.883 -0.1076 -0.0789  0.0381
  587ERGO    R1 9074   1.053  13.593   9.707 -0.0203 -0.0093  0.0057
  587ERGO    R2 9075   1.128  13.824   9.575  0.0625  0.0179  0.0960
  587ERGO    R3 9076   1.051  13.684   9.354  0.1325  0.0849  0.0290
  587ERGO    R4 9077   1.095  13.958   9.258 -0.2645  0.2177  0.2095
  587ERGO    R5 9078   0.915  13.838   9.231 -0.1262  0.0065  0.2112
  587ERGO    C1 9079   1.004  13.905   8.866 -0.3891  0.3970  0.2128
  587ERGO    C2 9080   1.196  13.992   8.573  0.3994  0.1097  0.0884
  588ERGO   ROH 9081   4.879  16.078  10.184 -0.0187  0.0725  0.0700
  588ERGO    R1 9082   5.056  16.064   9.963 -0.0603 -0.0946  0.0429
  588ERGO    R2 9083   5.041  15.864   9.772 -0.2585 -0.1055  0.0513
  588ERGO    R3 9084   5.027  16.074   9.601 -0.1137 -0.0982  0.0503
  588ERGO    R4 9085   5.119  15.852   9.436 -0.0891 -0.0937  0.0910
  588ERGO    R5 9086   5.214  16.046   9.455 -0.0546 -0.1293  0.1458
  588ERGO    C1 9087   5.151  16.043   9.079  0.1454 -0.0801  0.1131
  588ERGO    C2 9088   5.213  16.153   8.736  0.1896  0.1637  0.0372
  589ERGO   ROH 9089  11.281  17.018  10.485  0.0386  0.0837 -0.0896
  589ERGO    R1 9090  11.142  17.006  10.238  0.0519  0.0156 -0.0933
  589ERGO    R2 9091  11.167  17.201  10.044  0.0593 -0.0380 -0.1429
  589ERGO    R3 9092  11.231  16.989   9.886  0.0689 -0.0784 -0.0857
  589ERGO    R4 9093  11.173  17.206   9.698  0.0766 -0.1198 -0.1443
  589ERGO    R5 9094  11.084  17.008   9.698  0.0760 -0.1231 -0.0988
  589ERGO    C1 9095  11.237  17.011   9.349  0.0957 -0.2054 -0.0915
  589ERGO    C2 9096  11.291  16.983   8.963 -0.1205 -0.0851  0.4014
  590ERGO   ROH 9097  11.834   4.030  10.558  0.2238 -0.0095 -0.0149
  590ERGO    R1 9098  11.671   4.109  10.341  0.1370 -0.0622  0.0310
  590ERGO    R2 9099  11.745   4.305  10.162 -0.0006  0.0027  0.0423
  590ERGO    R3 9100  11.695   4.111   9.978  0.0600  0.0016  0.0263
  590ERGO    R4 9101  11.749   4.352   9.819 -0.1960  0.0708  0.0482
  590ERGO    R5 9102  11.573   4.223   9.805 -0.1053 -0.0575  0.1045
  590ERGO    C1 9103  11.704   4.197   9.447 -0.2529  0.1095  0.0366
  590ERGO    C2 9104  11.724   4.217   9.175  0.0415  0.1686 -0.0599
  591ERGO   ROH 9105   0.159  10.776  10.176  0.2306 -0.1919  0.0382
  591ERGO    R1 9106   0.127  10.901   9.924  0.0163 -0.1079  0.1043
  591ERGO    R2 9107   0.311  10.874   9.720  0.0410  0.2703  0.0657
  591ERGO    R3 9108   0.094  10.793   9.578  0.1397  0.0149  0.0544
  591ERGO    R4 9109   0.281  10.897   9.377  0.0680  0.1260  0.0531
  591ERGO    R5 9110   0.073  10.957   9.404  0.0073 -0.0646 -0.0024
  591ERGO    C1 9111   0.059  10.835   9.043  0.1763 -0.1978  0.0351
  591ERGO    C2 9112  -0.069  10.879   8.772  0.2446  0.0671 -0.1170
  592ERGO   ROH 9113   0.693  11.700   9.901 -0.0297 -0.1012  0.1409
  592ERGO    R1 9114   0.617  11.823   9.658  0.2527  0.0251  0.1108
  592ERGO    R2 9115   0.793  11.860   9.448  0.3411 -0.4873  0.0760
  592ERGO    R3 9116   0.603  11.727   9.307 -0.0252 -0.0590  0.1432
  592ERGO    R4 9117   0.730  11.904   9.111  0.3259 -0.3594  0.0956
  592ERGO    R5 9118   0.517  11.890   9.154  0.2984  0.1379  0.1660
  592ERGO    C1 9119   0.515  11.805   8.782 -0.0269  0.1172  0.1703
  592ERGO    C2 9120   0.553  11.771   8.502 -0.0225  0.2411  0.1369
  593ERGO   ROH 9121  10.131  14.086  10.696 -0.3104 -0.1333  0.0506
  593ERGO    R1 9122  10.055  13.940  10.466 -0.1609 -0.0479 -0.0550
  593ERGO    R2 9123   9.955  14.061  10.239 -0.0301  0.0361 -0.0707
  593ERGO    R3 9124  10.157  13.925  10.117  0.0547  0.0976  0.0002
  593ERGO    R4 9125   9.987  14.018   9.897  0.1483  0.1087 -0.0642
  593ERGO    R5 9126  10.051  13.813   9.934  0.1673  0.1149 -0.0745
  593ERGO    C1 9127  10.194  13.866   9.584  0.3317  0.2088  0.0062
  593ERGO    C2 9128  10.214  13.776   9.273  0.0251 -0.0270  0.0999
  594ERGO   ROH 9129  12.471  14.081  10.558  0.0135 -0.0024 -0.0233
  594ERGO    R1 9130  12.611  14.123  10.316  0.0013 -0.1935 -0.0642
  594ERGO    R2 9131  12.560  13.978  10.086 -0.3221 -0.0704 -0.0684
  594ERGO    R3 9132  12.529  14.225   9.976  0.0499  0.0058 -0.0193
  594ERGO    R4 9133  12.601  14.052   9.751 -0.2986 -0.0919 -0.0712
  594ERGO    R5 9134  12.699  14.237   9.809  0.0296 -0.2537 -0.0687
  594ERGO    C1 9135  12.596  14.326   9.453  0.0644 -0.0328 -0.0267
  594ERGO    C2 9136  12.651  14.222   9.122 -0.0810 -0.1026  0.0113
  595ERGO   ROH 9137  13.826  11.010  10.449 -0.0444 -0.0218 -0.0143
  595ERGO    R1 9138  13.934  10.951  10.194 -0.0123  0.0165 -0.0097
  595ERGO    R2 9139  13.814  10.774  10.020  0.0416 -0.0014 -0.0271
  595ERGO    R3 9140  13.826  10.985   9.848  0.0058  0.0097 -0.0163
  595ERGO    R4 9141  13.793  10.749   9.675  0.1823 -0.0056 -0.0360
  595ERGO    R5 9142  13.950  10.901   9.660  0.1176  0.0710  0.0272
  595ERGO    C1 9143  13.793  10.932   9.314  0.2306  0.0025 -0.0308
  595ERGO    C2 9144  13.845  11.007   8.958  0.1871 -0.1931 -0.1510
  596ERGO   ROH 9145  14.360   5.099  10.411 -0.0226 -0.1454 -0.2439
  596ERGO    R1 9146  14.202   5.131  10.179 -0.0595  0.1470 -0.1820
  596ERGO    R2 9147  14.172   5.375  10.053  0.3390  0.2112 -0.1672
  596ERGO    R3 9148  14.256   5.236   9.835  0.0010  0.0503 -0.2023
  596ERGO    R4 9149  14.103   5.462   9.725  0.3541  0.3274 -0.1398
  596ERGO    R5 9150  14.073   5.250   9.681 -0.0444  0.3749 -0.1247
  596ERGO    C1 9151  14.143   5.383   9.330  0.0458  0.2440 -0.1567
  596ERGO    C2 9152  14.085   5.552   9.044  0.0175 -0.2975  0.1250
  597ERGO   ROH 9153   3.231   6.521   9.496 -0.2462  0.0890 -0.0385
  597ERGO    R1 9154   3.305   6.544   9.224 -0.1248 -0.0554 -0.0185
  597ERGO    R2 9155   3.331   6.324   9.058 -0.3008 -0.1255  0.0473
  597ERGO    R3 9156   3.156   6.461   8.902 -0.1006  0.0256 -0.0516
  597ERGO    R4 9157   3.330   6.321   8.712 -0.2438 -0.3057  0.0468
  597ERGO    R5 9158   3.287   6.535   8.716  0.0319 -0.2402 -0.0713
  597ERGO    C1 9159   3.165   6.448   8.365 -0.0228 -0.2687 -0.0462
  597ERGO    C2 9160   3.246   6.563   8.122 -0.5300 -0.1938  0.0220
  598ERGO   ROH 9161   1.184   4.577   9.855 -0.0534  0.0512 -0.0671
  598ERGO    R1 9162   1.080   4.678   9.612 -0.0481  0.0440 -0.0728
  598ERGO    R2 9163   1.234   4.819   9.431 -0.0423  0.0338 -0.0770
  598ERGO    R3 9164   1.144   4.630   9.257 -0.0442  0.0285 -0.0698
  598ERGO    R4 9165   1.180   4.870   9.093  0.0651 -0.0085 -0.1009
  598ERGO    R5 9166   0.999   4.750   9.109  0.0288  0.0422 -0.1304
  598ERGO    C1 9167   1.063   4.723   8.734  0.1259 -0.0381 -0.1079
  598ERGO    C2 9168   1.061   4.595   8.390 -0.2266  0.0416 -0.1349
  599ERGO   ROH 9169  15.641   9.536  10.367 -0.0155 -0.2225  0.0117
  599ERGO    R1 9170  15.735   9.562  10.101  0.0178 -0.1313  0.0321
  599ERGO    R2 9171  15.680   9.375   9.905 -0.0158 -0.0283 -0.0548
  599ERGO    R3 9172  15.587   9.591   9.770  0.0596  0.0577  0.0281
  599ERGO    R4 9173  15.668   9.401   9.561 -0.0702  0.0752 -0.0455
  599ERGO    R5 9174  15.732   9.609   9.580  0.0336  0.0423  0.0040
  599ERGO    C1 9175  15.573   9.620   9.234 -0.0311  0.2160  0.0377
  599ERGO    C2 9176  15.489   9.483   8.935  0.1065 -0.1232  0.2765
  600ERGO   ROH 9177  15.718  15.129  10.449  0.0659 -0.1235  0.0805
  600ERGO    R1 9178  15.853  15.040  10.217 -0.0359 -0.1079  0.0150
  600ERGO    R2 9179  15.730  14.890  10.020 -0.1889  0.1144 -0.0599
  600ERGO    R3 9180  15.822  15.087   9.857 -0.0322  0.1305  0.0445
  600ERGO    R4 9181  15.766  14.863   9.678 -0.1430  0.2490 -0.0672
  600ERGO    R5 9182  15.953  14.973   9.693 -0.0751  0.1217  0.0167
  600ERGO    C1 9183  15.873  15.032   9.325  0.0309  0.3424  0.0266
  600ERGO    C2 9184  15.882  14.983   8.914 -0.0955 -0.4242 -0.0412
  601ERGO   ROH 9185  16.632   3.375  10.229 -0.1415 -0.1657 -0.0508
  601ERGO    R1 9186  16.552   3.367   9.958 -0.1376 -0.3052 -0.0479
  601ERGO    R2 9187  16.602   3.575   9.782 -0.5094 -0.2092 -0.0459
  601ERGO    R3 9188  16.718   3.379   9.634 -0.1611 -0.0103 -0.0517
  601ERGO    R4 9189  16.612   3.570   9.437 -0.5418 -0.2154 -0.0481
  601ERGO    R5 9190  16.572   3.356   9.444 -0.1445 -0.2934 -0.0320
  601ERGO    C1 9191  16.726   3.384   9.096 -0.2340 -0.0324 -0.0547
  601ERGO    C2 9192  16.633   3.466   8.696 -0.0135  0.0753 -0.2320
  602ERGO   ROH 9193  17.693   7.321   9.930  0.1617 -0.1361 -0.0554
  602ERGO    R1 9194  17.563   7.158   9.738 -0.0013 -0.0179 -0.0474
  602ERGO    R2 9195  17.355   7.250   9.582  0.0906  0.1835 -0.0548
  602ERGO    R3 9196  17.512   7.163   9.378  0.0068  0.0126 -0.0483
  602ERGO    R4 9197  17.249   7.204   9.256  0.0155  0.1405 -0.0247
  602ERGO    R5 9198  17.369   7.022   9.248 -0.1023  0.0600  0.0195
  602ERGO    C1 9199  17.336   7.095   8.875 -0.1065 -0.0449 -0.0011
  602ERGO    C2 9200  17.230   7.020   8.589  0.0012 -0.2108 -0.0722
  603ERGO   ROH 9201   2.252   9.669   9.350  0.0434  0.1399 -0.1418
  603ERGO    R1 9202   2.369   9.613   9.099 -0.0210  0.0456 -0.1501
  603ERGO    R2 9203   2.228   9.498   8.891 -0.1061  0.0905 -0.1100
  603ERGO    R3 9204   2.316   9.715   8.754 -0.0144  0.0229 -0.1599
  603ERGO    R4 9205   2.246   9.519   8.547 -0.0709 -0.0227 -0.1157
  603ERGO    R5 9206   2.437   9.622   8.568 -0.0288 -0.0818 -0.1246
  603ERGO    C1 9207   2.340   9.734   8.217  0.0357 -0.1523 -0.1659
  603ERGO    C2 9208   2.410   9.720   7.929 -0.0469  0.1934 -0.1349
  604ERGO   ROH 9209   8.143   1.196  10.449 -0.2724 -0.1426 -0.0591
  604ERGO    R1 9210   8.056   1.173  10.181 -0.0769 -0.1417 -0.1233
  604ERGO    R2 9211   8.100   1.371   9.993 -0.0963 -0.0636 -0.0432
  604ERGO    R3 9212   8.212   1.168   9.852  0.1476  0.0525 -0.0236
  604ERGO    R4 9213   8.106   1.349   9.648 -0.1550 -0.1322 -0.0404
  604ERGO    R5 9214   8.065   1.136   9.666  0.1385 -0.1898  0.0201
  604ERGO    C1 9215   8.215   1.144   9.315  0.0399 -0.0631 -0.0204
  604ERGO    C2 9216   8.298   1.065   8.994  0.4159 -0.2601  0.1165
  605ERGO   ROH 9217   6.299  10.441   9.513  0.0390 -0.2887 -0.1183
  605ERGO    R1 9218   6.290  10.318   9.258  0.1118 -0.1903 -0.1699
  605ERGO    R2 9219   6.234  10.459   9.026 -0.1058 -0.1461 -0.1006
  605ERGO    R3 9220   6.469  10.350   8.943  0.0010  0.1505 -0.1999
  605ERGO    R4 9221   6.340  10.443   8.697 -0.2613 -0.1207 -0.1525
  605ERGO    R5 9222   6.415  10.243   8.736  0.0386  0.0017 -0.1264
  605ERGO    C1 9223   6.622  10.332   8.428 -0.2516  0.1723 -0.2761
  605ERGO    C2 9224   6.740  10.569   8.203  0.1004 -0.1161 -0.1951
  606ERGO   ROH 9225  15.729   7.079  10.458 -0.1165  0.2416  0.0238
  606ERGO    R1 9226  15.701   7.213  10.211  0.1877  0.1269 -0.0788
  606ERGO    R2 9227  15.892   7.202  10.012  0.2383 -0.3301 -0.0160
  606ERGO    R3 9228  15.683   7.120   9.860  0.1436 -0.0839 -0.0216
  606ERGO    R4 9229  15.865   7.249   9.670  0.1459 -0.0069  0.0329
  606ERGO    R5 9230  15.654   7.294   9.698  0.1786  0.0783  0.1446
  606ERGO    C1 9231  15.652   7.199   9.329  0.0032  0.4124  0.0563
  606ERGO    C2 9232  15.713   7.243   8.978  0.1209 -0.0441 -0.0096
  607ERGO   ROH 9233   2.614   8.498   9.545  0.0889 -0.0566  0.0537
  607ERGO    R1 9234   2.470   8.332   9.367 -0.0874  0.0778  0.0693
  607ERGO    R2 9235   2.273   8.429   9.198  0.1182  0.2981 -0.0438
  607ERGO    R3 9236   2.423   8.308   9.007  0.0162 -0.0044  0.0599
  607ERGO    R4 9237   2.191   8.413   8.863  0.2482  0.3507 -0.0797
  607ERGO    R5 9238   2.263   8.208   8.860 -0.0875  0.2206  0.0112
  607ERGO    C1 9239   2.283   8.291   8.488  0.2280  0.0975 -0.0033
  607ERGO    C2 9240   2.165   8.381   8.286  0.2643 -0.0521  0.1488
  608ERGO   ROH 9241   7.779   6.307   6.314 -0.2475  0.0073 -0.1722
  608ERGO    R1 9242   7.554   6.395   6.461 -0.1471  0.0523 -0.0407
  608ERGO    R2 9243   7.316   6.253   6.467 -0.2422  0.1976 -0.0657
  608ERGO    R3 9244   7.353   6.268   6.736 -0.1394 -0.0129 -0.0674
  608ERGO    R4 9245   7.104   6.119   6.705 -0.0360 -0.1613 -0.0783
  608ERGO    R5 9246   7.133   6.297   6.825 -0.1154 -0.2510  0.0615
  608ERGO    C1 9247   7.014   6.055   7.095  0.1805 -0.5680 -0.0873
  608ERGO    C2 9248   6.978   5.796   7.413  0.1989  0.0560 -0.1541
  609ERGO   ROH 9249  14.078  14.749  10.262  0.2994  0.2964 -0.0384
  609ERGO    R1 9250  14.001  14.590  10.040  0.3703  0.0013  0.1442
  609ERGO    R2 9251  13.859  14.693   9.826 -0.0253 -0.4001  0.2091
  609ERGO    R3 9252  14.065  14.589   9.682  0.0292 -0.1274  0.0777
  609ERGO    R4 9253  13.883  14.698   9.481 -0.1107 -0.0934  0.2028
  609ERGO    R5 9254  13.962  14.495   9.488  0.0501 -0.0499  0.0212
  609ERGO    C1 9255  14.091  14.603   9.146 -0.1093  0.3411  0.0758
  609ERGO    C2 9256  14.081  14.735   8.842 -0.1112  0.0653 -0.5235
  610ERGO   ROH 9257   3.677  17.947   9.907  0.0720 -0.1740  0.0061
  610ERGO    R1 9258   3.539  17.896   9.665  0.0673 -0.0320 -0.0223
  610ERGO    R2 9259   3.476  18.095   9.484  0.1903  0.0544  0.0273
  610ERGO    R3 9260   3.606  17.932   9.309  0.1219  0.0340 -0.0051
  610ERGO    R4 9261   3.448  18.113   9.140 -0.0301 -0.0635  0.0371
  610ERGO    R5 9262   3.447  17.895   9.134  0.0224 -0.0642  0.1063
  610ERGO    C1 9263   3.553  17.971   8.776 -0.2225 -0.1515  0.0124
  610ERGO    C2 9264   3.626  18.038   8.512 -0.1598  0.1332 -0.0153
  611ERGO   ROH 9265  15.275  12.695  10.351 -0.1799 -0.1363 -0.0428
  611ERGO    R1 9266  15.440  12.740  10.125 -0.0841 -0.0352  0.0452
  611ERGO    R2 9267  15.460  12.559   9.917  0.1532 -0.0333  0.0601
  611ERGO    R3 9268  15.392  12.774   9.766  0.0886 -0.0840  0.0179
  611ERGO    R4 9269  15.434  12.557   9.573  0.2534 -0.0773  0.0528
  611ERGO    R5 9270  15.528  12.754   9.570  0.1535 -0.0328  0.0603
  611ERGO    C1 9271  15.355  12.758   9.230  0.2512 -0.1506  0.0089
  611ERGO    C2 9272  15.494  12.799   8.893 -0.0651 -0.0172 -0.2625
  612ERGO   ROH 9273   4.240   0.859  10.065 -0.2248 -0.0723  0.0933
  612ERGO    R1 9274   4.202   0.763   9.801 -0.0465 -0.0971  0.0737
  612ERGO    R2 9275   3.990   0.842   9.642 -0.1506 -0.3853  0.0472
  612ERGO    R3 9276   4.187   0.907   9.467 -0.2093 -0.0694  0.0951
  612ERGO    R4 9277   3.957   0.841   9.298 -0.0866 -0.3077  0.0422
  612ERGO    R5 9278   4.156   0.756   9.284  0.0209 -0.0407  0.0395
  612ERGO    C1 9279   4.123   0.902   8.934 -0.1045  0.0340  0.0843
  612ERGO    C2 9280   4.201   0.923   8.578 -0.3135 -0.1486 -0.0952
  613ERGO   ROH 9281  14.290   6.812  10.547 -0.2366  0.0202  0.0253
  613ERGO    R1 9282  14.095   6.775  10.345 -0.1908  0.0327 -0.0220
  613ERGO    R2 9283  14.028   6.973  10.165 -0.1463  0.0427 -0.0296
  613ERGO    R3 9284  14.087   6.781   9.981 -0.1059  0.0500 -0.0237
  613ERGO    R4 9285  13.970   6.999   9.825 -0.1561  0.0190 -0.0293
  613ERGO    R5 9286  13.906   6.791   9.825 -0.1098  0.0051 -0.0217
  613ERGO    C1 9287  13.991   6.834   9.455 -0.1239  0.0121 -0.0236
  613ERGO    C2 9288  13.836   6.819   9.145  0.1660 -0.0648  0.3600
  614ERGO   ROH 9289   1.138   6.801   9.883  0.2179  0.0043 -0.0793
  614ERGO    R1 9290   1.170   6.823   9.603  0.3019 -0.0442 -0.0740
  614ERGO    R2 9291   1.362   6.681   9.463  0.2064 -0.2316 -0.0224
  614ERGO    R3 9292   1.149   6.601   9.316  0.1626 -0.0462 -0.0615
  614ERGO    R4 9293   1.370   6.610   9.125  0.1125  0.1332 -0.1046
  614ERGO    R5 9294   1.177   6.709   9.105  0.1220  0.1784  0.0481
  614ERGO    C1 9295   1.174   6.494   8.790  0.0168  0.5198 -0.1890
  614ERGO    C2 9296   1.108   6.572   8.489 -0.2359 -0.0244 -0.1516
  615ERGO   ROH 9297   5.805   5.848   9.892 -0.3226 -0.2671  0.0407
  615ERGO    R1 9298   5.691   5.804   9.637 -0.2224 -0.1767 -0.0211
  615ERGO    R2 9299   5.701   5.992   9.435 -0.1239 -0.1128  0.0416
  615ERGO    R3 9300   5.810   5.787   9.294 -0.0832 -0.0772  0.0214
  615ERGO    R4 9301   5.675   5.951   9.093 -0.1299 -0.0923  0.0399
  615ERGO    R5 9302   5.648   5.737   9.125 -0.0797 -0.1011  0.0250
  615ERGO    C1 9303   5.762   5.734   8.761 -0.0953 -0.0470  0.0200
  615ERGO    C2 9304   5.791   5.592   8.453  0.1310  0.0198  0.3575
  616ERGO   ROH 9305   5.324   9.872   9.441 -0.0379 -0.1031  0.0571
  616ERGO    R1 9306   5.335   9.811   9.165 -0.0484  0.0047  0.0326
  616ERGO    R2 9307   5.348  10.007   8.970 -0.0312  0.0802  0.1091
  616ERGO    R3 9308   5.568   9.867   8.891 -0.0469  0.0887  0.0506
  616ERGO    R4 9309   5.475  10.005   8.649 -0.1792  0.0042  0.0500
  616ERGO    R5 9310   5.513   9.792   8.670 -0.1382  0.0152  0.0971
  616ERGO    C1 9311   5.755   9.874   8.387 -0.2801 -0.0319 -0.0393
  616ERGO    C2 9312   5.914   9.898   8.037  0.1442  0.1767  0.2002
  617ERGO   ROH 9313  10.322  12.945  10.495 -0.3687  0.1532 -0.0902
  617ERGO    R1 9314  10.451  13.005  10.250 -0.3186  0.0408 -0.0930
  617ERGO    R2 9315  10.691  12.891  10.176 -0.1025  0.2885  0.1822
  617ERGO    R3 9316  10.552  12.822   9.953  0.1106 -0.1863  0.1845
  617ERGO    R4 9317  10.810  12.920   9.853 -0.1498  0.5290  0.1852
  617ERGO    R5 9318  10.612  12.989   9.792 -0.3517 -0.0555  0.1390
  617ERGO    C1 9319  10.749  12.873   9.455  0.0228  0.2232  0.1890
  617ERGO    C2 9320  10.743  12.980   9.109  0.2149 -0.0232 -0.1551
  618ERGO   ROH 9321   5.822  17.859   9.906 -0.0267 -0.1213  0.0185
  618ERGO    R1 9322   5.721  17.794   9.649 -0.0683 -0.0523  0.0164
  618ERGO    R2 9323   5.663  17.985   9.459  0.0387 -0.0080  0.0242
  618ERGO    R3 9324   5.830  17.837   9.304 -0.0470 -0.0978  0.0180
  618ERGO    R4 9325   5.649  17.968   9.114  0.0291  0.0095  0.0241
  618ERGO    R5 9326   5.690  17.754   9.128 -0.0928 -0.0124  0.0162
  618ERGO    C1 9327   5.798  17.819   8.768 -0.0570 -0.0644  0.0181
  618ERGO    C2 9328   5.767  17.891   8.458  0.0287  0.2041 -0.0843
  619ERGO   ROH 9329   7.470  10.283   9.908 -0.0189 -0.0503 -0.0253
  619ERGO    R1 9330   7.359  10.192   9.664  0.0724 -0.1452 -0.0317
  619ERGO    R2 9331   7.293  10.364   9.457 -0.0613 -0.2010 -0.0334
  619ERGO    R3 9332   7.453  10.198   9.312  0.0880 -0.0660 -0.0270
  619ERGO    R4 9333   7.339  10.383   9.115  0.0046 -0.1041 -0.0200
  619ERGO    R5 9334   7.334  10.166   9.107  0.1559 -0.1096 -0.0618
  619ERGO    C1 9335   7.516  10.239   8.780  0.1831  0.0790 -0.0061
  619ERGO    C2 9336   7.577  10.243   8.491 -0.0102 -0.0283  0.0121
  620ERGO   ROH 9337   2.096   4.512   9.518 -0.0907 -0.4158 -0.0393
  620ERGO    R1 9338   2.089   4.636   9.263  0.1308 -0.2854  0.0154
  620ERGO    R2 9339   2.278   4.587   9.069  0.0760 -0.4977  0.0167
  620ERGO    R3 9340   2.060   4.527   8.917 -0.0072 -0.0848 -0.0388
  620ERGO    R4 9341   2.260   4.626   8.726  0.2447 -0.4697  0.0098
  620ERGO    R5 9342   2.056   4.699   8.750  0.3694 -0.0721 -0.0465
  620ERGO    C1 9343   2.045   4.593   8.384  0.2648 -0.0657 -0.0463
  620ERGO    C2 9344   1.956   4.460   8.108  0.2188 -0.0216 -0.1105
  621ERGO   ROH 9345  10.522   7.621  10.366  0.2970 -0.0869  0.0966
  621ERGO    R1 9346  10.614   7.484  10.136  0.1390 -0.0342 -0.0010
  621ERGO    R2 9347  10.443   7.346   9.967  0.0172  0.0048  0.0753
  621ERGO    R3 9348  10.557   7.504   9.777 -0.1099  0.0563  0.0438
  621ERGO    R4 9349  10.382   7.324   9.628 -0.0165 -0.0466  0.0859
  621ERGO    R5 9350  10.594   7.357   9.592 -0.0516  0.0756  0.0490
  621ERGO    C1 9351  10.453   7.458   9.252 -0.1552 -0.0282  0.0625
  621ERGO    C2 9352  10.435   7.515   8.861 -0.1329  0.0677  0.0251
  622ERGO   ROH 9353  13.954  11.949  10.216  0.1845  0.2086 -0.0756
  622ERGO    R1 9354  13.821  11.873   9.978  0.1646  0.1087 -0.0332
  622ERGO    R2 9355  13.807  12.037   9.756  0.0868  0.0443 -0.0777
  622ERGO    R3 9356  13.912  11.820   9.629  0.1214  0.0352 -0.0335
  622ERGO    R4 9357  13.820  11.996   9.413  0.1446  0.0008 -0.0704
  622ERGO    R5 9358  13.768  11.786   9.441  0.1542  0.0014 -0.0522
  622ERGO    C1 9359  13.926  11.769   9.094  0.2106 -0.0331 -0.0247
  622ERGO    C2 9360  13.960  11.864   8.733  0.1457  0.3575 -0.0484
  623ERGO   ROH 9361  14.715   6.818  10.391 -0.0105  0.1002  0.0609
  623ERGO    R1 9362  14.554   6.766  10.164  0.0690 -0.0868  0.0473
  623ERGO    R2 9363  14.478   6.965   9.987 -0.1043 -0.1865  0.0220
  623ERGO    R3 9364  14.588   6.797   9.803  0.0782 -0.0972  0.0444
  623ERGO    R4 9365  14.387   6.950   9.654  0.0172 -0.1988 -0.0124
  623ERGO    R5 9366  14.404   6.733   9.664  0.1580 -0.2008 -0.0289
  623ERGO    C1 9367  14.437   6.785   9.287  0.2592 -0.1220 -0.0116
  623ERGO    C2 9368  14.375   6.908   8.958  0.0138  0.0283 -0.3633
  624ERGO   ROH 9369   4.706   1.724   9.903  0.1407 -0.1590 -0.1178
  624ERGO    R1 9370   4.697   1.672   9.625  0.1123 -0.0476 -0.1376
  624ERGO    R2 9371   4.505   1.782   9.460  0.0410 -0.0553 -0.0564
  624ERGO    R3 9372   4.721   1.867   9.318 -0.0184  0.0885 -0.0635
  624ERGO    R4 9373   4.535   1.765   9.116 -0.0262  0.1088 -0.0718
  624ERGO    R5 9374   4.743   1.707   9.142  0.0035  0.1731 -0.1407
  624ERGO    C1 9375   4.755   1.835   8.783 -0.1211  0.3393 -0.0873
  624ERGO    C2 9376   4.869   1.794   8.370 -0.2269  0.1177  0.1442
  625ERGO   ROH 9377   6.391   6.718  10.016 -0.1054 -0.0525 -0.0332
  625ERGO    R1 9378   6.526   6.764   9.771 -0.0919 -0.0769 -0.0292
  625ERGO    R2 9379   6.745   6.614   9.692 -0.0881 -0.0793  0.0025
  625ERGO    R3 9380   6.595   6.573   9.469 -0.0688 -0.1066 -0.0068
  625ERGO    R4 9381   6.870   6.586   9.371 -0.0560 -0.0649  0.0129
  625ERGO    R5 9382   6.702   6.704   9.300 -0.0733 -0.0893 -0.0015
  625ERGO    C1 9383   6.803   6.532   8.975 -0.0191 -0.0822  0.0101
  625ERGO    C2 9384   6.876   6.505   8.669  0.1254  0.0791  0.0975
  626ERGO   ROH 9385  15.059   4.104  10.267 -0.0341 -0.0457  0.0710
  626ERGO    R1 9386  15.034   3.972  10.017 -0.0139 -0.0838  0.0884
  626ERGO    R2 9387  14.790   3.934   9.892  0.0008 -0.0472  0.0426
  626ERGO    R3 9388  14.914   4.057   9.684  0.0754 -0.1118  0.0494
  626ERGO    R4 9389  14.724   3.874   9.558 -0.0724  0.0512  0.0395
  626ERGO    R5 9390  14.937   3.886   9.519 -0.0679 -0.1046  0.0228
  626ERGO    C1 9391  14.802   3.955   9.169 -0.0449  0.0478  0.0442
  626ERGO    C2 9392  14.812   3.883   8.835 -0.0655  0.1827  0.2841
  627ERGO   ROH 9393  12.547  13.258  10.295 -0.2606  0.1199  0.0893
  627ERGO    R1 9394  12.470  13.278  10.023 -0.1653  0.1704  0.0653
  627ERGO    R2 9395  12.543  13.492   9.864  0.0363  0.1202  0.0802
  627ERGO    R3 9396  12.640  13.297   9.702 -0.0530  0.0452  0.1179
  627ERGO    R4 9397  12.610  13.530   9.527 -0.1156 -0.0365  0.0314
  627ERGO    R5 9398  12.528  13.331   9.493 -0.1434 -0.0413  0.1554
  627ERGO    C1 9399  12.740  13.368   9.179 -0.2877 -0.1982  0.0384
  627ERGO    C2 9400  12.695  13.419   8.936 -0.0824  0.1749  0.0905
  628ERGO   ROH 9401   9.470   0.360  10.810  0.1050  0.1004  0.1505
  628ERGO    R1 9402   9.332   0.506  10.611  0.1810  0.2663  0.2164
  628ERGO    R2 9403   9.459   0.688  10.445  0.3565  0.0032  0.0459
  628ERGO    R3 9404   9.347   0.537  10.248 -0.0634  0.1123  0.1927
  628ERGO    R4 9405   9.473   0.761  10.108  0.4263 -0.2877 -0.0163
  628ERGO    R5 9406   9.266   0.698  10.090  0.2641  0.1872  0.0996
  628ERGO    C1 9407   9.377   0.663   9.726  0.0728 -0.3547  0.0852
  628ERGO    C2 9408   9.458   0.612   9.296 -0.4151  0.0617  0.0781
  629ERGO   ROH 9409   3.167  10.865   9.696  0.0156  0.0245 -0.1495
  629ERGO    R1 9410   3.204  10.906   9.418  0.1030 -0.0156 -0.1441
  629ERGO    R2 9411   3.165  10.706   9.232 -0.0426  0.0138 -0.1468
  629ERGO    R3 9412   2.999  10.890   9.118  0.1410  0.1609 -0.1811
  629ERGO    R4 9413   3.125  10.753   8.892 -0.3128 -0.3179 -0.1657
  629ERGO    R5 9414   3.119  10.968   8.927  0.0813 -0.2583 -0.4022
  629ERGO    C1 9415   2.946  10.952   8.587 -0.2978 -0.3728 -0.2087
  629ERGO    C2 9416   2.983  11.125   8.303 -0.4119  0.4129  0.1126
  630ERGO   ROH 9417   0.163   4.116   9.878 -0.4184 -0.0904 -0.2502
  630ERGO    R1 9418   0.311   4.233   9.667 -0.1934 -0.1202 -0.1141
  630ERGO    R2 9419   0.417   4.085   9.459 -0.1888 -0.1223 -0.1156
  630ERGO    R3 9420   0.278   4.261   9.306  0.0430  0.0578 -0.1230
  630ERGO    R4 9421   0.427   4.096   9.114 -0.1904 -0.1557 -0.1161
  630ERGO    R5 9422   0.428   4.314   9.126  0.1059 -0.1559 -0.1323
  630ERGO    C1 9423   0.303   4.268   8.769  0.0262 -0.0061 -0.1233
  630ERGO    C2 9424   0.162   4.304   8.466  0.0819  0.0465 -0.1034
  631ERGO   ROH 9425   9.131   9.791  10.312  0.0532  0.0637  0.0912
  631ERGO    R1 9426   9.252   9.816  10.058  0.0081  0.0165  0.0655
  631ERGO    R2 9427   9.243   9.615   9.869 -0.0021 -0.0260  0.1171
  631ERGO    R3 9428   9.143   9.812   9.711 -0.0462 -0.0763  0.0814
  631ERGO    R4 9429   9.287   9.634   9.526  0.0779 -0.0402  0.1261
  631ERGO    R5 9430   9.314   9.850   9.547 -0.0147 -0.0210  0.1203
  631ERGO    C1 9431   9.218   9.830   9.179  0.0832 -0.0955  0.0979
  631ERGO    C2 9432   9.248   9.785   8.867  0.0922 -0.2341 -0.2311
  632ERGO   ROH 9433   3.882  11.385   9.734 -0.1058  0.4013  0.2659
  632ERGO    R1 9434   3.997  11.433   9.480 -0.0626  0.1624  0.2391
  632ERGO    R2 9435   3.999  11.243   9.279 -0.1947  0.0376  0.3569
  632ERGO    R3 9436   3.882  11.441   9.135 -0.0452  0.0363  0.2293
  632ERGO    R4 9437   3.957  11.239   8.936 -0.3061 -0.2056  0.3699
  632ERGO    R5 9438   4.010  11.451   8.932 -0.0974 -0.2565  0.1778
  632ERGO    C1 9439   3.824  11.423   8.601 -0.2306 -0.3485  0.2577
  632ERGO    C2 9440   3.756  11.498   8.209  0.2509 -0.2375  0.3391
  633ERGO   ROH 9441   8.435   1.415   7.093 -0.1620 -0.0276 -0.1410
  633ERGO    R1 9442   8.499   1.432   7.368  0.0402 -0.0870 -0.1829
  633ERGO    R2 9443   8.322   1.531   7.556  0.2600  0.0865 -0.0643
  633ERGO    R3 9444   8.370   1.294   7.679  0.1129  0.0396 -0.0950
  633ERGO    R4 9445   8.334   1.486   7.898  0.2279  0.0341 -0.0696
  633ERGO    R5 9446   8.504   1.352   7.869  0.1471 -0.0670 -0.0852
  633ERGO    C1 9447   8.386   1.237   8.213  0.0712 -0.0404 -0.1015
  633ERGO    C2 9448   8.337   1.131   8.489  0.0896  0.0745  0.2468
  634ERGO   ROH 9449   6.818  11.363   9.848 -0.2652  0.0172  0.0048
  634ERGO    R1 9450   6.944  11.290   9.605 -0.1764 -0.0202  0.0613
  634ERGO    R2 9451   6.812  11.156   9.403 -0.1468  0.0832 -0.0285
  634ERGO    R3 9452   6.898  11.364   9.252  0.0532  0.0564  0.0461
  634ERGO    R4 9453   6.846  11.149   9.060 -0.1649  0.1782 -0.0328
  634ERGO    R5 9454   7.031  11.262   9.081 -0.0520 -0.0109  0.0042
  634ERGO    C1 9455   6.948  11.340   8.717  0.0123  0.2084  0.0349
  634ERGO    C2 9456   7.046  11.226   8.552  0.1715 -0.2158  0.1325
  635ERGO   ROH 9457  11.049  14.267  10.522  0.1867 -0.1270 -0.0091
  635ERGO    R1 9458  11.011  14.172  10.258  0.1219 -0.0873 -0.0145
  635ERGO    R2 9459  10.833  14.289  10.082 -0.0241 -0.1459  0.0910
  635ERGO    R3 9460  11.052  14.304   9.922 -0.1027  0.0144 -0.0034
  635ERGO    R4 9461  10.829  14.263   9.737 -0.1534 -0.1240  0.0904
  635ERGO    R5 9462  11.011  14.145   9.748 -0.0680 -0.0008  0.0035
  635ERGO    C1 9463  11.033  14.263   9.386 -0.3026  0.0393  0.0014
  635ERGO    C2 9464  11.045  14.309   8.998 -0.2966  0.1278 -0.1050
  636ERGO   ROH 9465   4.651   9.204   9.544  0.1188  0.1279  0.1220
  636ERGO    R1 9466   4.560   9.166   9.279  0.0917  0.0498  0.1418
  636ERGO    R2 9467   4.507   9.377   9.108  0.1150 -0.0003  0.0698
  636ERGO    R3 9468   4.679   9.246   8.944  0.0803 -0.0883  0.1043
  636ERGO    R4 9469   4.556   9.448   8.773  0.1195 -0.1136  0.0465
  636ERGO    R5 9470   4.566   9.234   8.734  0.0712 -0.1276  0.1118
  636ERGO    C1 9471   4.746   9.366   8.425  0.0896 -0.2623  0.0655
  636ERGO    C2 9472   4.554   9.407   8.160 -0.0735 -0.1653  0.1333
  637ERGO   ROH 9473   0.708   2.243  10.144  0.1137 -0.2909 -0.0564
  637ERGO    R1 9474   0.813   2.337   9.899 -0.0101 -0.0730 -0.0274
  637ERGO    R2 9475   0.890   2.167   9.694  0.1176  0.0987 -0.1182
  637ERGO    R3 9476   0.721   2.320   9.547 -0.0445  0.0129 -0.0245
  637ERGO    R4 9477   0.896   2.192   9.350 -0.0788  0.0933 -0.1234
  637ERGO    R5 9478   0.857   2.406   9.370 -0.1778  0.0802 -0.1020
  637ERGO    C1 9479   0.740   2.351   9.011 -0.3454  0.0096 -0.0386
  637ERGO    C2 9480   0.779   2.350   8.701 -0.3271  0.1546  0.2661
  638ERGO   ROH 9481  14.449  11.854  10.167  0.2213 -0.2660  0.0318
  638ERGO    R1 9482  14.325  11.804   9.917  0.0669 -0.1221  0.0783
  638ERGO    R2 9483  14.307  11.996   9.720  0.0996 -0.0615  0.1362
  638ERGO    R3 9484  14.426  11.805   9.567 -0.1022 -0.1043  0.0282
  638ERGO    R4 9485  14.319  11.998   9.374 -0.0338  0.0453  0.1311
  638ERGO    R5 9486  14.283  11.784   9.377 -0.1961  0.0681  0.0744
  638ERGO    C1 9487  14.438  11.820   9.030 -0.3010  0.0673  0.0268
  638ERGO    C2 9488  14.449  11.837   8.780  0.0800 -0.1486  0.0315
  639ERGO   ROH 9489   6.253  14.448  10.207  0.1693 -0.2819 -0.0021
  639ERGO    R1 9490   6.172  14.442   9.936  0.0421 -0.0681  0.0289
  639ERGO    R2 9491   6.115  14.672   9.792  0.2866  0.0691  0.1431
  639ERGO    R3 9492   6.298  14.570   9.620  0.0790 -0.1132  0.0256
  639ERGO    R4 9493   6.117  14.727   9.451  0.2308  0.2177  0.1662
  639ERGO    R5 9494   6.172  14.519   9.423 -0.0720  0.1500  0.0497
  639ERGO    C1 9495   6.291  14.664   9.090  0.0034  0.1332  0.0693
  639ERGO    C2 9496   6.496  14.682   8.863 -0.1613  0.1512  0.0955
  640ERGO   ROH 9497   4.033  14.444  10.009  0.2653  0.2027  0.0313
  640ERGO    R1 9498   4.047  14.595   9.769  0.2068  0.1602  0.0008
  640ERGO    R2 9499   4.280  14.622   9.624  0.1458  0.0438 -0.1204
  640ERGO    R3 9500   4.126  14.530   9.420  0.0068  0.0743 -0.0303
  640ERGO    R4 9501   4.344  14.674   9.288 -0.0555  0.0593 -0.1573
  640ERGO    R5 9502   4.131  14.705   9.257 -0.0737  0.0860 -0.0220
  640ERGO    C1 9503   4.236  14.617   8.901 -0.3032  0.0970 -0.0941
  640ERGO    C2 9504   4.298  14.677   8.498 -0.0956 -0.0072 -0.4032
  641ERGO   ROH 9505  17.456   9.113  10.258  0.0882  0.1804  0.0662
  641ERGO    R1 9506  17.485   9.166   9.981  0.2478  0.1002  0.0659
  641ERGO    R2 9507  17.662   9.028   9.821 -0.0005 -0.2866  0.1095
  641ERGO    R3 9508  17.441   8.981   9.671 -0.0806  0.1560  0.0756
  641ERGO    R4 9509  17.641   9.077   9.479  0.2100 -0.4076  0.0773
  641ERGO    R5 9510  17.440   9.157   9.508  0.3792  0.0838 -0.0169
  641ERGO    C1 9511  17.420   9.061   9.139  0.2573 -0.0626  0.0268
  641ERGO    C2 9512  17.400   8.990   8.699  0.3193 -0.0585 -0.1733
  642ERGO   ROH 9513  14.592   9.400  10.318  0.2543 -0.1040 -0.0882
  642ERGO    R1 9514  14.669   9.535  10.082  0.1731 -0.0735 -0.0969
  642ERGO    R2 9515  14.735   9.402   9.849  0.0050 -0.0388 -0.1618
  642ERGO    R3 9516  14.545   9.564   9.740  0.0019  0.0506 -0.0266
  642ERGO    R4 9517  14.691   9.455   9.510 -0.2882 -0.1212 -0.1401
  642ERGO    R5 9518  14.655   9.666   9.553 -0.1095 -0.0799 -0.1679
  642ERGO    C1 9519  14.488   9.638   9.211 -0.4620 -0.0852 -0.0007
  642ERGO    C2 9520  14.466   9.595   8.891 -0.0232 -0.1595 -0.0066
  643ERGO   ROH 9521   7.604   4.900  10.291  0.0336 -0.1023  0.0085
  643ERGO    R1 9522   7.759   4.839  10.063 -0.0511 -0.2373 -0.0152
  643ERGO    R2 9523   7.666   4.678   9.858 -0.2871 -0.0239 -0.0858
  643ERGO    R3 9524   7.734   4.892   9.704  0.0238 -0.0515  0.0068
  643ERGO    R4 9525   7.732   4.665   9.519  0.2127 -0.0454  0.0051
  643ERGO    R5 9526   7.895   4.806   9.550  0.2212 -0.1097  0.2443
  643ERGO    C1 9527   7.833   4.857   9.177  0.7955 -0.0840  0.1449
  643ERGO    C2 9528   7.858   4.698   8.891 -0.2363 -0.3124  0.1687
  644ERGO   ROH 9529  13.099  12.402  10.508 -0.0994 -0.1105  0.0419
  644ERGO    R1 9530  13.138  12.325  10.238  0.0567 -0.0802  0.0538
  644ERGO    R2 9531  12.928  12.266  10.068  0.1576 -0.2122 -0.0344
  644ERGO    R3 9532  13.045  12.454   9.911  0.1016 -0.1302  0.0226
  644ERGO    R4 9533  12.943  12.254   9.723  0.0212 -0.0136 -0.0484
  644ERGO    R5 9534  13.147  12.329   9.734  0.0248 -0.0307 -0.0891
  644ERGO    C1 9535  13.063  12.424   9.375 -0.1107  0.1790 -0.0031
  644ERGO    C2 9536  13.160  12.387   8.970  0.0325  0.1550  0.1230
  645ERGO   ROH 9537  14.783  12.677  10.301 -0.0253 -0.2901  0.0357
  645ERGO    R1 9538  14.935  12.769  10.080 -0.0090 -0.1994  0.0848
  645ERGO    R2 9539  15.004  12.605   9.868  0.0392 -0.1216  0.0430
  645ERGO    R3 9540  14.887  12.801   9.721  0.0343 -0.0897  0.0878
  645ERGO    R4 9541  15.004  12.620   9.523 -0.0423 -0.0946  0.0432
  645ERGO    R5 9542  15.036  12.835   9.537 -0.0035 -0.0992  0.0534
  645ERGO    C1 9543  14.894  12.813   9.184 -0.0945 -0.0488  0.0856
  645ERGO    C2 9544  14.972  12.742   8.910  0.0858 -0.1697 -0.1138
  646ERGO   ROH 9545   2.444   9.829   6.213  0.0020 -0.1171 -0.0115
  646ERGO    R1 9546   2.495   9.776   6.486  0.1497 -0.1087 -0.0372
  646ERGO    R2 9547   2.298   9.691   6.661  0.1656  0.2256  0.1502
  646ERGO    R3 9548   2.472   9.488   6.707 -0.0837 -0.0149  0.0636
  646ERGO    R4 9549   2.343   9.535   6.966  0.1753  0.2276  0.1504
  646ERGO    R5 9550   2.557   9.531   6.927  0.1446 -0.0848 -0.0094
  646ERGO    C1 9551   2.533   9.253   7.187 -0.0531  0.0030  0.0692
  646ERGO    C2 9552   2.675   8.988   7.337  0.0829 -0.2070 -0.2526
  647ERGO   ROH 9553  10.222   7.992  10.386  0.2627 -0.1460 -0.0577
  647ERGO    R1 9554  10.315   7.954  10.122  0.0925 -0.1332 -0.1221
  647ERGO    R2 9555  10.220   7.752   9.958 -0.1082 -0.0485 -0.1205
  647ERGO    R3 9556  10.172   7.958   9.788 -0.0998  0.0209 -0.0381
  647ERGO    R4 9557  10.237   7.732   9.613 -0.1363  0.0926 -0.1300
  647ERGO    R5 9558  10.331   7.928   9.611 -0.1203  0.0794 -0.0607
  647ERGO    C1 9559  10.201   7.914   9.253 -0.1448  0.2400 -0.0582
  647ERGO    C2 9560  10.158   7.930   8.905  0.0286 -0.1711 -0.2852
  648ERGO   ROH 9561   5.283  12.364   9.971  0.1408 -0.1767  0.0166
  648ERGO    R1 9562   5.423  12.364   9.725  0.0826 -0.3780 -0.0172
  648ERGO    R2 9563   5.399  12.159   9.539 -0.3828 -0.2756 -0.0808
  648ERGO    R3 9564   5.335  12.363   9.372 -0.0141 -0.0804  0.0035
  648ERGO    R4 9565   5.479  12.172   9.203 -0.2675 -0.2180 -0.0531
  648ERGO    R5 9566   5.524  12.383   9.227  0.0610 -0.2985  0.0694
  648ERGO    C1 9567   5.465  12.371   8.850  0.1458 -0.0012  0.0421
  648ERGO    C2 9568   5.376  12.430   8.464  0.0754  0.2100 -0.1037
  649ERGO   ROH 9569   5.060   6.827   9.374 -0.1791  0.1430 -0.0217
  649ERGO    R1 9570   5.132   6.877   9.104 -0.1375  0.1348 -0.0114
  649ERGO    R2 9571   5.259   6.689   8.947  0.0530  0.1974  0.0726
  649ERGO    R3 9572   5.051   6.735   8.779  0.0685 -0.0027 -0.0058
  649ERGO    R4 9573   5.281   6.692   8.602  0.2260  0.3957  0.0828
  649ERGO    R5 9574   5.146   6.864   8.600 -0.0105  0.2191  0.1040
  649ERGO    C1 9575   5.098   6.738   8.243  0.3413  0.3232  0.0153
  649ERGO    C2 9576   4.885   6.684   7.973  0.1032 -0.0838  0.0012
  650ERGO   ROH 9577  17.735   1.143  10.155  0.1132 -0.2110 -0.0529
  650ERGO    R1 9578  17.662   1.215   9.892  0.1336 -0.1935 -0.0545
  650ERGO    R2 9579  17.562   1.465   9.828 -0.1682 -0.2903  0.0097
  650ERGO    R3 9580  17.765   1.465   9.648 -0.0823  0.0506  0.1011
  650ERGO    R4 9581  17.523   1.503   9.487 -0.0480 -0.1525  0.0108
  650ERGO    R5 9582  17.676   1.350   9.458  0.1469  0.0470 -0.0035
  650ERGO    C1 9583  17.691   1.525   9.119  0.1028  0.2477  0.0973
  650ERGO    C2 9584  17.547   1.601   8.760 -0.1879  0.0357 -0.2033
  651ERGO   ROH 9585  11.175  10.206  10.457  0.0681  0.1978  0.0395
  651ERGO    R1 9586  11.169  10.077  10.205  0.0056  0.1218  0.0797
  651ERGO    R2 9587  10.969  10.122  10.020 -0.0205  0.0934  0.1013
  651ERGO    R3 9588  11.178  10.178   9.856 -0.0418  0.0138  0.0464
  651ERGO    R4 9589  10.944  10.179   9.680 -0.0895  0.0960  0.1068
  651ERGO    R5 9590  11.126  10.063   9.652 -0.1375  0.0279  0.0616
  651ERGO    C1 9591  11.125  10.264   9.328 -0.1496  0.0228  0.0585
  651ERGO    C2 9592  11.219  10.224   8.957 -0.2420  0.0937  0.2205
  652ERGO   ROH 9593  17.377   5.710   9.823  0.1316 -0.0902 -0.1154
  652ERGO    R1 9594  17.490   5.802   9.580  0.1575 -0.1184 -0.1152
  652ERGO    R2 9595  17.575   5.630   9.382  0.0632 -0.1410 -0.1421
  652ERGO    R3 9596  17.409   5.778   9.226  0.1189 -0.0466 -0.1104
  652ERGO    R4 9597  17.555   5.608   9.037  0.0624 -0.0475 -0.1472
  652ERGO    R5 9598  17.537   5.825   9.029  0.1370 -0.0422 -0.0947
  652ERGO    C1 9599  17.387   5.734   8.691  0.1141  0.0955 -0.1206
  652ERGO    C2 9600  17.362   5.729   8.378  0.0042 -0.1873  0.2332
  653ERGO   ROH 9601   5.950  11.285   9.667  0.2783  0.0367 -0.0057
  653ERGO    R1 9602   6.028  11.269   9.395  0.1202  0.0333 -0.0511
  653ERGO    R2 9603   5.854  11.190   9.194 -0.0211  0.1179  0.0399
  653ERGO    R3 9604   5.929  11.426   9.082  0.0046  0.0999  0.0175
  653ERGO    R4 9605   5.823  11.270   8.860 -0.2978  0.2017  0.0824
  653ERGO    R5 9606   6.018  11.366   8.869 -0.2316  0.0913 -0.0824
  653ERGO    C1 9607   5.875  11.537   8.559 -0.4349  0.2333  0.0863
  653ERGO    C2 9608   5.845  11.623   8.161  0.2054 -0.2987  0.1017
  654ERGO   ROH 9609   4.620   5.222   6.455 -0.0420 -0.0056 -0.0321
  654ERGO    R1 9610   4.549   4.980   6.583 -0.1404 -0.0071 -0.0880
  654ERGO    R2 9611   4.733   4.821   6.713 -0.2206 -0.0644 -0.0419
  654ERGO    R3 9612   4.561   4.847   6.922 -0.2895 -0.0529 -0.1003
  654ERGO    R4 9613   4.763   4.657   7.016 -0.1808  0.1447  0.0694
  654ERGO    R5 9614   4.547   4.627   7.015 -0.1603 -0.0046  0.0341
  654ERGO    C1 9615   4.619   4.585   7.388 -0.2223  0.2772  0.0794
  654ERGO    C2 9616   4.524   4.481   7.669  0.2241  0.1816 -0.3361
  655ERGO   ROH 9617  17.201   0.687  10.197  0.1405  0.1595 -0.0191
  655ERGO    R1 9618  17.137   0.557   9.955  0.0702  0.0818  0.0394
  655ERGO    R2 9619  16.960   0.662   9.771 -0.0838 -0.0356  0.1092
  655ERGO    R3 9620  17.168   0.629   9.599 -0.1552  0.0321  0.0097
  655ERGO    R4 9621  16.937   0.682   9.426 -0.2479 -0.0667  0.1181
  655ERGO    R5 9622  17.074   0.512   9.413 -0.1945 -0.0118  0.0629
  655ERGO    C1 9623  17.120   0.662   9.065 -0.4106 -0.0212  0.0298
  655ERGO    C2 9624  17.040   0.643   8.692 -0.2324  0.0211  0.1116
  656ERGO   ROH 9625  17.296  14.797  10.497 -0.0713  0.0179  0.2654
  656ERGO    R1 9626  17.408  15.030  10.381 -0.2897  0.0453  0.1029
  656ERGO    R2 9627  17.646  15.027  10.240 -0.1627  0.2067  0.3052
  656ERGO    R3 9628  17.494  15.143  10.046 -0.1660 -0.2100  0.0467
  656ERGO    R4 9629  17.768  15.153   9.943 -0.0690  0.1617  0.3246
  656ERGO    R5 9630  17.631  15.321   9.963 -0.3789 -0.0469  0.0412
  656ERGO    C1 9631  17.698  15.336   9.588 -0.0177 -0.2556  0.0933
  656ERGO    C2 9632  17.693  15.336   9.306 -0.0799 -0.2016  0.1566
  657ERGO   ROH 9633   1.605  12.456   9.660  0.2494  0.1476 -0.0008
  657ERGO    R1 9634   1.469  12.439   9.412  0.3390 -0.0964 -0.0341
  657ERGO    R2 9635   1.353  12.658   9.291 -0.0028 -0.3002 -0.0685
  657ERGO    R3 9636   1.506  12.582   9.080  0.1776 -0.0484 -0.0352
  657ERGO    R4 9637   1.310  12.768   8.966 -0.2213 -0.4656 -0.0994
  657ERGO    R5 9638   1.352  12.565   8.897  0.2050 -0.4171 -0.0416
  657ERGO    C1 9639   1.430  12.760   8.579 -0.1793 -0.3255 -0.0861
  657ERGO    C2 9640   1.260  13.012   8.291  0.3516  0.2106 -0.1243
  658ERGO   ROH 9641   9.893  15.430  10.709 -0.0247 -0.1599  0.1365
  658ERGO    R1 9642   9.998  15.314  10.474  0.0129 -0.1770  0.1620
  658ERGO    R2 9643   9.846  15.158  10.304 -0.0305  0.0240  0.0145
  658ERGO    R3 9644   9.932  15.336  10.116  0.2531  0.0099  0.1260
  658ERGO    R4 9645   9.873  15.091   9.966  0.1093  0.1149  0.0067
  658ERGO    R5 9646  10.060  15.203   9.964  0.2206 -0.0607  0.1587
  658ERGO    C1 9647   9.970  15.218   9.593  0.4568  0.1545  0.1067
  658ERGO    C2 9648  10.000  15.330   9.167  0.2091 -0.1599  0.0825
  659ERGO   ROH 9649   0.319  10.403   9.926 -0.2608 -0.1937  0.0734
  659ERGO    R1 9650   0.404  10.487   9.669 -0.1911 -0.1275  0.1190
  659ERGO    R2 9651   0.456  10.309   9.464 -0.1987 -0.0673  0.0728
  659ERGO    R3 9652   0.279  10.464   9.329 -0.1300  0.0238  0.0834
  659ERGO    R4 9653   0.402  10.295   9.123 -0.2051 -0.0386  0.0720
  659ERGO    R5 9654   0.388  10.512   9.121 -0.1022 -0.0236  0.0803
  659ERGO    C1 9655   0.203  10.433   8.798 -0.1445  0.0637  0.0815
  659ERGO    C2 9656   0.229  10.325   8.557  0.1855 -0.0099  0.0405
  660ERGO   ROH 9657   7.617  13.708  10.545  0.1047 -0.1627  0.0669
  660ERGO    R1 9658   7.732  13.618  10.302 -0.0186 -0.1384 -0.0012
  660ERGO    R2 9659   7.590  13.471  10.115 -0.1436 -0.0306  0.0087
  660ERGO    R3 9660   7.672  13.668   9.947 -0.1296 -0.0145  0.0342
  660ERGO    R4 9661   7.650  13.430   9.777  0.1083 -0.0543  0.0546
  660ERGO    R5 9662   7.824  13.559   9.798  0.0295  0.0391  0.1542
  660ERGO    C1 9663   7.762  13.590   9.423  0.2680 -0.0528  0.1052
  660ERGO    C2 9664   7.788  13.492   9.066 -0.1390  0.3949 -0.0155
  661ERGO   ROH 9665   6.078   8.564   9.826  0.1385  0.0215  0.0505
  661ERGO    R1 9666   6.268   8.558   9.616 -0.0114 -0.0338 -0.0864
  661ERGO    R2 9667   6.304   8.337   9.455 -0.1336 -0.0740 -0.0619
  661ERGO    R3 9668   6.262   8.515   9.255 -0.2738 -0.1201 -0.0736
  661ERGO    R4 9669   6.339   8.267   9.118  0.2364  0.0123 -0.0456
  661ERGO    R5 9670   6.430   8.464   9.092 -0.0612  0.1685  0.0469
  661ERGO    C1 9671   6.319   8.395   8.734  0.3202  0.0193 -0.0471
  661ERGO    C2 9672   6.287   8.373   8.398  0.1523  0.0410  0.2470
  662ERGO   ROH 9673   0.293   7.493   9.897  0.0270  0.0380  0.0968
  662ERGO    R1 9674   0.286   7.578   9.628  0.1927  0.0387  0.0936
  662ERGO    R2 9675   0.446   7.467   9.432 -0.0842 -0.3482  0.0894
  662ERGO    R3 9676   0.209   7.429   9.305 -0.1949  0.1911  0.1069
  662ERGO    R4 9677   0.402   7.479   9.090  0.0468 -0.6905  0.0551
  662ERGO    R5 9678   0.214   7.585   9.123  0.3330 -0.0526 -0.1182
  662ERGO    C1 9679   0.155   7.451   8.770  0.0192 -0.3836  0.0515
  662ERGO    C2 9680   0.146   7.488   8.408 -0.1173  0.2532  0.3227
  663ERGO   ROH 9681  13.438  11.096  10.315  0.0989 -0.0286  0.0182
  663ERGO    R1 9682  13.345  10.919  10.114 -0.0605  0.0513  0.0205
  663ERGO    R2 9683  13.170  10.999   9.915  0.0515  0.2203 -0.0106
  663ERGO    R3 9684  13.363  10.899   9.751 -0.0301  0.0003  0.0245
  663ERGO    R4 9685  13.157  11.001   9.569  0.1785  0.3726 -0.0159
  663ERGO    R5 9686  13.242  10.801   9.570 -0.1118  0.2435 -0.0584
  663ERGO    C1 9687  13.330  10.908   9.215  0.1759  0.2546  0.0140
  663ERGO    C2 9688  13.330  10.983   8.963 -0.0768  0.1732  0.0077
  664ERGO   ROH 9689  16.756  15.450  10.622  0.0242 -0.1460 -0.0066
  664ERGO    R1 9690  16.626  15.355  10.389  0.0676 -0.1019 -0.0485
  664ERGO    R2 9691  16.563  15.520  10.176  0.0566 -0.0510 -0.0040
  664ERGO    R3 9692  16.702  15.335  10.033  0.1076  0.0201 -0.0480
  664ERGO    R4 9693  16.572  15.504   9.831 -0.0033 -0.0105 -0.0077
  664ERGO    R5 9694  16.560  15.286   9.846  0.0900 -0.0194 -0.0263
  664ERGO    C1 9695  16.707  15.321   9.496  0.0097  0.0799 -0.0511
  664ERGO    C2 9696  16.714  15.506   9.179 -0.1981 -0.0049  0.2687
  665ERGO   ROH 9697  16.956  16.563  10.345 -0.0958  0.2812  0.0981
  665ERGO    R1 9698  16.903  16.383  10.133 -0.1233  0.2226  0.1554
  665ERGO    R2 9699  16.677  16.401   9.974 -0.1085  0.2210  0.1381
  665ERGO    R3 9700  16.859  16.405   9.772 -0.0968  0.1114  0.1447
  665ERGO    R4 9701  16.599  16.398   9.638 -0.0987  0.3360  0.1336
  665ERGO    R5 9702  16.765  16.262   9.605 -0.2028  0.2099  0.1179
  665ERGO    C1 9703  16.724  16.401   9.252 -0.0817  0.2999  0.1371
  665ERGO    C2 9704  16.724  16.419   9.046 -0.0066 -0.1199  0.3426
  666ERGO   ROH 9705   8.332   9.284   9.932  0.2530 -0.1107 -0.0793
  666ERGO    R1 9706   8.407   9.378   9.675  0.2260 -0.0299 -0.0595
  666ERGO    R2 9707   8.514   9.212   9.482  0.1848  0.0216 -0.1363
  666ERGO    R3 9708   8.310   9.310   9.331  0.1679  0.0931 -0.0665
  666ERGO    R4 9709   8.521   9.246   9.138  0.0511 -0.0273 -0.1431
  666ERGO    R5 9710   8.418   9.437   9.160  0.1493  0.0183 -0.1283
  666ERGO    C1 9711   8.333   9.358   8.796 -0.0426  0.0114 -0.0816
  666ERGO    C2 9712   8.270   9.241   8.444 -0.1007  0.0186  0.1395
  667ERGO   ROH 9713   3.179  13.730  10.053  0.0541 -0.2176  0.1295
  667ERGO    R1 9714   3.213  13.690   9.775  0.0891 -0.1844  0.1289
  667ERGO    R2 9715   3.009  13.600   9.612  0.1358 -0.2515  0.1087
  667ERGO    R3 9716   3.068  13.824   9.469  0.0588 -0.2186  0.1279
  667ERGO    R4 9717   3.003  13.621   9.267  0.0773 -0.2119  0.1121
  667ERGO    R5 9718   3.184  13.742   9.276  0.0501 -0.1675  0.0997
  667ERGO    C1 9719   3.054  13.844   8.932 -0.0289 -0.1579  0.1321
  667ERGO    C2 9720   3.121  13.882   8.636  0.1180 -0.1728  0.2153
  668ERGO   ROH 9721   8.634  12.478   6.411  0.1207 -0.0791 -0.0204
  668ERGO    R1 9722   8.516  12.266   6.557  0.2755 -0.1363  0.0210
  668ERGO    R2 9723   8.635  12.154   6.780  0.2014  0.2229  0.2384
  668ERGO    R3 9724   8.396  12.212   6.896 -0.0182 -0.0383 -0.0618
  668ERGO    R4 9725   8.526  12.026   7.082  0.1834  0.4435  0.3284
  668ERGO    R5 9726   8.327  12.006   6.996  0.2789 -0.0435  0.1657
  668ERGO    C1 9727   8.238  12.006   7.367 -0.0331  0.3268  0.0989
  668ERGO    C2 9728   8.210  12.043   7.724  0.0935  0.1679 -0.0326
  669ERGO   ROH 9729   3.388   2.362  10.032  0.0788 -0.0957  0.0520
  669ERGO    R1 9730   3.498   2.359   9.771  0.0294 -0.0437  0.0312
  669ERGO    R2 9731   3.525   2.128   9.623  0.0161 -0.0150 -0.0119
  669ERGO    R3 9732   3.385   2.268   9.437 -0.0270  0.0072  0.0359
  669ERGO    R4 9733   3.579   2.111   9.282  0.0913  0.1959 -0.0128
  669ERGO    R5 9734   3.549   2.327   9.272 -0.0265  0.1867  0.0967
  669ERGO    C1 9735   3.479   2.233   8.909  0.0947  0.3394  0.0315
  669ERGO    C2 9736   3.445   2.171   8.525  0.0309 -0.2034  0.1027
  670ERGO   ROH 9737   8.132   7.582  10.295 -0.1401  0.1264 -0.1263
  670ERGO    R1 9738   8.282   7.634  10.061 -0.0021  0.1108 -0.0431
  670ERGO    R2 9739   8.417   7.435   9.924  0.0232  0.0873  0.0076
  670ERGO    R3 9740   8.274   7.528   9.713  0.1544  0.1437 -0.0565
  670ERGO    R4 9741   8.496   7.380   9.592 -0.0111 -0.1860  0.0431
  670ERGO    R5 9742   8.439   7.586   9.550  0.2381 -0.1411 -0.0747
  670ERGO    C1 9743   8.407   7.436   9.201  0.0920 -0.2922  0.0033
  670ERGO    C2 9744   8.442   7.346   8.842 -0.1862  0.1763 -0.0195
  671ERGO   ROH 9745  11.676   7.993  10.573 -0.2997 -0.2758  0.0212
  671ERGO    R1 9746  11.537   8.124  10.365 -0.1186 -0.1279 -0.0099
  671ERGO    R2 9747  11.654   8.316  10.205  0.0942 -0.1830  0.0785
  671ERGO    R3 9748  11.568   8.155  10.003  0.0522 -0.0799  0.0060
  671ERGO    R4 9749  11.650   8.405   9.871  0.1711 -0.0541  0.1111
  671ERGO    R5 9750  11.457   8.305   9.852  0.1266  0.0259  0.0488
  671ERGO    C1 9751  11.566   8.306   9.487  0.1765  0.1179  0.0620
  671ERGO    C2 9752  11.605   8.485   9.155 -0.0055 -0.1999  0.3938
  672ERGO   ROH 9753   2.653   9.415   9.471 -0.1327  0.2883 -0.1302
  672ERGO    R1 9754   2.708   9.246   9.251  0.0184  0.1718 -0.0067
  672ERGO    R2 9755   2.523   9.197   9.051  0.0715 -0.1157  0.0070
  672ERGO    R3 9756   2.725   9.281   8.889  0.0215 -0.0713 -0.0314
  672ERGO    R4 9757   2.518   9.184   8.705  0.0480 -0.2090  0.0115
  672ERGO    R5 9758   2.727   9.122   8.710  0.0746 -0.1173  0.0106
  672ERGO    C1 9759   2.705   9.254   8.353 -0.0126 -0.2217 -0.0221
  672ERGO    C2 9760   2.692   9.316   7.980  0.2368  0.2101 -0.2337
  673ERGO   ROH 9761   1.599   0.138  10.157  0.0285 -0.2881  0.1356
  673ERGO    R1 9762   1.634   0.013   9.906 -0.1273 -0.3137  0.1266
  673ERGO    R2 9763   1.423  -0.087   9.758 -0.2714  0.0956  0.0537
  673ERGO    R3 9764   1.526   0.073   9.564  0.0764 -0.0587  0.1016
  673ERGO    R4 9765   1.372  -0.130   9.419 -0.3000  0.2478  0.0371
  673ERGO    R5 9766   1.581  -0.077   9.385 -0.1789 -0.1445  0.0848
  673ERGO    C1 9767   1.439  -0.004   9.039  0.0100  0.1914  0.0724
  673ERGO    C2 9768   1.391   0.036   8.685  0.0857  0.3641  0.0686
  674ERGO   ROH 9769  13.636   8.194  10.239  0.1232 -0.0741  0.0342
  674ERGO    R1 9770  13.630   8.304   9.978 -0.1761 -0.0744  0.0384
  674ERGO    R2 9771  13.822   8.246   9.787 -0.1099  0.3168 -0.0172
  674ERGO    R3 9772  13.606   8.176   9.638 -0.0210 -0.1162  0.0414
  674ERGO    R4 9773  13.814   8.242   9.442 -0.1540  0.1762 -0.0158
  674ERGO    R5 9774  13.613   8.325   9.451 -0.3069 -0.1655 -0.0164
  674ERGO    C1 9775  13.606   8.174   9.101 -0.0964 -0.3120  0.0400
  674ERGO    C2 9776  13.785   8.200   8.791  0.1579  0.1640 -0.3262
  675PSPI    C1 9777  15.067   4.099   5.657 -0.0847  0.0917 -0.0310
  675PSPI    C2 9778  15.339   4.062   5.366  0.0451  0.1426  0.0831
  675PSPI    C3 9779  15.093   4.377   5.371 -0.1284  0.0125 -0.1125
  675PSPI   PO4 9780  14.956   3.794   5.810 -0.2849  0.0389  0.0010
  675PSPI   GL1 9781  15.304   3.729   6.194  0.0662 -0.0038 -0.0254
  675PSPI   GL2 9782  15.308   3.464   6.388 -0.0390 -0.2605 -0.2181
  675PSPI   C1A 9783  15.646   3.786   6.556 -0.1848 -0.0255  0.0005
  675PSPI   C2A 9784  15.816   3.808   6.809 -0.0031 -0.1701  0.2926
  675PSPI   C3A 9785  15.799   3.802   7.231  0.0263  0.0707 -0.1291
  675PSPI   C4A 9786  15.739   3.861   7.667  0.0179  0.1456 -0.0901
  675PSPI   C1B 9787  15.165   3.639   6.714  0.3503 -0.1523 -0.0658
  675PSPI   C2B 9788  15.269   3.729   7.116  0.4504 -0.0073  0.1792
  675PSPI   C3B 9789  15.277   3.680   7.491 -0.5724 -0.4189 -0.1513
  675PSPI   C4B 9790  15.246   3.628   7.920 -0.1863  0.0510  0.0768
  676PSPI    C1 9791   7.050   2.394   5.964 -0.2091 -0.1031  0.1120
  676PSPI    C2 9792   7.290   2.078   5.910  0.1571  0.1744  0.0760
  676PSPI    C3 9793   7.152   2.281   5.594  0.0902  0.1734  0.1045
  676PSPI   PO4 9794   7.097   2.484   6.238  0.0276  0.1809  0.0033
  676PSPI   GL1 9795   7.298   2.479   6.733  0.0607 -0.1480 -0.0987
  676PSPI   GL2 9796   7.348   2.277   6.880  0.0754 -0.0779  0.1383
  676PSPI   C1A 9797   7.407   2.729   7.108 -0.1507 -0.3082  0.1719
  676PSPI   C2A 9798   7.348   2.840   7.554  0.0031  0.1441 -0.2508
  676PSPI   C3A 9799   7.086   2.756   7.866 -0.0239 -0.1021  0.5250
  676PSPI   C4A 9800   6.782   2.494   8.035 -0.0168 -0.1334  0.0913
  676PSPI   C1B 9801   7.375   2.247   7.352  0.0664 -0.2162  0.1562
  676PSPI   C2B 9802   7.204   2.287   7.698 -0.1250 -0.1910  0.0785
  676PSPI   C3B 9803   7.036   2.043   8.072 -0.1616 -0.4339 -0.0179
  676PSPI   C4B 9804   7.192   2.013   8.499  0.1147 -0.1232  0.0743
  677PSPI    C1 9805  11.438   2.652   6.055 -0.0303 -0.0805  0.0045
  677PSPI    C2 9806  11.803   2.702   5.899  0.0536  0.1575  0.2694
  677PSPI    C3 9807  11.483   2.852   5.712  0.0968  0.0018  0.0682
  677PSPI   PO4 9808  11.467   2.703   6.289 -0.1997 -0.1714  0.1750
  677PSPI   GL1 9809  11.224   2.844   6.624  0.1213  0.3439  0.1291
  677PSPI   GL2 9810  10.959   2.599   6.767  0.5708 -0.1785  0.2412
  677PSPI   C1A 9811  11.359   3.097   6.967  0.0255 -0.3119  0.0916
  677PSPI   C2A 9812  11.536   3.444   7.276  0.2634 -0.2515  0.0676
  677PSPI   C3A 9813  11.916   3.532   7.527 -0.0360 -0.1643 -0.1400
  677PSPI   C4A 9814  12.164   3.434   7.797 -0.1008 -0.1562  0.2407
  677PSPI   C1B 9815  10.996   2.275   7.107  0.0101  0.1611 -0.0990
  677PSPI   C2B 9816  11.365   2.180   7.310 -0.0963 -0.0772 -0.2699
  677PSPI   C3B 9817  11.605   1.930   7.646 -0.3330  0.1772 -0.0648
  677PSPI   C4B 9818  11.654   2.218   7.992 -0.0422 -0.0294 -0.0345
  678PSPI    C1 9819  14.161   2.972   5.666  0.1370 -0.2444 -0.3596
  678PSPI    C2 9820  14.350   2.627   5.593  0.1906 -0.2188 -0.3425
  678PSPI    C3 9821  14.073   2.762   5.338 -0.1357 -0.4847 -0.1384
  678PSPI   PO4 9822  14.363   3.095   5.855  0.0260  0.0002  0.1698
  678PSPI   GL1 9823  14.286   3.224   6.318 -0.1908 -0.1581  0.0099
  678PSPI   GL2 9824  14.403   3.511   6.262  0.1909 -0.1869 -0.1301
  678PSPI   C1A 9825  14.636   2.966   6.503  0.5316  0.0980  0.2728
  678PSPI   C2A 9826  14.729   2.696   6.810 -0.0262 -0.0671 -0.0335
  678PSPI   C3A 9827  14.898   2.570   7.160 -0.1808  0.3887  0.1103
  678PSPI   C4A 9828  15.056   2.403   7.570  0.1502  0.1648 -0.1458
  678PSPI   C1B 9829  14.573   3.430   6.654 -0.2462 -0.1090  0.2129
  678PSPI   C2B 9830  14.822   3.522   7.087  0.1072  0.1776  0.1808
  678PSPI   C3B 9831  14.795   3.551   7.600  0.2267 -0.1542 -0.0337
  678PSPI   C4B 9832  14.560   3.758   7.957 -0.0635 -0.3615 -0.2233
  679PSPI    C1 9833   7.675  16.217   5.785  0.0816  0.4244 -0.0197
  679PSPI    C2 9834   7.520  15.944   5.538 -0.1619  0.2331  0.3361
  679PSPI    C3 9835   7.820  16.178   5.414 -0.1114 -0.0280 -0.0535
  679PSPI   PO4 9836   7.569  16.125   6.070 -0.0512 -0.1537  0.1141
  679PSPI   GL1 9837   7.784  15.965   6.396  0.3573 -0.0367  0.2552
  679PSPI   GL2 9838   8.098  16.025   6.390 -0.2067  0.0952  0.0167
  679PSPI   C1A 9839   7.638  16.059   6.824  0.0715  0.0668 -0.2218
  679PSPI   C2A 9840   7.665  16.253   7.206  0.0335  0.1343 -0.1316
  679PSPI   C3A 9841   7.716  16.320   7.563  0.1361  0.0697  0.0679
  679PSPI   C4A 9842   7.733  16.241   8.012 -0.1428  0.0679 -0.0342
  679PSPI   C1B 9843   8.094  16.205   6.824  0.0871 -0.1879 -0.3340
  679PSPI   C2B 9844   8.238  16.322   7.205 -0.1217 -0.0210 -0.1841
  679PSPI   C3B 9845   8.385  16.495   7.507 -0.2305  0.2004  0.2002
  679PSPI   C4B 9846   8.594  16.805   7.559 -0.1854  0.1115  0.0225
  680PSPI    C1 9847   3.962   8.680   5.158 -0.0339  0.0029 -0.0008
  680PSPI    C2 9848   3.885   9.032   4.985  0.1196  0.0289 -0.0167
  680PSPI    C3 9849   3.872   8.695   4.769  0.3015  0.0603 -0.0785
  680PSPI   PO4 9850   4.237   8.736   5.355 -0.0339 -0.1886 -0.0990
  680PSPI   GL1 9851   4.365   8.644   5.818  0.0449  0.0417  0.0322
  680PSPI   GL2 9852   4.042   8.532   5.741  0.0176  0.2031 -0.0724
  680PSPI   C1A 9853   4.504   8.702   6.242  0.0756 -0.0748  0.3683
  680PSPI   C2A 9854   4.511   8.746   6.691  0.1224  0.1070 -0.2066
  680PSPI   C3A 9855   4.436   8.725   7.097  0.0137  0.2419  0.2341
  680PSPI   C4A 9856   4.089   9.007   7.190  0.0824  0.0976 -0.0747
  680PSPI   C1B 9857   4.020   8.650   6.181 -0.2120  0.1322  0.2560
  680PSPI   C2B 9858   3.761   8.423   6.444 -0.0348  0.0539  0.2134
  680PSPI   C3B 9859   3.561   8.481   6.815 -0.0436  0.0691  0.1198
  680PSPI   C4B 9860   3.397   8.309   7.164 -0.2106 -0.1031  0.4212
  681PSPI    C1 9861   4.453  13.709   5.471  0.1568 -0.0135  0.0257
  681PSPI    C2 9862   4.604  13.342   5.520  0.1515 -0.0220 -0.0212
  681PSPI    C3 9863   4.467  13.456   5.161  0.1130  0.0106  0.0038
  681PSPI   PO4 9864   4.653  13.840   5.674  0.0399  0.0165 -0.0356
  681PSPI   GL1 9865   4.876  13.811   6.095 -0.0795  0.2953 -0.1522
  681PSPI   GL2 9866   4.999  13.455   5.992 -0.3163  0.0720 -0.0113
  681PSPI   C1A 9867   4.669  14.006   6.476 -0.0546 -0.0700 -0.1155
  681PSPI   C2A 9868   4.662  13.940   6.958  0.2963  0.0427 -0.1392
  681PSPI   C3A 9869   4.630  13.642   7.324  0.1057 -0.0795  0.1069
  681PSPI   C4A 9870   4.402  13.687   7.806  0.2000  0.1713  0.0936
  681PSPI   C1B 9871   4.713  13.370   6.374  0.3226 -0.0307  0.0990
  681PSPI   C2B 9872   4.404  13.554   6.652 -0.2041  0.0237  0.0484
  681PSPI   C3B 9873   4.236  13.756   7.069 -0.0900  0.0133 -0.2621
  681PSPI   C4B 9874   4.206  13.965   7.452 -0.2052  0.1676 -0.0162
  682PSPI    C1 9875  13.088   2.679   6.216  0.0812 -0.3630  0.0040
  682PSPI    C2 9876  12.989   2.460   5.896 -0.0185 -0.0530 -0.1821
  682PSPI    C3 9877  12.774   2.783   5.991  0.1827  0.0203  0.0334
  682PSPI   PO4 9878  13.304   2.762   6.145 -0.1852 -0.0574 -0.0165
  682PSPI   GL1 9879  13.644   3.100   6.245 -0.0984 -0.0451  0.0327
  682PSPI   GL2 9880  13.329   3.223   6.336 -0.1068  0.0561 -0.4734
  682PSPI   C1A 9881  13.933   3.126   6.623 -0.1008  0.0010 -0.1243
  682PSPI   C2A 9882  14.264   3.035   6.871 -0.0233  0.2383  0.0588
  682PSPI   C3A 9883  14.594   3.048   7.272  0.0795 -0.3190  0.0936
  682PSPI   C4A 9884  14.797   2.819   7.579 -0.0909 -0.0005 -0.2927
  682PSPI   C1B 9885  13.489   3.328   6.717 -0.0965  0.1561 -0.1942
  682PSPI   C2B 9886  13.758   3.363   7.021  0.2980  0.0262 -0.2140
  682PSPI   C3B 9887  13.702   3.521   7.458 -0.1090 -0.2266  0.2116
  682PSPI   C4B 9888  13.559   3.531   7.862  0.0812 -0.2660 -0.1972
  683PSPI    C1 9889   9.507   5.886   6.070 -0.0750 -0.1048  0.3193
  683PSPI    C2 9890   9.482   6.016   5.693  0.0970 -0.5116  0.1613
  683PSPI    C3 9891   9.445   6.274   5.997 -0.1569 -0.1972 -0.1283
  683PSPI   PO4 9892   9.713   5.759   6.112 -0.1427 -0.1835  0.0430
  683PSPI   GL1 9893   9.823   5.689   6.549 -0.0998  0.0990  0.0234
  683PSPI   GL2 9894   9.648   5.773   6.818 -0.1108 -0.3283  0.0047
  683PSPI   C1A 9895   9.809   5.321   6.850  0.0861  0.0442  0.0686
  683PSPI   C2A 9896   9.849   5.203   7.168 -0.0283  0.4320 -0.0634
  683PSPI   C3A 9897   9.882   5.387   7.514  0.1044 -0.0800  0.0885
  683PSPI   C4A 9898   9.834   5.662   7.785  0.1861 -0.0085 -0.0490
  683PSPI   C1B 9899   9.748   5.847   7.280  0.0133 -0.0544 -0.0057
  683PSPI   C2B 9900   9.678   6.130   7.624  0.4360 -0.1312 -0.1528
  683PSPI   C3B 9901   9.650   6.315   7.973 -0.1055 -0.4746 -0.0083
  683PSPI   C4B 9902   9.228   6.436   8.218  0.0521  0.1228 -0.3162
  684PSPI    C1 9903   1.636   5.350   5.763 -0.0571 -0.0401 -0.0246
  684PSPI    C2 9904   1.694   5.435   5.377 -0.2208 -0.0895 -0.0612
  684PSPI    C3 9905   1.330   5.474   5.537 -0.0704  0.3431  0.1946
  684PSPI   PO4 9906   1.785   5.104   5.828 -0.0070 -0.3749 -0.0732
  684PSPI   GL1 9907   2.070   5.082   6.107  0.0527  0.0509 -0.0283
  684PSPI   GL2 9908   1.879   4.782   6.177  0.0933  0.1979 -0.0005
  684PSPI   C1A 9909   2.263   4.795   6.501 -0.0293  0.0886 -0.0928
  684PSPI   C2A 9910   2.443   4.680   6.843 -0.0093  0.1333  0.0514
  684PSPI   C3A 9911   2.491   4.787   7.095  0.3084 -0.2517  0.3208
  684PSPI   C4A 9912   2.482   4.686   7.423  0.0159 -0.0224  0.0572
  684PSPI   C1B 9913   1.812   4.977   6.624 -0.1574 -0.2211 -0.0622
  684PSPI   C2B 9914   1.993   4.932   7.059 -0.1238 -0.1276  0.0531
  684PSPI   C3B 9915   2.201   5.085   7.414  0.0770  0.2096  0.0043
  684PSPI   C4B 9916   2.232   4.953   7.812  0.0664  0.0638 -0.2447
  685PSPI    C1 9917   9.974  14.243   6.688  0.0110  0.2247 -0.0868
  685PSPI    C2 9918   9.863  14.228   6.303  0.1309  0.0486 -0.1157
  685PSPI    C3 9919  10.042  14.555   6.448  0.2000  0.0670 -0.2419
  685PSPI   PO4 9920   9.955  13.919   6.703  0.0349  0.3140 -0.4158
  685PSPI   GL1 9921   9.813  13.820   7.063  0.2177  0.1118 -0.2306
  685PSPI   GL2 9922   9.587  13.639   7.020  0.0748 -0.0260  0.3903
  685PSPI   C1A 9923   9.901  13.894   7.430  0.0095  0.1058 -0.1062
  685PSPI   C2A 9924  10.081  13.851   7.805 -0.0751 -0.1642 -0.0183
  685PSPI   C3A 9925   9.925  14.029   8.191 -0.3142 -0.1574 -0.0048
  685PSPI   C4A 9926   9.691  14.310   8.326 -0.2615 -0.2046 -0.0121
  685PSPI   C1B 9927   9.511  13.491   7.500  0.2640 -0.0188 -0.2165
  685PSPI   C2B 9928   9.218  13.335   7.758 -0.0982 -0.0566 -0.1500
  685PSPI   C3B 9929   8.966  13.129   8.029  0.1456  0.1271 -0.0418
  685PSPI   C4B 9930   8.600  13.122   8.262  0.2697 -0.0404  0.1792
  686PSPI    C1 9931   7.631   4.521   5.386  0.0263 -0.1584 -0.1557
  686PSPI    C2 9932   7.500   4.880   5.270  0.3130  0.0401  0.1182
  686PSPI    C3 9933   7.485   4.571   5.017 -0.4125  0.1157  0.0470
  686PSPI   PO4 9934   7.642   4.473   5.705  0.2175  0.0102 -0.0418
  686PSPI   GL1 9935   7.433   4.601   6.108 -0.1920  0.1600  0.1024
  686PSPI   GL2 9936   7.573   4.263   6.204  0.3231  0.0187  0.1564
  686PSPI   C1A 9937   7.026   4.566   6.342 -0.2299  0.3364 -0.3088
  686PSPI   C2A 9938   6.818   4.834   6.618 -0.3515 -0.2884  0.1549
  686PSPI   C3A 9939   6.634   4.950   7.028  0.0549  0.1645  0.1851
  686PSPI   C4A 9940   6.555   4.827   7.408 -0.0509  0.5076  0.0839
  686PSPI   C1B 9941   7.629   4.320   6.621 -0.1525 -0.0643 -0.1883
  686PSPI   C2B 9942   8.060   4.205   6.869  0.3692  0.1072  0.2285
  686PSPI   C3B 9943   8.322   3.929   7.094 -0.0980  0.1683 -0.0292
  686PSPI   C4B 9944   8.477   3.472   7.301  0.2722 -0.0406  0.0423
  687PSPI    C1 9945  10.551   6.948   6.160  0.0204  0.1647 -0.2078
  687PSPI    C2 9946  10.898   7.113   6.052  0.0343  0.1162 -0.2378
  687PSPI    C3 9947  10.795   6.754   5.909  0.1928 -0.0877  0.1445
  687PSPI   PO4 9948  10.530   6.992   6.424  0.2535 -0.1411 -0.1552
  687PSPI   GL1 9949  10.220   7.119   6.661  0.1608 -0.1226  0.0949
  687PSPI   GL2 9950  10.091   6.833   6.776  0.0538 -0.0479  0.1716
  687PSPI   C1A 9951  10.095   7.392   7.012  0.0466 -0.2782  0.1587
  687PSPI   C2A 9952  10.421   7.501   7.311  0.0496  0.1326  0.0393
  687PSPI   C3A 9953  10.719   7.487   7.679  0.2076 -0.1998  0.0137
  687PSPI   C4A 9954  11.025   7.547   7.993 -0.1472  0.1274 -0.2976
  687PSPI   C1B 9955  10.204   6.965   7.194 -0.1708 -0.0159  0.0994
  687PSPI   C2B 9956  10.357   7.109   7.580 -0.0643  0.1102 -0.1203
  687PSPI   C3B 9957  10.298   7.206   8.076 -0.1774 -0.0062 -0.0181
  687PSPI   C4B 9958  10.417   7.519   8.381 -0.2640  0.3193  0.1202
  688PSPI    C1 9959   2.949  13.996   5.809 -0.3188  0.2663 -0.2004
  688PSPI    C2 9960   2.705  13.733   5.985 -0.2390  0.3882  0.0983
  688PSPI    C3 9961   2.684  13.792   5.590 -0.3287  0.0121  0.0431
  688PSPI   PO4 9962   2.969  14.209   5.909 -0.0936  0.1799 -0.1204
  688PSPI   GL1 9963   2.684  14.356   6.311  0.2491  0.2350  0.0895
  688PSPI   GL2 9964   2.393  14.377   6.462 -0.2228 -0.2793 -0.0012
  688PSPI   C1A 9965   2.669  14.037   6.694  0.0933 -0.0843  0.1315
  688PSPI   C2A 9966   2.897  14.056   7.022 -0.4529  0.2115  0.0304
  688PSPI   C3A 9967   2.939  13.853   7.450  0.1152 -0.1653  0.0571
  688PSPI   C4A 9968   2.937  13.686   7.812  0.2700  0.1316  0.2140
  688PSPI   C1B 9969   2.347  14.395   6.969  0.0576 -0.2323 -0.0368
  688PSPI   C2B 9970   2.492  14.111   7.307 -0.2227 -0.0621 -0.2522
  688PSPI   C3B 9971   2.373  13.818   7.745  0.2349 -0.0785  0.0620
  688PSPI   C4B 9972   2.088  13.464   7.967 -0.0717  0.1060  0.1793
  689PSPI    C1 9973  15.663  12.012   6.161  0.0967 -0.2128 -0.0952
  689PSPI    C2 9974  15.517  12.375   6.080  0.0083 -0.2326 -0.0263
  689PSPI    C3 9975  15.665  12.149   5.785  0.2274 -0.0704 -0.0434
  689PSPI   PO4 9976  15.870  12.014   6.351  0.0107 -0.0275 -0.1099
  689PSPI   GL1 9977  15.775  12.316   6.597  0.0019  0.2574  0.0961
  689PSPI   GL2 9978  16.072  12.363   6.618 -0.2160 -0.1741  0.1535
  689PSPI   C1A 9979  15.743  12.116   7.067 -0.4380  0.1665  0.3551
  689PSPI   C2A 9980  15.850  12.045   7.442 -0.2186  0.1380  0.1927
  689PSPI   C3A 9981  16.150  11.809   7.693  0.1660 -0.3421  0.2196
  689PSPI   C4A 9982  16.347  11.989   8.088  0.0156  0.3850 -0.1442
  689PSPI   C1B 9983  16.239  12.203   6.984  0.1611  0.2675  0.0599
  689PSPI   C2B 9984  16.352  12.226   7.453 -0.1094 -0.3259 -0.0788
  689PSPI   C3B 9985  16.607  12.022   7.689  0.2393  0.3012 -0.0912
  689PSPI   C4B 9986  16.734  12.223   8.071 -0.3885 -0.0791  0.2193
  690PSPI    C1 9987  14.486   7.509   6.117 -0.1169  0.3089 -0.0796
  690PSPI    C2 9988  14.143   7.473   5.915 -0.0243 -0.3274 -0.1460
  690PSPI    C3 9989  14.492   7.450   5.722  0.0637  0.0137 -0.0358
  690PSPI   PO4 9990  14.475   7.579   6.429 -0.1983 -0.1960  0.2803
  690PSPI   GL1 9991  14.800   7.700   6.720  0.2581  0.0748 -0.0201
  690PSPI   GL2 9992  14.655   7.951   6.907  0.0523  0.1563  0.0752
  690PSPI   C1A 9993  14.849   7.589   7.147  0.0138  0.1236 -0.1695
  690PSPI   C2A 9994  14.728   7.719   7.567 -0.0908 -0.3612 -0.1621
  690PSPI   C3A 9995  14.640   7.720   7.987  0.0424 -0.3595 -0.1244
  690PSPI   C4A 9996  14.450   7.923   8.308  0.1826 -0.0076 -0.0805
  690PSPI   C1B 9997  14.828   8.070   7.233  0.0913 -0.2065 -0.1168
  690PSPI   C2B 9998  15.026   8.176   7.666 -0.1791  0.0394  0.2279
  690PSPI   C3B 9999  15.197   8.194   8.066  0.0967 -0.2259 -0.0002
  690PSPI   C4B10000  15.395   8.242   8.397  0.1332 -0.1964 -0.0114
  691PSPI    C110001   0.277  13.592   5.913  0.0363  0.3417 -0.2062
  691PSPI    C210002   0.566  13.323   5.846 -0.0450  0.2349 -0.1326
  691PSPI    C310003   0.335  13.447   5.545 -0.2079 -0.0108 -0.1115
  691PSPI   PO410004   0.365  13.762   6.036  0.5062  0.1858  0.0557
  691PSPI   GL110005   0.276  13.794   6.528  0.1546  0.0658  0.0653
  691PSPI   GL210006   0.423  13.503   6.679 -0.1752 -0.0595 -0.1104
  691PSPI   C1A10007   0.037  13.784   6.881 -0.3864 -0.1491  0.0594
  691PSPI   C2A10008  -0.383  13.914   7.139 -0.1223 -0.0383 -0.0527
  691PSPI   C3A10009  -0.566  14.004   7.485  0.2003  0.1103 -0.1270
  691PSPI   C4A10010  -0.502  13.945   7.902 -0.0759  0.1814 -0.0071
  691PSPI   C1B10011   0.332  13.339   7.011  0.0550  0.0565 -0.0003
  691PSPI   C2B10012   0.453  13.270   7.393 -0.1557 -0.0150  0.0636
  691PSPI   C3B10013   0.533  13.296   7.894  0.1447  0.0631 -0.0032
  691PSPI   C4B10014   0.868  13.267   8.171  0.0902 -0.0210  0.3551
  692PSPI    C110015   2.547   5.648   5.506  0.1017  0.0240  0.1768
  692PSPI    C210016   2.715   5.291   5.440  0.0549 -0.0076  0.2289
  692PSPI    C310017   2.696   5.560   5.145  0.0145 -0.0795  0.1655
  692PSPI   PO410018   2.605   5.750   5.738  0.2400  0.0086  0.1965
  692PSPI   GL110019   2.746   5.646   6.138 -0.1199  0.1259 -0.2721
  692PSPI   GL210020   2.641   5.431   6.328 -0.1088 -0.0389  0.0257
  692PSPI   C1A10021   2.885   5.999   6.426 -0.2775  0.1682 -0.1039
  692PSPI   C2A10022   2.788   6.220   6.756  0.0120 -0.1827 -0.0322
  692PSPI   C3A10023   2.583   6.398   7.168  0.1246  0.0360 -0.1272
  692PSPI   C4A10024   2.544   6.835   7.382 -0.0452  0.0525  0.0641
  692PSPI   C1B10025   2.720   5.614   6.807 -0.1724  0.3132 -0.1839
  692PSPI   C2B10026   2.730   5.821   7.169  0.0735  0.2127  0.1082
  692PSPI   C3B10027   3.074   6.134   7.203  0.2643 -0.1924  0.1454
  692PSPI   C4B10028   3.448   6.268   7.336 -0.0593 -0.4155  0.2277
  693PSPI    C110029   6.266   7.781   5.741 -0.2378  0.1356 -0.0681
  693PSPI    C210030   6.478   7.587   5.463  0.1173  0.1086  0.2139
  693PSPI    C310031   6.501   7.985   5.489 -0.2059  0.1475 -0.0288
  693PSPI   PO410032   6.323   7.703   5.968 -0.0937  0.1875  0.1738
  693PSPI   GL110033   6.478   7.865   6.329  0.1353 -0.2361 -0.1026
  693PSPI   GL210034   6.800   7.945   6.361  0.0145  0.2985  0.0099
  693PSPI   C1A10035   6.464   8.069   6.711  0.3021  0.0511 -0.0565
  693PSPI   C2A10036   6.416   7.964   7.092  0.0472  0.0506  0.2373
  693PSPI   C3A10037   6.116   7.787   7.410  0.1524 -0.3858 -0.0634
  693PSPI   C4A10038   5.863   7.611   7.770  0.2009 -0.0571  0.0122
  693PSPI   C1B10039   6.919   7.805   6.765  0.0971 -0.1635  0.0066
  693PSPI   C2B10040   6.896   7.730   7.324 -0.0020 -0.0732 -0.0056
  693PSPI   C3B10041   7.288   7.825   7.632 -0.1121 -0.2521  0.1660
  693PSPI   C4B10042   7.471   7.777   8.042 -0.0910 -0.3775 -0.0547
  694PSPI    C110043   4.830  10.347   5.162 -0.2221 -0.0618  0.0776
  694PSPI    C210044   5.103  10.640   5.150 -0.1227 -0.1628 -0.2403
  694PSPI    C310045   4.750  10.687   4.966 -0.3662  0.0055  0.2501
  694PSPI   PO410046   4.870  10.297   5.397 -0.0808  0.1531 -0.0337
  694PSPI   GL110047   4.917  10.161   5.927 -0.2445  0.0417 -0.1820
  694PSPI   GL210048   5.207  10.395   6.200 -0.0472 -0.1866 -0.2766
  694PSPI   C1A10049   4.911   9.991   6.231  0.0479 -0.0924 -0.1243
  694PSPI   C2A10050   4.744   9.776   6.692 -0.2626  0.0337  0.3298
  694PSPI   C3A10051   4.384   9.782   6.916 -0.1205 -0.4566  0.1666
  694PSPI   C4A10052   4.314   9.935   7.249  0.2364  0.2211  0.1017
  694PSPI   C1B10053   5.088  10.557   6.514 -0.1042 -0.2138 -0.0232
  694PSPI   C2B10054   5.079  10.531   6.970  0.1607 -0.0886  0.3103
  694PSPI   C3B10055   4.831  10.560   7.266  0.0099 -0.1094 -0.0842
  694PSPI   C4B10056   4.455  10.328   7.412  0.0692 -0.1618  0.0352
  695POPI    C110057   1.152   4.513   5.376  0.0384  0.1861 -0.1695
  695POPI    C210058   1.540   4.440   5.442 -0.0248 -0.1108 -0.1131
  695POPI    C310059   1.363   4.296   5.114 -0.2217 -0.4733  0.1448
  695POPI   PO410060   1.028   4.521   5.640 -0.3238 -0.0461  0.0915
  695POPI   GL110061   0.892   4.478   6.018  0.1244  0.1454 -0.0980
  695POPI   GL210062   1.059   4.556   6.214  0.2679 -0.2437 -0.0824
  695POPI   C1A10063   0.588   4.747   6.248 -0.3396  0.1011  0.1429
  695POPI   D2A10064   0.309   4.971   6.517  0.0010 -0.1152  0.0926
  695POPI   C3A10065   0.476   5.122   7.012 -0.0165 -0.2384  0.1987
  695POPI   C4A10066   0.696   4.860   7.395 -0.4206 -0.0160  0.0720
  695POPI   C1B10067   1.084   4.396   6.573  0.2440 -0.0472  0.3746
  695POPI   C2B10068   1.068   4.442   7.001  0.0669 -0.0594 -0.1450
  695POPI   C3B10069   1.221   4.211   7.440 -0.1452  0.2043 -0.0629
  695POPI   C4B10070   1.206   4.306   7.924 -0.1131  0.0607 -0.1016
  696POPI    C110071  16.555  13.341   6.092  0.2207  0.2240  0.0887
  696POPI    C210072  16.709  13.205   5.749  0.2335  0.3435  0.0467
  696POPI    C310073  16.327  13.324   5.764  0.1489  0.0685  0.1450
  696POPI   PO410074  16.792  13.476   6.220 -0.0001 -0.0313 -0.0370
  696POPI   GL110075  17.131  13.581   6.527  0.3549 -0.0684 -0.1292
  696POPI   GL210076  17.041  13.983   6.571 -0.3799  0.1728  0.2762
  696POPI   C1A10077  17.237  13.462   6.925 -0.0199 -0.1767 -0.1581
  696POPI   D2A10078  17.253  13.514   7.361  0.2958  0.0717  0.1862
  696POPI   C3A10079  17.677  13.595   7.552 -0.0781 -0.1348  0.1535
  696POPI   C4A10080  18.115  13.628   7.751  0.2104 -0.1298  0.0679
  696POPI   C1B10081  17.056  13.950   7.007  0.0330  0.0565 -0.1714
  696POPI   C2B10082  16.907  13.957   7.334  0.0726  0.1065 -0.1199
  696POPI   C3B10083  16.996  13.867   7.728 -0.2729 -0.1365  0.1210
  696POPI   C4B10084  16.842  13.561   7.976 -0.1484 -0.0683  0.1844
  697POPI    C110085  16.911  11.922   5.786 -0.0803  0.2786  0.0535
  697POPI    C210086  16.931  12.239   5.544  0.0487  0.1799 -0.0666
  697POPI    C310087  17.266  12.082   5.696 -0.0095  0.0638 -0.0571
  697POPI   PO410088  16.740  11.996   6.074 -0.1254 -0.0869  0.2788
  697POPI   GL110089  16.982  12.026   6.380  0.0344  0.1731 -0.0808
  697POPI   GL210090  17.295  11.922   6.183  0.0093  0.2853 -0.0994
  697POPI   C1A10091  17.267  12.088   6.734  0.1017 -0.1436  0.1629
  697POPI   D2A10092  17.374  12.154   7.174  0.0413 -0.0032 -0.3700
  697POPI   C3A10093  17.727  12.243   7.236  0.0664  0.0890 -0.3114
  697POPI   C4A10094  17.864  12.332   6.801 -0.1348  0.1451 -0.0028
  697POPI   C1B10095  17.291  11.621   6.582  0.2134 -0.0085 -0.0911
  697POPI   C2B10096  17.323  11.326   6.934  0.1504  0.0317  0.0913
  697POPI   C3B10097  17.298  11.267   7.473 -0.2409 -0.5394  0.2391
  697POPI   C4B10098  17.238  10.979   7.880 -0.2296 -0.0507  0.2165
  698POPI    C110099   6.376  17.538   5.809  0.0508  0.0376 -0.1493
  698POPI    C210100   6.036  17.631   5.620  0.1639  0.0845 -0.3330
  698POPI    C310101   6.283  17.359   5.464  0.1100 -0.1083 -0.0903
  698POPI   PO410102   6.498  17.895   5.901  0.0865 -0.0402  0.0124
  698POPI   GL110103   6.296  18.223   6.249  0.2684 -0.0105  0.1783
  698POPI   GL210104   6.660  18.124   6.313  0.1273  0.1465  0.1346
  698POPI   C1A10105   6.403  18.427   6.629 -0.0167  0.0815  0.1098
  698POPI   D2A10106   6.320  18.795   6.896 -0.1703 -0.0520  0.1837
  698POPI   C3A10107   6.178  18.804   7.279  0.1730 -0.1404 -0.3707
  698POPI   C4A10108   5.945  19.020   7.636  0.0807  0.1888  0.3488
  698POPI   C1B10109   6.967  18.254   6.691  0.0840 -0.0343 -0.1788
  698POPI   C2B10110   7.173  18.216   7.042 -0.0692 -0.2483  0.0726
  698POPI   C3B10111   7.013  18.162   7.437  0.2792  0.0219 -0.0519
  698POPI   C4B10112   6.926  18.196   7.864 -0.1707 -0.1334 -0.1061
  699POPI    C110113  11.531   7.957   6.105 -0.0576 -0.0145 -0.1743
  699POPI    C210114  11.811   7.852   5.840 -0.0961 -0.2984 -0.1065
  699POPI    C310115  11.540   7.584   5.960 -0.1019 -0.1622  0.1927
  699POPI   PO410116  11.617   8.041   6.305 -0.0280 -0.0520 -0.0501
  699POPI   GL110117  11.532   7.957   6.773 -0.0842 -0.4919  0.1171
  699POPI   GL210118  11.836   7.778   6.714 -0.0726  0.2531 -0.5276
  699POPI   C1A10119  11.364   7.872   7.138  0.0197  0.3260  0.0253
  699POPI   D2A10120  11.180   7.795   7.576  0.2141 -0.2648 -0.2894
  699POPI   C3A10121  11.273   7.997   7.840 -0.1764 -0.2972 -0.0276
  699POPI   C4A10122  11.569   8.171   7.983  0.1222 -0.0282 -0.0270
  699POPI   C1B10123  11.901   7.902   7.108  0.1750 -0.1429 -0.4574
  699POPI   C2B10124  12.196   7.666   7.474  0.1372  0.1774 -0.0052
  699POPI   C3B10125  12.161   7.625   7.830  0.2798  0.2159  0.1393
  699POPI   C4B10126  12.160   7.438   8.253 -0.1193  0.0424 -0.1292
  700POPI    C110127  11.719  14.132   6.108  0.3002  0.0481  0.1998
  700POPI    C210128  11.553  13.769   6.138 -0.1375  0.2295  0.0605
  700POPI    C310129  11.499  13.986   5.807  0.3664  0.3076  0.0225
  700POPI   PO410130  11.724  14.228   6.245  0.1856 -0.0819 -0.2155
  700POPI   GL110131  11.905  14.434   6.591 -0.0155 -0.2357  0.2028
  700POPI   GL210132  12.176  14.702   6.636 -0.1894  0.2693 -0.0498
  700POPI   C1A10133  11.974  14.376   7.048  0.5777 -0.1386  0.1809
  700POPI   D2A10134  11.825  14.098   7.106 -0.0507  0.1714  0.1096
  700POPI   C3A10135  11.722  14.035   7.552 -0.0088  0.2685 -0.3251
  700POPI   C4A10136  11.700  13.563   7.765  0.1055  0.0901  0.1939
  700POPI   C1B10137  12.292  14.796   7.079  0.0410 -0.6360  0.0095
  700POPI   C2B10138  12.143  14.781   7.512 -0.1229 -0.0440 -0.2304
  700POPI   C3B10139  12.069  14.861   7.872 -0.0717 -0.3217 -0.0480
  700POPI   C4B10140  11.707  14.803   8.174 -0.0991 -0.2018  0.4288
  701POPI    C110141   8.278   0.409   5.878 -0.0278  0.2559  0.2161
  701POPI    C210142   8.345   0.015   5.874 -0.6609  0.1380  0.1194
  701POPI    C310143   8.353   0.222   5.532 -0.1778  0.2458  0.1884
  701POPI   PO410144   8.469   0.557   6.046 -0.1977  0.2378 -0.1958
  701POPI   GL110145   8.378   0.756   6.492 -0.1503  0.0153  0.2641
  701POPI   GL210146   8.187   1.003   6.595 -0.3125  0.0467 -0.0109
  701POPI   C1A10147   8.613   0.882   6.834  0.0774 -0.0650 -0.0204
  701POPI   D2A10148   8.835   1.130   7.028 -0.1276 -0.2651 -0.2552
  701POPI   C3A10149   8.939   1.207   7.422 -0.1258  0.0750  0.1683
  701POPI   C4A10150   8.998   1.284   7.952 -0.1373  0.1333  0.3907
  701POPI   C1B10151   8.146   0.972   6.946 -0.2260 -0.0632  0.0387
  701POPI   C2B10152   8.033   1.058   7.400 -0.0560  0.1847  0.2918
  701POPI   C3B10153   7.803   0.737   7.762 -0.1485  0.2007  0.1399
  701POPI   C4B10154   7.735   0.447   8.051  0.0726 -0.3873  0.2668
  702POPI    C110155  14.639  10.953   5.772 -0.1614 -0.0292 -0.1558
  702POPI    C210156  14.826  10.631   5.625 -0.1198 -0.0973  0.0425
  702POPI    C310157  14.448  10.709   5.519 -0.1011 -0.1624 -0.0739
  702POPI   PO410158  14.765  10.885   6.048  0.0003 -0.0544  0.1564
  702POPI   GL110159  14.845  11.059   6.406  0.3205 -0.2461 -0.1299
  702POPI   GL210160  15.184  11.083   6.328  0.0011  0.0322  0.2865
  702POPI   C1A10161  14.742  10.939   6.822 -0.2519  0.1688  0.0903
  702POPI   D2A10162  14.532  10.939   7.192  0.0685  0.0967  0.1960
  702POPI   C3A10163  14.583  10.925   7.676 -0.0326  0.0765  0.0895
  702POPI   C4A10164  14.809  11.028   8.010 -0.1402 -0.0995 -0.0325
  702POPI   C1B10165  15.253  11.076   6.806  0.0306 -0.0665 -0.0574
  702POPI   C2B10166  15.454  11.112   7.112 -0.0037  0.2264 -0.1715
  702POPI   C3B10167  15.422  11.179   7.467  0.1943  0.1917  0.0706
  702POPI   C4B10168  15.641  11.198   7.853  0.1078 -0.1682  0.0852
  703POPI    C110169  15.154  16.215   5.934 -0.1251  0.2186 -0.2295
  703POPI    C210170  14.778  16.328   6.011 -0.1722  0.0533 -0.2121
  703POPI    C310171  14.850  16.045   5.738 -0.0721 -0.0307 -0.0996
  703POPI   PO410172  15.226  16.191   6.200 -0.1137 -0.1371 -0.2105
  703POPI   GL110173  15.227  16.379   6.605  0.0171 -0.0698  0.3930
  703POPI   GL210174  15.186  16.707   6.580  0.0432  0.0890 -0.0704
  703POPI   C1A10175  15.391  16.263   6.959 -0.0860  0.1539  0.1593
  703POPI   D2A10176  15.705  16.021   7.264 -0.1212  0.0689 -0.1425
  703POPI   C3A10177  15.477  16.229   7.652  0.2983  0.1500 -0.0306
  703POPI   C4A10178  15.142  16.134   7.956  0.0619 -0.0012 -0.1699
  703POPI   C1B10179  15.152  16.841   6.951 -0.0725 -0.2080  0.1291
  703POPI   C2B10180  15.160  17.010   7.445 -0.1429 -0.1270 -0.0502
  703POPI   C3B10181  15.145  17.155   7.926 -0.3330 -0.0582 -0.2861
  703POPI   C4B10182  15.481  17.069   8.279  0.1232 -0.3053 -0.3208
  704POPI    C110183  13.237   1.718   6.068 -0.1479  0.1674  0.0933
  704POPI    C210184  13.072   1.970   5.806 -0.1227  0.0075 -0.0789
  704POPI    C310185  13.281   1.655   5.675 -0.1720 -0.1152  0.1333
  704POPI   PO410186  13.039   1.607   6.293 -0.0887  0.1785 -0.1035
  704POPI   GL110187  13.162   1.558   6.627 -0.1958 -0.0814  0.1310
  704POPI   GL210188  13.355   1.292   6.537  0.2811 -0.1290  0.0038
  704POPI   C1A10189  13.514   1.790   6.825  0.3176  0.0020  0.0619
  704POPI   D2A10190  13.857   1.884   7.105  0.3687  0.1007 -0.0773
  704POPI   C3A10191  14.211   2.115   7.060 -0.3470  0.0185 -0.1432
  704POPI   C4A10192  14.602   2.120   6.931 -0.1698  0.2363 -0.0338
  704POPI   C1B10193  13.683   1.317   6.842 -0.2184  0.1058 -0.1487
  704POPI   C2B10194  13.974   1.325   7.186  0.2336 -0.0709  0.2031
  704POPI   C3B10195  13.866   1.706   7.578  0.3151  0.0377 -0.1322
  704POPI   C4B10196  13.924   1.932   7.954 -0.1121  0.1273 -0.1980
  705POPI    C110197   5.856   5.973   5.290  0.0138 -0.1265  0.0754
  705POPI    C210198   5.844   5.609   5.123 -0.0209 -0.0206 -0.1577
  705POPI    C310199   6.048   5.904   4.946 -0.1368  0.1195 -0.0613
  705POPI   PO410200   5.827   5.968   5.568  0.2919 -0.4520 -0.2856
  705POPI   GL110201   5.736   5.755   6.022 -0.0642 -0.1132  0.1151
  705POPI   GL210202   5.837   5.408   6.089 -0.4338 -0.1276 -0.0881
  705POPI   C1A10203   5.807   6.101   6.356 -0.0043  0.2863  0.2635
  705POPI   D2A10204   5.968   6.418   6.534  0.0386  0.0396  0.1730
  705POPI   C3A10205   6.012   6.672   6.874  0.0740 -0.0595 -0.2831
  705POPI   C4A10206   6.181   7.044   6.897  0.0127 -0.0847 -0.0924
  705POPI   C1B10207   6.080   5.488   6.442 -0.1064 -0.2886  0.1990
  705POPI   C2B10208   6.175   5.395   6.926 -0.0648 -0.1392 -0.0819
  705POPI   C3B10209   6.018   5.305   7.399 -0.1633 -0.1403 -0.3663
  705POPI   C4B10210   6.149   4.949   7.740  0.0984  0.1915  0.0677
  706POPI    C110211  17.722   8.328   5.485  0.0118 -0.1016  0.0778
  706POPI    C210212  17.766   8.660   5.704 -0.0783  0.0069 -0.0667
  706POPI    C310213  17.400   8.534   5.604 -0.0424 -0.1122 -0.0487
  706POPI   PO410214  17.842   8.092   5.628 -0.2373  0.1226  0.1132
  706POPI   GL110215  18.047   7.888   6.134  0.2760  0.2026 -0.2849
  706POPI   GL210216  17.731   7.720   6.200 -0.0610  0.2253 -0.1374
  706POPI   C1A10217  17.988   7.869   6.595  0.0736  0.0637 -0.2681
  706POPI   D2A10218  18.173   7.973   6.991  0.1093  0.1306  0.1548
  706POPI   C3A10219  17.932   8.186   7.303 -0.0219 -0.1778 -0.1028
  706POPI   C4A10220  17.455   8.290   7.267  0.2015 -0.0055  0.0474
  706POPI   C1B10221  18.079   7.413   6.361  0.2201  0.0900 -0.0158
  706POPI   C2B10222  18.164   7.103   6.653 -0.0436 -0.1267  0.2515
  706POPI   C3B10223  18.239   7.072   7.095 -0.1057  0.1004  0.1333
  706POPI   C4B10224  18.359   6.921   7.574 -0.0169  0.0190  0.2560
  707POPI    C110225   0.777  13.775   5.743 -0.0668  0.1608  0.1169
  707POPI    C210226   0.484  13.923   5.515  0.0122  0.0568 -0.0534
  707POPI    C310227   0.791  13.729   5.346  0.1960  0.1929  0.1206
  707POPI   PO410228   0.945  13.988   5.848  0.0749  0.1381 -0.0029
  707POPI   GL110229   1.030  14.003   6.248  0.0202 -0.2221  0.3297
  707POPI   GL210230   0.708  13.975   6.337  0.1844 -0.0893  0.1474
  707POPI   C1A10231   1.206  14.057   6.589  0.2040 -0.1667 -0.1046
  707POPI   D2A10232   1.562  14.058   6.859  0.0170  0.4376  0.0855
  707POPI   C3A10233   1.749  13.689   7.065  0.1050  0.1392 -0.0564
  707POPI   C4A10234   1.761  13.330   6.998  0.0059 -0.3234  0.1078
  707POPI   C1B10235   0.755  13.839   6.740  0.0727  0.0298 -0.2325
  707POPI   C2B10236   0.599  13.804   7.090  0.1717 -0.0048 -0.0401
  707POPI   C3B10237   0.213  13.708   7.297 -0.1056  0.0148 -0.1641
  707POPI   C4B10238  -0.020  14.003   7.497  0.1132  0.1482 -0.0410
  708POPI    C110239   2.489  17.542   5.848  0.0047  0.1844  0.2471
  708POPI    C210240   2.209  17.650   5.584  0.0749 -0.1061  0.0500
  708POPI    C310241   2.354  17.919   5.842 -0.1001  0.1441 -0.1081
  708POPI   PO410242   2.346  17.326   5.987 -0.0455  0.1885 -0.0174
  708POPI   GL110243   2.164  17.310   6.371 -0.0017  0.2529 -0.0094
  708POPI   GL210244   2.461  17.327   6.576 -0.0515  0.0885 -0.1442
  708POPI   C1A10245   2.167  17.657   6.755 -0.2181  0.1255  0.0240
  708POPI   D2A10246   2.143  17.499   7.089 -0.0729  0.1576  0.1738
  708POPI   C3A10247   2.237  17.738   7.502 -0.2620  0.0208 -0.0739
  708POPI   C4A10248   2.130  18.041   7.906  0.1143  0.0643  0.0312
  708POPI   C1B10249   2.501  17.122   6.972  0.0136  0.0717  0.0208
  708POPI   C2B10250   2.421  17.158   7.311 -0.1490  0.0724  0.1715
  708POPI   C3B10251   2.540  17.257   7.647  0.2248  0.0905  0.2570
  708POPI   C4B10252   2.438  17.539   7.928 -0.2470 -0.0986 -0.0118
  709POPI    C110253  15.135   0.178   6.037  0.2120  0.2971  0.0155
  709POPI    C210254  15.044   0.064   5.664  0.1082  0.2433  0.0569
  709POPI    C310255  14.756   0.090   5.941  0.2233  0.0371  0.1983
  709POPI   PO410256  15.321  -0.019   6.061 -0.2328  0.1656  0.3789
  709POPI   GL110257  15.441  -0.114   6.467 -0.0694 -0.1329  0.0799
  709POPI   GL210258  15.806  -0.166   6.427 -0.0513 -0.0375 -0.0066
  709POPI   C1A10259  15.618   0.117   6.793  0.1276  0.0780  0.1292
  709POPI   D2A10260  15.793   0.203   7.192  0.0448  0.1322  0.0458
  709POPI   C3A10261  15.715  -0.002   7.623  0.1922 -0.0642 -0.1670
  709POPI   C4A10262  15.733  -0.119   8.052 -0.0503  0.0786 -0.1933
  709POPI   C1B10263  15.896  -0.285   6.855 -0.0078  0.0487 -0.4189
  709POPI   C2B10264  15.932  -0.250   7.278 -0.3346  0.2437  0.1692
  709POPI   C3B10265  15.949  -0.584   7.580  0.1267 -0.1196 -0.4041
  709POPI   C4B10266  15.897  -0.643   8.032 -0.1145  0.0977  0.2077
  710POPI    C110267  14.802   6.562   6.096  0.1725 -0.2756  0.0742
  710POPI    C210268  15.105   6.461   5.855  0.0715 -0.4110  0.0029
  710POPI    C310269  14.805   6.687   5.716  0.1939 -0.1831  0.1045
  710POPI   PO410270  14.909   6.740   6.340  0.3968  0.3091 -0.1323
  710POPI   GL110271  14.943   6.808   6.769  0.0925  0.0286 -0.2210
  710POPI   GL210272  15.273   6.701   6.743  0.1738 -0.1102  0.0106
  710POPI   C1A10273  14.894   6.939   7.211  0.2003  0.3004 -0.2561
  710POPI   D2A10274  15.178   6.875   7.595 -0.1221  0.3335  0.3330
  710POPI   C3A10275  15.388   6.585   7.823 -0.2481  0.2764 -0.0494
  710POPI   C4A10276  15.403   6.680   8.306 -0.1247  0.0725  0.0085
  710POPI   C1B10277  15.395   6.768   7.158 -0.1014 -0.1484 -0.1129
  710POPI   C2B10278  15.686   6.888   7.506  0.1550 -0.1806  0.0568
  710POPI   C3B10279  15.744   6.988   7.947 -0.1623 -0.0398  0.0385
  710POPI   C4B10280  15.920   7.056   8.324  0.2681  0.2159  0.0908
  711POPI    C110281  15.803  14.281   6.022  0.0316 -0.0915 -0.2548
  711POPI    C210282  16.163  14.135   6.118  0.0530  0.0275 -0.1515
  711POPI    C310283  16.101  14.291   5.755  0.0996 -0.0122 -0.1766
  711POPI   PO410284  15.685  14.470   6.202 -0.4915  0.1707 -0.1725
  711POPI   GL110285  15.681  14.395   6.574  0.2393  0.2085  0.1302
  711POPI   GL210286  15.967  14.383   6.592  0.1262  0.1537  0.2786
  711POPI   C1A10287  15.700  14.729   6.886  0.3411 -0.0264  0.2695
  711POPI   D2A10288  15.483  14.844   7.286 -0.0286 -0.0669 -0.0766
  711POPI   C3A10289  15.449  15.122   7.535  0.0572 -0.0641 -0.2884
  711POPI   C4A10290  15.657  15.465   7.475  0.2616 -0.0663  0.0687
  711POPI   C1B10291  15.944  14.212   7.054 -0.1201  0.1411 -0.3491
  711POPI   C2B10292  16.070  14.144   7.523  0.0306 -0.0833  0.1163
  711POPI   C3B10293  16.046  13.921   8.012  0.0846 -0.2825 -0.0837
  711POPI   C4B10294  16.172  13.716   8.436  0.0478 -0.1724 -0.1821
  712POPI    C110295   7.012   1.555   5.952  0.3002 -0.1411  0.2110
  712POPI    C210296   6.657   1.702   5.840  0.2049 -0.2597  0.3533
  712POPI    C310297   6.981   1.770   5.616  0.0879 -0.1735  0.2082
  712POPI   PO410298   7.113   1.651   6.257  0.0441  0.3102  0.1088
  712POPI   GL110299   7.120   1.875   6.700  0.1300 -0.1146  0.0435
  712POPI   GL210300   6.822   1.720   6.611 -0.0156 -0.0058 -0.0218
  712POPI   C1A10301   7.038   1.902   7.116 -0.0865 -0.0734 -0.0773
  712POPI   D2A10302   6.972   1.940   7.559  0.0379  0.1207 -0.2523
  712POPI   C3A10303   6.613   2.067   7.853 -0.1521 -0.3375 -0.1615
  712POPI   C4A10304   6.204   2.000   7.892 -0.0043  0.2131  0.0803
  712POPI   C1B10305   6.541   1.807   6.942  0.1423  0.2041  0.3299
  712POPI   C2B10306   6.633   1.663   7.281  0.3626 -0.2127  0.1336
  712POPI   C3B10307   6.528   1.622   7.713  0.1659  0.2615  0.2142
  712POPI   C4B10308   6.148   1.468   7.909 -0.0176  0.2140 -0.1514
  713POPI    C110309   8.051   7.934   5.535 -0.0106 -0.2192 -0.0007
  713POPI    C210310   8.197   7.865   5.169  0.0986 -0.1142  0.0222
  713POPI    C310311   8.207   7.576   5.446 -0.0759 -0.2266 -0.0867
  713POPI   PO410312   7.825   7.992   5.521  0.2279 -0.1629 -0.1972
  713POPI   GL110313   7.671   7.882   5.885  0.1654  0.2526 -0.1779
  713POPI   GL210314   7.777   8.133   6.004 -0.0461 -0.0399 -0.0217
  713POPI   C1A10315   7.736   7.798   6.383 -0.4739  0.0474 -0.0439
  713POPI   D2A10316   7.691   7.797   6.797  0.1928  0.0980  0.0865
  713POPI   C3A10317   8.042   7.631   7.079  0.1063  0.0045 -0.1820
  713POPI   C4A10318   8.363   7.744   7.372 -0.0879  0.0068  0.1094
  713POPI   C1B10319   7.765   8.367   6.361  0.3804 -0.1013 -0.0150
  713POPI   C2B10320   7.802   8.305   6.767 -0.2632 -0.2755 -0.1570
  713POPI   C3B10321   7.701   8.068   7.207  0.1587  0.1901  0.0871
  713POPI   C4B10322   7.783   7.692   7.530 -0.2002  0.1231  0.0418
  714POPI    C110323   7.897   0.005   5.979  0.0148 -0.0575  0.1591
  714POPI    C210324   8.002  -0.381   5.994  0.1574 -0.0300 -0.0789
  714POPI    C310325   7.956  -0.200   5.640 -0.1938  0.0961  0.0277
  714POPI   PO410326   7.756  -0.018   6.266 -0.3103 -0.1816 -0.0949
  714POPI   GL110327   7.757  -0.299   6.484  0.0272 -0.3528  0.0846
  714POPI   GL210328   8.054  -0.121   6.696  0.0469 -0.0093 -0.0422
  714POPI   C1A10329   7.615  -0.468   6.802  0.1944 -0.1775  0.0639
  714POPI   D2A10330   7.498  -0.421   7.252  0.3125 -0.1359 -0.0093
  714POPI   C3A10331   7.285  -0.222   7.640 -0.0367  0.0022 -0.1411
  714POPI   C4A10332   7.407   0.010   8.028  0.3175 -0.0570 -0.1409
  714POPI   C1B10333   8.066  -0.309   7.111  0.3154  0.2480  0.2096
  714POPI   C2B10334   7.903  -0.497   7.575  0.0774  0.2200 -0.1622
  714POPI   C3B10335   7.502  -0.695   7.814  0.0411 -0.0093 -0.3369
  714POPI   C4B10336   7.277  -0.959   8.117 -0.0068 -0.4179  0.1643
  715POPI    C110337  14.765   8.473   5.881 -0.0482  0.1195  0.0531
  715POPI    C210338  15.122   8.453   5.702  0.0713  0.0059  0.2984
  715POPI    C310339  14.924   8.800   5.715 -0.0296 -0.0241 -0.2169
  715POPI   PO410340  14.859   8.278   6.151  0.1083 -0.1808 -0.0930
  715POPI   GL110341  15.043   8.247   6.503  0.3346 -0.1047 -0.3111
  715POPI   GL210342  14.872   8.417   6.679  0.3554 -0.0584 -0.3282
  715POPI   C1A10343  15.255   8.080   6.860  0.1151  0.1429 -0.1099
  715POPI   D2A10344  15.333   7.785   7.099  0.0770 -0.3317  0.1961
  715POPI   C3A10345  15.314   7.796   7.519 -0.2756  0.0093  0.0715
  715POPI   C4A10346  15.573   7.851   7.858 -0.2469 -0.1198 -0.1617
  715POPI   C1B10347  15.127   8.500   7.083 -0.2131  0.0191 -0.1206
  715POPI   C2B10348  15.365   8.361   7.376  0.0204  0.0723  0.1794
  715POPI   C3B10349  15.599   8.419   7.780 -0.1556 -0.1949 -0.0326
  715POPI   C4B10350  15.593   8.667   8.193 -0.2981 -0.0774 -0.1891
  716POPI    C110351  15.087   9.141   6.012 -0.0050  0.1070 -0.1661
  716POPI    C210352  15.442   9.102   6.192 -0.1226 -0.0716  0.0332
  716POPI    C310353  15.423   9.225   5.811  0.1387  0.1465  0.0872
  716POPI   PO410354  14.870   9.256   6.230  0.1344 -0.0698  0.0695
  716POPI   GL110355  14.977   9.466   6.601  0.1360 -0.0100  0.2335
  716POPI   GL210356  14.723   9.303   6.685 -0.1890  0.0133  0.1141
  716POPI   C1A10357  15.001   9.665   6.991  0.1799  0.1533 -0.0532
  716POPI   D2A10358  15.403   9.588   7.186  0.1563 -0.1241  0.1886
  716POPI   C3A10359  15.619   9.248   7.211  0.1658  0.1155  0.0116
  716POPI   C4A10360  15.614   8.866   7.093 -0.4148  0.0969  0.0641
  716POPI   C1B10361  14.540   9.490   7.153 -0.1168 -0.1425 -0.1543
  716POPI   C2B10362  14.673   9.850   7.401  0.1896 -0.0342  0.3966
  716POPI   C3B10363  14.643   9.976   7.810 -0.0187 -0.1270  0.0145
  716POPI   C4B10364  14.457  10.132   8.130  0.0353  0.1301 -0.1744
  717POPI    C110365  10.035  11.967   5.915  0.2902 -0.0258 -0.0537
  717POPI    C210366  10.174  12.018   5.543  0.1942  0.2263 -0.0569
  717POPI    C310367   9.802  12.133   5.635  0.2096  0.1434  0.1116
  717POPI   PO410368  10.252  11.975   6.085  0.0568  0.0099 -0.1413
  717POPI   GL110369  10.252  11.616   6.331  0.1450  0.2371  0.1524
  717POPI   GL210370   9.910  11.455   6.240 -0.1744 -0.1602 -0.1548
  717POPI   C1A10371  10.192  11.809   6.748  0.2606  0.1449  0.0511
  717POPI   D2A10372  10.073  12.166   6.929  0.3489  0.1394 -0.1921
  717POPI   C3A10373   9.809  12.359   7.327  0.4642 -0.1364 -0.1046
  717POPI   C4A10374   9.702  12.352   7.741  0.0671 -0.2984 -0.0035
  717POPI   C1B10375   9.860  11.476   6.637  0.0815  0.0665  0.1447
  717POPI   C2B10376   9.924  11.458   7.031 -0.1843  0.1771 -0.0713
  717POPI   C3B10377   9.983  11.684   7.412  0.1554 -0.0207 -0.1370
  717POPI   C4B10378  10.085  11.659   7.819 -0.0144 -0.0857  0.4339
  718POPI    C110379  13.070  13.847   6.317  0.1453  0.0656  0.4110
  718POPI    C210380  12.939  14.223   6.283  0.1955  0.0455 -0.0894
  718POPI    C310381  12.684  13.917   6.240  0.1880  0.0172  0.1415
  718POPI   PO410382  13.207  13.815   6.540  0.0737  0.1324  0.1748
  718POPI   GL110383  13.450  13.705   6.862  0.1781 -0.0333 -0.0611
  718POPI   GL210384  13.273  13.472   6.882 -0.2211 -0.0933  0.0596
  718POPI   C1A10385  13.889  13.837   6.969 -0.1018 -0.1696  0.0968
  718POPI   D2A10386  14.270  14.013   7.123  0.1332 -0.0275  0.3402
  718POPI   C3A10387  14.209  13.817   7.418 -0.1139 -0.0062  0.2742
  718POPI   C4A10388  14.371  13.796   7.798 -0.0128  0.0183  0.0405
  718POPI   C1B10389  13.276  13.534   7.365 -0.0039 -0.0507 -0.2024
  718POPI   C2B10390  13.220  13.543   7.861 -0.1373  0.1536  0.0215
  718POPI   C3B10391  13.007  13.513   8.241 -0.1571 -0.0395  0.0722
  718POPI   C4B10392  12.604  13.609   8.475  0.2483 -0.0276 -0.0358
  719POPI    C110393  10.774  16.480   6.246  0.0712 -0.1985 -0.0348
  719POPI    C210394  10.684  16.357   5.876 -0.1423 -0.0828 -0.0230
  719POPI    C310395  10.544  16.157   6.193  0.0368 -0.1793 -0.0038
  719POPI   PO410396  11.083  16.490   6.277  0.2972 -0.0801  0.1378
  719POPI   GL110397  11.409  16.545   6.601 -0.1780  0.2342  0.0992
  719POPI   GL210398  11.517  16.267   6.696 -0.3585 -0.1399  0.1358
  719POPI   C1A10399  11.324  16.609   7.041  0.2141  0.0124  0.0372
  719POPI   D2A10400  11.214  16.634   7.448 -0.0463  0.1022  0.3173
  719POPI   C3A10401  10.854  16.789   7.625  0.1936 -0.1984 -0.0548
  719POPI   C4A10402  10.612  16.852   8.018  0.0434 -0.0904 -0.1128
  719POPI   C1B10403  11.395  16.134   7.013 -0.2152 -0.2477  0.2532
  719POPI   C2B10404  11.535  16.157   7.426  0.0197  0.0506 -0.0628
  719POPI   C3B10405  11.499  16.239   7.924  0.0116  0.3165 -0.0236
  719POPI   C4B10406  11.496  16.679   8.090 -0.2654  0.3170  0.0076
  720POPI    C110407  11.237  10.682   6.181  0.0357  0.0678  0.0002
  720POPI    C210408  11.520  10.737   5.904 -0.0153 -0.0983 -0.0864
  720POPI    C310409  11.144  10.855   5.833 -0.0313 -0.1542 -0.0941
  720POPI   PO410410  11.343  10.492   6.327  0.2747  0.1928 -0.1647
  720POPI   GL110411  11.361  10.485   6.812  0.3909 -0.3055 -0.0549
  720POPI   GL210412  11.480  10.851   6.735 -0.1743  0.0382 -0.1994
  720POPI   C1A10413  11.229  10.499   7.214  0.1280 -0.3830 -0.0885
  720POPI   D2A10414  11.191  10.857   7.555  0.0422  0.0004 -0.1372
  720POPI   C3A10415  10.859  10.831   7.773 -0.1133  0.1354 -0.0410
  720POPI   C4A10416  10.802  10.778   8.158  0.1420  0.0906 -0.0750
  720POPI   C1B10417  11.651  10.989   7.113  0.1383 -0.1750  0.0620
  720POPI   C2B10418  11.705  10.946   7.531  0.0070 -0.3802  0.0412
  720POPI   C3B10419  11.882  10.982   7.997  0.1383 -0.1228 -0.0313
  720POPI   C4B10420  11.757  11.056   8.443  0.3024 -0.2912  0.0007
  721POPI    C110421  16.914  16.375   5.900 -0.1010 -0.2444  0.1646
  721POPI    C210422  17.083  16.045   5.752  0.0143 -0.3067  0.4281
  721POPI    C310423  16.696  16.119   5.685  0.1096 -0.2255 -0.0757
  721POPI   PO410424  16.927  16.338   6.141 -0.0864  0.0049  0.1728
  721POPI   GL110425  16.942  16.335   6.548  0.3267  0.4197 -0.0931
  721POPI   GL210426  16.873  16.124   6.697 -0.1211  0.1982  0.1535
  721POPI   C1A10427  16.829  16.610   6.981 -0.1214  0.3220  0.1249
  721POPI   D2A10428  16.606  16.625   7.349  0.0168 -0.2148  0.0750
  721POPI   C3A10429  16.402  16.522   7.726  0.0621  0.3912  0.4453
  721POPI   C4A10430  16.462  16.573   8.141 -0.1899  0.2073 -0.0820
  721POPI   C1B10431  16.707  16.149   7.138  0.2935 -0.0921  0.0980
  721POPI   C2B10432  16.852  16.184   7.521 -0.1228  0.2883  0.0410
  721POPI   C3B10433  16.795  16.254   7.981 -0.1862  0.0813  0.2529
  721POPI   C4B10434  16.974  16.643   8.037  0.1522 -0.1441 -0.2025
  722POPI    C110435   1.585   0.034   5.926 -0.1627  0.3207 -0.0841
  722POPI    C210436   1.627   0.350   5.684  0.0418  0.2536 -0.1390
  722POPI    C310437   1.307   0.112   5.650 -0.0947  0.4330 -0.1216
  722POPI   PO410438   1.509   0.133   6.208 -0.3539  0.1040  0.2660
  722POPI   GL110439   1.675   0.291   6.544  0.0707 -0.0297 -0.1277
  722POPI   GL210440   1.803   0.014   6.671 -0.4269 -0.3980  0.2468
  722POPI   C1A10441   1.360   0.244   6.905  0.2150 -0.1562 -0.1531
  722POPI   D2A10442   1.192   0.284   7.331  0.1815 -0.0330  0.1460
  722POPI   C3A10443   1.078   0.275   7.797 -0.4117 -0.0057 -0.1634
  722POPI   C4A10444   1.292  -0.048   7.939  0.0370  0.0912  0.0898
  722POPI   C1B10445   1.761  -0.032   7.167  0.1836  0.1354  0.1950
  722POPI   C2B10446   1.666   0.018   7.540  0.1355  0.2778 -0.0659
  722POPI   C3B10447   1.611   0.294   7.808  0.1201  0.1627  0.0246
  722POPI   C4B10448   1.354   0.574   8.105  0.2307 -0.1328  0.0629
  723POPI    C110449   0.134  14.821   5.689 -0.1855 -0.0898 -0.0439
  723POPI    C210450   0.398  14.948   5.416 -0.0219  0.0602  0.1807
  723POPI    C310451   0.013  15.054   5.388 -0.0562 -0.1380 -0.1343
  723POPI   PO410452   0.311  14.762   5.969 -0.0995 -0.2483  0.1058
  723POPI   GL110453   0.645  14.563   6.246  0.2397  0.0432 -0.0308
  723POPI   GL210454   0.739  14.851   6.198 -0.1209  0.1980  0.1335
  723POPI   C1A10455   0.741  14.327   6.674 -0.0534 -0.1445  0.0778
  723POPI   D2A10456   1.020  14.255   7.092  0.1731  0.1173 -0.1310
  723POPI   C3A10457   0.958  14.262   7.462  0.0383  0.0362 -0.0696
  723POPI   C4A10458   1.150  14.190   7.775 -0.2491  0.1356 -0.2755
  723POPI   C1B10459   0.889  14.828   6.578  0.0261  0.0699  0.5181
  723POPI   C2B10460   0.965  14.737   7.031  0.2153 -0.1583  0.2705
  723POPI   C3B10461   0.725  14.636   7.337 -0.0043  0.3028  0.0707
  723POPI   C4B10462   0.758  14.470   7.828 -0.1304 -0.0685  0.0542
  724POPI    C110463  15.574   2.189   5.692  0.0601 -0.2106 -0.0886
  724POPI    C210464  15.965   2.253   5.742 -0.0450  0.3474  0.0873
  724POPI    C310465  15.800   2.298   5.380  0.0649  0.0134 -0.0083
  724POPI   PO410466  15.529   1.888   5.879  0.2419  0.2669 -0.0011
  724POPI   GL110467  15.449   1.899   6.221  0.2060  0.0101  0.0582
  724POPI   GL210468  15.345   2.074   6.472 -0.0554 -0.0525  0.1724
  724POPI   C1A10469  15.474   1.589   6.540  0.1137 -0.0490  0.0538
  724POPI   D2A10470  15.541   1.538   6.967 -0.1500 -0.4019 -0.0237
  724POPI   C3A10471  15.370   1.720   7.337  0.2589  0.1069 -0.0681
  724POPI   C4A10472  15.245   1.879   7.708  0.0927 -0.2992 -0.2854
  724POPI   C1B10473  15.550   1.994   6.806 -0.2193  0.0563 -0.0143
  724POPI   C2B10474  15.795   1.923   7.182  0.4073  0.0550 -0.1050
  724POPI   C3B10475  15.913   1.521   7.293 -0.0968  0.4875  0.1960
  724POPI   C4B10476  15.960   1.267   7.771 -0.0823 -0.0331  0.3309
  725POPI    C110477  16.484   6.480   5.815  0.0590 -0.0458 -0.0225
  725POPI    C210478  16.728   6.314   5.545  0.0053 -0.1167 -0.0280
  725POPI    C310479  16.344   6.204   5.561 -0.0311  0.0087 -0.0322
  725POPI   PO410480  16.616   6.412   6.086  0.0719 -0.1593  0.0701
  725POPI   GL110481  16.659   6.474   6.622 -0.0371  0.1932  0.1240
  725POPI   GL210482  16.272   6.649   6.630 -0.0993 -0.2943 -0.1494
  725POPI   C1A10483  16.757   6.468   6.988 -0.2844  0.2506  0.2776
  725POPI   D2A10484  16.916   6.486   7.436 -0.0195 -0.1024 -0.0648
  725POPI   C3A10485  16.920   6.096   7.688  0.1852  0.0255 -0.0431
  725POPI   C4A10486  17.285   5.959   7.807  0.1183 -0.1134 -0.0174
  725POPI   C1B10487  16.301   6.801   7.070  0.0799 -0.3446 -0.2189
  725POPI   C2B10488  16.173   6.831   7.420  0.0590  0.0721  0.1331
  725POPI   C3B10489  16.046   6.588   7.760  0.3359  0.0712  0.0830
  725POPI   C4B10490  15.823   6.533   8.159  0.0968 -0.0108  0.1935
  726POPI    C110491   2.839  17.939   5.750  0.4386 -0.1880 -0.0144
  726POPI    C210492   2.742  18.324   5.798 -0.1990 -0.3312 -0.0587
  726POPI    C310493   2.987  18.215   5.502  0.0441  0.0430 -0.0019
  726POPI   PO410494   2.868  17.843   6.075  0.2888  0.4100  0.2876
  726POPI   GL110495   2.889  17.852   6.504  0.2075  0.0094 -0.2572
  726POPI   GL210496   2.696  17.779   6.759 -0.1546  0.1385  0.1573
  726POPI   C1A10497   3.270  17.920   6.798 -0.2940 -0.2450 -0.1598
  726POPI   D2A10498   3.457  18.299   7.114  0.0109  0.0699 -0.0037
  726POPI   C3A10499   3.659  18.451   7.513 -0.2480 -0.0444 -0.2620
  726POPI   C4A10500   3.612  18.670   7.906 -0.0176 -0.1346  0.0022
  726POPI   C1B10501   2.655  17.753   7.197 -0.2098  0.0024 -0.1164
  726POPI   C2B10502   2.764  17.717   7.576  0.0097 -0.1921  0.1732
  726POPI   C3B10503   2.790  17.937   7.863  0.0240 -0.1016 -0.1360
  726POPI   C4B10504   2.906  18.478   7.959 -0.3363  0.2626  0.1794
  727POPI    C110505   8.586   4.839   5.867 -0.0133  0.1655  0.0819
  727POPI    C210506   8.962   4.943   5.955  0.0028  0.0444  0.1591
  727POPI    C310507   8.885   4.732   5.624  0.0066  0.0432  0.1590
  727POPI   PO410508   8.505   4.570   6.020 -0.4024  0.2399  0.1187
  727POPI   GL110509   8.355   4.576   6.473  0.0216 -0.1924 -0.1568
  727POPI   GL210510   8.423   4.512   6.729 -0.0488  0.4406 -0.2219
  727POPI   C1A10511   8.517   4.955   6.655  0.0383 -0.0166 -0.0731
  727POPI   D2A10512   8.962   5.092   6.884 -0.1846 -0.1853 -0.1323
  727POPI   C3A10513   8.891   5.181   7.226  0.2947 -0.1165 -0.0036
  727POPI   C4A10514   8.974   5.248   7.757  0.0311  0.0292  0.0741
  727POPI   C1B10515   8.542   4.782   7.139 -0.0772  0.0350 -0.0873
  727POPI   C2B10516   8.532   4.859   7.542 -0.2104 -0.2409 -0.1494
  727POPI   C3B10517   8.548   4.982   7.974  0.0535  0.0625  0.0035
  727POPI   C4B10518   8.352   5.092   8.362 -0.1355 -0.0983 -0.1977
  728POPI    C110519  16.771   7.409   5.882 -0.1214 -0.1729  0.1551
  728POPI    C210520  16.437   7.209   5.790 -0.0424 -0.3006  0.1425
  728POPI    C310521  16.780   7.121   5.604 -0.0251 -0.0910  0.0726
  728POPI   PO410522  16.720   7.435   6.215 -0.2129  0.1019  0.1594
  728POPI   GL110523  17.046   7.127   6.444  0.2911  0.1922  0.0252
  728POPI   GL210524  17.381   7.266   6.384 -0.1859  0.0869 -0.4187
  728POPI   C1A10525  17.183   7.290   6.900  0.1069 -0.0965 -0.1483
  728POPI   D2A10526  17.477   7.468   7.278  0.3823 -0.1242 -0.0859
  728POPI   C3A10527  17.681   7.821   7.090 -0.0336  0.0025  0.1359
  728POPI   C4A10528  17.658   8.118   6.857  0.1828  0.0141 -0.2238
  728POPI   C1B10529  17.618   7.486   6.653  0.0289  0.5298  0.2310
  728POPI   C2B10530  18.044   7.464   6.919  0.5794 -0.2620  0.1459
  728POPI   C3B10531  18.127   7.484   7.321 -0.2413  0.1123  0.0532
  728POPI   C4B10532  18.479   7.380   7.655 -0.0068 -0.1579 -0.0082
  729POPI    C110533   3.173  17.088   5.875  0.0082 -0.2351 -0.3859
  729POPI    C210534   2.992  17.434   5.788  0.0633 -0.0834  0.0745
  729POPI    C310535   3.180  17.229   5.501 -0.3796  0.0222 -0.3023
  729POPI   PO410536   3.249  17.120   6.145  0.1377  0.3740 -0.3014
  729POPI   GL110537   3.154  16.958   6.543  0.0287 -0.0375 -0.0384
  729POPI   GL210538   2.829  17.066   6.645 -0.3100 -0.1151 -0.0896
  729POPI   C1A10539   3.116  16.866   6.978 -0.0537 -0.0601  0.0987
  729POPI   D2A10540   3.075  16.659   7.351  0.2545 -0.2196  0.2479
  729POPI   C3A10541   2.848  16.708   7.599  0.3156 -0.2897 -0.3953
  729POPI   C4A10542   2.568  16.789   7.904 -0.0239 -0.1787  0.0252
  729POPI   C1B10543   2.741  16.636   6.896  0.1852 -0.0378  0.1101
  729POPI   C2B10544   2.468  16.669   7.308  0.1089  0.1148 -0.2582
  729POPI   C3B10545   2.124  16.745   7.573 -0.1293 -0.0843  0.1889
  729POPI   C4B10546   1.702  16.434   7.676 -0.0177  0.0906  0.0111
  730POPI    C110547  12.710   9.523   6.146 -0.1537  0.0741  0.1174
  730POPI    C210548  12.795   9.623   5.768 -0.1129 -0.1749  0.0592
  730POPI    C310549  13.048   9.393   5.976 -0.2379 -0.2162  0.1668
  730POPI   PO410550  12.666   9.789   6.231  0.4482 -0.2768 -0.2846
  730POPI   GL110551  12.565   9.779   6.714  0.0232 -0.0088  0.3346
  730POPI   GL210552  12.870   9.661   6.843  0.0247 -0.2188  0.3372
  730POPI   C1A10553  12.298   9.711   7.076  0.2770 -0.2445 -0.0648
  730POPI   D2A10554  12.330   9.638   7.377  0.6201  0.0968 -0.0143
  730POPI   C3A10555  12.482   9.467   7.718 -0.2438  0.1898  0.1778
  730POPI   C4A10556  12.769   9.075   7.723  0.3999  0.0843 -0.2245
  730POPI   C1B10557  12.834   9.413   7.255  0.1547 -0.0894  0.0471
  730POPI   C2B10558  12.964   9.479   7.678  0.2556  0.0221 -0.1117
  730POPI   C3B10559  12.814   9.643   8.055  0.1024 -0.3589 -0.1959
  730POPI   C4B10560  13.068   9.647   8.479 -0.1783  0.2126 -0.0987
  731POPI    C110561  17.686   9.180   5.881 -0.0806 -0.1294  0.1694
  731POPI    C210562  17.914   9.112   5.559 -0.1119 -0.0774  0.1360
  731POPI    C310563  17.694   9.445   5.581 -0.1398 -0.0994  0.1941
  731POPI   PO410564  17.849   9.017   6.132 -0.2349 -0.1731 -0.0114
  731POPI   GL110565  18.036   8.691   6.351 -0.0438  0.1557  0.1476
  731POPI   GL210566  17.774   8.450   6.477 -0.0707 -0.2574  0.0202
  731POPI   C1A10567  18.045   8.934   6.708 -0.2487 -0.0456 -0.0076
  731POPI   D2A10568  18.410   8.917   7.062 -0.1512  0.2401  0.2335
  731POPI   C3A10569  18.560   8.677   7.360  0.1329 -0.1376 -0.1471
  731POPI   C4A10570  18.554   8.422   7.717  0.2626 -0.1260  0.3501
  731POPI   C1B10571  17.656   8.630   6.879  0.1015  0.0342  0.0132
  731POPI   C2B10572  17.598   8.799   7.162 -0.1718 -0.1298 -0.0921
  731POPI   C3B10573  17.698   8.986   7.620 -0.0194 -0.0123 -0.1736
  731POPI   C4B10574  17.866   9.232   7.869 -0.3359 -0.0962 -0.2620
  732POPI    C110575  10.382  12.437   5.816 -0.3947  0.1898 -0.0914
  732POPI    C210576  10.744  12.495   5.656 -0.2760  0.0225  0.1101
  732POPI    C310577  10.437  12.384   5.424 -0.1529 -0.0252 -0.0312
  732POPI   PO410578  10.426  12.562   6.039  0.0854 -0.0621 -0.2006
  732POPI   GL110579  10.281  12.668   6.481 -0.0797 -0.1498  0.0924
  732POPI   GL210580  10.187  12.863   6.659  0.0347  0.1532  0.3283
  732POPI   C1A10581  10.394  12.552   6.924  0.0524  0.0772 -0.2843
  732POPI   D2A10582  10.409  12.459   7.336  0.0181 -0.0676  0.1151
  732POPI   C3A10583  10.576  12.513   7.645  0.1377 -0.0102  0.1370
  732POPI   C4A10584  10.656  12.395   8.036 -0.1332 -0.0404  0.0382
  732POPI   C1B10585   9.940  12.765   6.995  0.0202  0.0430  0.1476
  732POPI   C2B10586  10.042  12.863   7.371  0.1414  0.2341 -0.0885
  732POPI   C3B10587   9.936  12.840   7.787 -0.4142  0.1007 -0.1787
  732POPI   C4B10588  10.116  12.539   8.099 -0.0597 -0.0101 -0.0385
  733POPI    C110589   9.819  15.664   6.589 -0.0053 -0.1467 -0.1701
  733POPI    C210590   9.630  15.421   6.334 -0.1819 -0.1752 -0.0139
  733POPI    C310591   9.451  15.755   6.462 -0.0230 -0.0695 -0.0647
  733POPI   PO410592  10.111  15.796   6.417  0.2267 -0.0493  0.1563
  733POPI   GL110593  10.499  15.862   6.692  0.1433 -0.2115 -0.0508
  733POPI   GL210594  10.612  15.651   6.458  0.1403  0.0732 -0.0139
  733POPI   C1A10595  10.449  15.829   7.171 -0.2081 -0.1255 -0.1839
  733POPI   D2A10596  10.503  15.982   7.456  0.2000 -0.2650  0.0116
  733POPI   C3A10597  10.542  15.923   7.882  0.1586  0.1636 -0.2031
  733POPI   C4A10598  10.430  15.806   8.310  0.3052  0.0466  0.0197
  733POPI   C1B10599  10.731  15.491   6.904 -0.0477  0.0274 -0.1678
  733POPI   C2B10600  10.975  15.651   7.177  0.2658 -0.2222 -0.1177
  733POPI   C3B10601  10.929  15.765   7.595  0.1677 -0.4539 -0.2394
  733POPI   C4B10602  11.201  15.872   7.912  0.0622 -0.2312 -0.2526
  734POPI    C110603   4.324  12.412   5.415 -0.2417  0.0892 -0.0484
  734POPI    C210604   4.318  12.309   5.029  0.3033 -0.0796 -0.0211
  734POPI    C310605   4.545  12.615   5.151  0.0960  0.0043  0.1607
  734POPI   PO410606   4.477  12.227   5.550  0.1184  0.0250 -0.2414
  734POPI   GL110607   4.552  12.110   5.998  0.0522  0.2897  0.2646
  734POPI   GL210608   4.527  12.477   6.105 -0.3143 -0.1710 -0.0547
  734POPI   C1A10609   4.224  12.032   6.299  0.1221  0.3516  0.0370
  734POPI   D2A10610   4.164  12.138   6.673  0.0132  0.2299  0.1249
  734POPI   C3A10611   3.797  12.114   7.046  0.0270  0.1216  0.1653
  734POPI   C4A10612   3.462  11.766   7.124 -0.1811 -0.0922  0.0082
  734POPI   C1B10613   4.507  12.394   6.517  0.1057 -0.1865 -0.0685
  734POPI   C2B10614   4.634  12.418   6.962  0.2692 -0.1547 -0.2118
  734POPI   C3B10615   4.925  12.586   7.275 -0.2420 -0.4735  0.0761
  734POPI   C4B10616   5.265  12.750   7.415 -0.0784 -0.3183 -0.3135
  735POPI    C110617  13.052   8.958   6.302 -0.0557 -0.0035 -0.0426
  735POPI    C210618  12.819   8.699   6.105  0.1646 -0.1878 -0.0659
  735POPI    C310619  13.102   8.903   5.909  0.1597 -0.1181 -0.0011
  735POPI   PO410620  12.932   9.143   6.374 -0.1226  0.1293 -0.1380
  735POPI   GL110621  12.673   9.163   6.805  0.3311  0.0292  0.2115
  735POPI   GL210622  12.786   8.769   6.729 -0.0210  0.1308  0.3506
  735POPI   C1A10623  12.723   8.944   7.185 -0.2067  0.0428 -0.0133
  735POPI   D2A10624  12.710   8.608   7.532  0.2355  0.1695 -0.0076
  735POPI   C3A10625  12.968   8.720   7.997  0.1582 -0.2875  0.0276
  735POPI   C4A10626  12.972   8.739   8.474 -0.1014  0.1631  0.2221
  735POPI   C1B10627  12.656   8.418   6.974  0.0262  0.0034 -0.1594
  735POPI   C2B10628  12.941   8.207   7.288  0.0053  0.2406  0.0921
  735POPI   C3B10629  12.984   8.211   7.739 -0.1887  0.1413  0.1856
  735POPI   C4B10630  13.115   8.283   8.199  0.0754  0.0068  0.0259
  736POPI    C110631   8.203   4.186   5.866 -0.1809  0.0072 -0.0650
  736POPI    C210632   8.058   4.188   5.493 -0.3699  0.1148  0.0079
  736POPI    C310633   8.183   4.529   5.661 -0.0223  0.0223 -0.0561
  736POPI   PO410634   8.028   4.034   5.969 -0.0221 -0.1230  0.2039
  736POPI   GL110635   8.011   4.061   6.361 -0.2724 -0.1899 -0.0304
  736POPI   GL210636   8.033   3.716   6.450  0.1180  0.2607  0.1935
  736POPI   C1A10637   7.568   3.846   6.620 -0.1180 -0.5355  0.0139
  736POPI   D2A10638   7.469   3.922   6.983 -0.3187  0.1924  0.4408
  736POPI   C3A10639   7.783   4.031   7.285 -0.0174  0.2931  0.1004
  736POPI   C4A10640   8.099   3.936   7.577  0.0701 -0.1899 -0.0074
  736POPI   C1B10641   7.895   3.625   6.925  0.0486  0.0866  0.3047
  736POPI   C2B10642   7.905   3.505   7.408  0.2610  0.4582 -0.2343
  736POPI   C3B10643   7.634   3.763   7.775  0.0050 -0.0496 -0.5675
  736POPI   C4B10644   7.419   3.737   8.178 -0.2639  0.1832 -0.0297
  737POPI    C110645  13.670  12.426   6.353 -0.1007 -0.2398  0.0074
  737POPI    C210646  13.319  12.404   6.162 -0.0277 -0.1480 -0.1395
  737POPI    C310647  13.636  12.566   5.980  0.0142  0.0474  0.1021
  737POPI   PO410648  13.571  12.550   6.553  0.1186 -0.0176 -0.0337
  737POPI   GL110649  13.493  12.487   7.020  0.0021 -0.1759  0.1664
  737POPI   GL210650  13.201  12.491   6.861  0.0958  0.1906  0.3143
  737POPI   C1A10651  13.453  12.586   7.445  0.1912  0.1526  0.1469
  737POPI   D2A10652  13.563  12.677   7.764 -0.3781  0.2787 -0.0926
  737POPI   C3A10653  13.516  12.389   7.985  0.2180  0.0984 -0.1325
  737POPI   C4A10654  13.316  12.194   8.336  0.0603  0.2687 -0.1795
  737POPI   C1B10655  13.108  12.356   7.240  0.0571  0.0417 -0.3369
  737POPI   C2B10656  13.047  12.512   7.690 -0.1439  0.1296 -0.0296
  737POPI   C3B10657  12.906  12.339   8.059 -0.2955  0.2456  0.0227
  737POPI   C4B10658  12.470  12.278   8.202  0.3204  0.2086  0.0757
  738POPI    C110659  10.114   3.214   6.215 -0.1788 -0.0684 -0.1031
  738POPI    C210660  10.450   3.298   6.014 -0.0835  0.1902  0.1566
  738POPI    C310661  10.109   3.232   5.815  0.1162 -0.0672 -0.1090
  738POPI   PO410662  10.136   2.985   6.319 -0.0042 -0.3148 -0.1342
  738POPI   GL110663  10.318   2.895   6.732  0.0592 -0.0332  0.3484
  738POPI   GL210664  10.201   3.256   6.804  0.0792 -0.2677  0.1040
  738POPI   C1A10665  10.357   2.905   7.154 -0.2350 -0.5197  0.2725
  738POPI   D2A10666  10.310   2.891   7.662  0.0161  0.0025 -0.0878
  738POPI   C3A10667  10.443   3.310   7.958  0.0675  0.4313 -0.0694
  738POPI   C4A10668  10.500   3.565   8.238  0.0785  0.3278 -0.1922
  738POPI   C1B10669  10.205   3.389   7.167 -0.0240  0.1890  0.0790
  738POPI   C2B10670  10.098   3.405   7.591  0.1160 -0.1519  0.0411
  738POPI   C3B10671   9.891   3.465   7.977 -0.0844 -0.0831 -0.0373
  738POPI   C4B10672  10.034   3.699   8.278 -0.0854 -0.0315  0.1329
  739POPI    C110673   7.403   6.192   5.976 -0.2835  0.1145 -0.0383
  739POPI    C210674   7.367   6.297   5.592  0.1967  0.0100 -0.1191
  739POPI    C310675   7.715   6.349   5.781 -0.0323  0.0526  0.3039
  739POPI   PO410676   7.253   5.962   5.959 -0.0879 -0.0997 -0.3313
  739POPI   GL110677   6.862   6.076   6.255 -0.3622 -0.2299 -0.1915
  739POPI   GL210678   6.725   5.764   6.261  0.3723  0.3459 -0.2634
  739POPI   C1A10679   6.940   6.513   6.476  0.3917  0.0321  0.1061
  739POPI   D2A10680   6.899   6.782   6.825  0.2894  0.0448  0.0107
  739POPI   C3A10681   6.769   6.524   7.176 -0.0923  0.0758 -0.3039
  739POPI   C4A10682   6.660   6.200   7.455  0.0369 -0.1182 -0.0297
  739POPI   C1B10683   6.687   5.858   6.694 -0.0595  0.0219 -0.0728
  739POPI   C2B10684   6.548   5.826   7.068  0.3696 -0.1824  0.1325
  739POPI   C3B10685   6.286   5.728   7.463  0.3451  0.3155 -0.1704
  739POPI   C4B10686   5.998   5.827   7.731 -0.1232 -0.1943 -0.0060
  740POPI    C110687   3.629   3.828   5.786 -0.0270 -0.0336  0.1724
  740POPI    C210688   3.566   3.973   5.419  0.0331 -0.0371  0.1606
  740POPI    C310689   3.687   4.217   5.712 -0.1706 -0.0027  0.2178
  740POPI   PO410690   3.447   3.653   5.778  0.0016 -0.2744 -0.2424
  740POPI   GL110691   3.056   3.411   6.012  0.0735  0.1362 -0.3750
  740POPI   GL210692   3.012   3.695   6.063 -0.1103 -0.1836  0.1040
  740POPI   C1A10693   3.343   3.381   6.317 -0.0695  0.2473 -0.0323
  740POPI   D2A10694   3.581   3.204   6.686  0.0900  0.1989  0.0410
  740POPI   C3A10695   3.380   3.206   7.053  0.0275 -0.2334 -0.0475
  740POPI   C4A10696   3.518   3.262   7.546  0.0274  0.1040 -0.1292
  740POPI   C1B10697   2.948   3.696   6.512  0.2082  0.1371  0.1844
  740POPI   C2B10698   3.050   3.620   6.844  0.2093 -0.0269 -0.1852
  740POPI   C3B10699   3.090   3.554   7.253 -0.0026  0.3538  0.1509
  740POPI   C4B10700   2.905   3.793   7.531 -0.2764 -0.1334  0.1494
  741POPI    C110701   1.740  12.946   5.507  0.0050 -0.0966 -0.0343
  741POPI    C210702   1.591  12.612   5.346  0.0464 -0.0921 -0.0826
  741POPI    C310703   1.979  12.632   5.440  0.0641 -0.0246 -0.1681
  741POPI   PO410704   1.552  13.088   5.710 -0.2248 -0.0124  0.0309
  741POPI   GL110705   1.610  13.226   6.160  0.0011  0.1971  0.1828
  741POPI   GL210706   1.738  12.972   6.234 -0.2506 -0.0054  0.3214
  741POPI   C1A10707   1.337  13.267   6.404  0.1144 -0.0638  0.0951
  741POPI   D2A10708   1.214  13.563   6.590  0.0012 -0.0010  0.2632
  741POPI   C3A10709   1.174  13.771   7.039  0.1124  0.1303 -0.0902
  741POPI   C4A10710   1.391  13.959   7.342 -0.0012 -0.1841 -0.1828
  741POPI   C1B10711   1.862  12.966   6.655  0.0265  0.4865 -0.3141
  741POPI   C2B10712   1.890  12.862   7.015 -0.3917 -0.1291  0.0859
  741POPI   C3B10713   1.929  12.610   7.282  0.0664 -0.1212  0.0769
  741POPI   C4B10714   1.861  12.450   7.644  0.0161 -0.0980 -0.2476
  742POPS   CNO10715   2.071  10.138   5.974  0.0021  0.2907 -0.1058
  742POPS   PO410716   1.891  10.445   5.825 -0.4094 -0.2674  0.1759
  742POPS   GL110717   1.758  10.436   6.287  0.1722 -0.1080  0.1708
  742POPS   GL210718   1.950  10.728   6.428  0.1105  0.0836 -0.1221
  742POPS   C1A10719   1.999  10.331   6.653  0.2163  0.4798 -0.1059
  742POPS   D2A10720   2.328  10.210   6.872  0.3049  0.5385 -0.0324
  742POPS   C3A10721   2.638   9.956   7.099 -0.2453  0.2090  0.1686
  742POPS   C4A10722   2.622   9.763   7.405 -0.1600  0.3686  0.0721
  742POPS   C1B10723   2.370  10.786   6.581  0.0990  0.0417 -0.0301
  742POPS   C2B10724   2.473  10.745   6.952 -0.0617  0.1871  0.0097
  742POPS   C3B10725   2.601  10.604   7.339 -0.0996  0.0089 -0.0531
  742POPS   C4B10726   2.441  10.178   7.621 -0.0906  0.0798  0.4243
  743POPS   CNO10727   5.972  10.310   5.337 -0.0208 -0.1463  0.0748
  743POPS   PO410728   5.993  10.066   5.858  0.2636  0.2980 -0.0823
  743POPS   GL110729   6.043  10.017   6.248  0.0891 -0.1519 -0.2498
  743POPS   GL210730   6.190   9.698   6.313  0.1051 -0.1609  0.1389
  743POPS   C1A10731   6.029  10.071   6.740 -0.1789  0.0921  0.5045
  743POPS   D2A10732   5.705   9.996   7.005  0.2938  0.0203  0.1465
  743POPS   C3A10733   5.705   9.976   7.394 -0.0542 -0.0469  0.4432
  743POPS   C4A10734   6.012  10.170   7.640 -0.2448 -0.0606  0.1123
  743POPS   C1B10735   6.449  10.031   6.564  0.2811 -0.0291  0.2003
  743POPS   C2B10736   6.718  10.143   6.966 -0.0253  0.0795  0.2692
  743POPS   C3B10737   7.051  10.169   7.314 -0.2040  0.1059  0.0011
  743POPS   C4B10738   7.490  10.276   7.384  0.1823  0.0056 -0.0073
  744POPS   CNO10739   6.582   5.419   5.859 -0.1052  0.1345  0.1428
  744POPS   PO410740   6.310   5.103   5.854  0.1552 -0.1605  0.0584
  744POPS   GL110741   6.276   5.100   6.291  0.1222 -0.2656 -0.2295
  744POPS   GL210742   6.544   5.271   6.336 -0.0928  0.0631 -0.0001
  744POPS   C1A10743   6.258   4.977   6.610  0.0076 -0.0939  0.1848
  744POPS   D2A10744   6.115   4.880   6.953  0.3077 -0.1659  0.0650
  744POPS   C3A10745   6.045   4.586   7.253  0.1091  0.0665 -0.3706
  744POPS   C4A10746   5.691   4.558   7.522  0.1834  0.0703  0.1465
  744POPS   C1B10747   6.684   5.356   6.783 -0.1978  0.1028 -0.1920
  744POPS   C2B10748   6.732   5.411   7.243  0.3368 -0.2015 -0.0024
  744POPS   C3B10749   6.617   5.232   7.679  0.1713 -0.0426 -0.0700
  744POPS   C4B10750   6.957   5.154   8.025  0.0782  0.2983  0.0978
  745POPS   CNO10751   9.186   9.105   5.812 -0.0291  0.2563  0.0176
  745POPS   PO410752   9.036   9.304   6.278  0.3337 -0.6641 -0.2098
  745POPS   GL110753   9.091   9.044   6.635 -0.1043  0.0260 -0.0911
  745POPS   GL210754   9.385   9.162   6.817  0.0707 -0.2343  0.1738
  745POPS   C1A10755   8.898   8.865   6.973 -0.0293 -0.0164  0.0271
  745POPS   D2A10756   8.516   8.752   7.233 -0.1285  0.4215  0.0646
  745POPS   C3A10757   8.580   8.531   7.639 -0.0664  0.1228 -0.3610
  745POPS   C4A10758   8.432   8.632   7.948 -0.0944  0.1726 -0.2376
  745POPS   C1B10759   9.300   9.300   7.265  0.2019  0.0386 -0.1746
  745POPS   C2B10760   9.297   9.236   7.745  0.1366 -0.1260 -0.0076
  745POPS   C3B10761   9.152   8.997   8.054  0.1638 -0.3677  0.1691
  745POPS   C4B10762   8.885   8.731   8.362  0.0938 -0.0895 -0.3902
  746POPS   CNO10763  11.211  17.630   5.844 -0.1782 -0.1262 -0.0274
  746POPS   PO410764  11.044  17.843   6.281 -0.0218 -0.1033 -0.0630
  746POPS   GL110765  11.177  17.609   6.634 -0.1764  0.2860 -0.0794
  746POPS   GL210766  11.427  17.547   6.659 -0.1638 -0.1384  0.2568
  746POPS   C1A10767  10.876  17.608   6.885  0.3099  0.3173 -0.0604
  746POPS   D2A10768  10.834  17.516   7.259 -0.0921  0.0340 -0.0598
  746POPS   C3A10769  10.547  17.733   7.511 -0.1127  0.0546  0.3450
  746POPS   C4A10770  10.476  17.784   7.985 -0.0953 -0.1425 -0.0900
  746POPS   C1B10771  11.342  17.528   7.103  0.0801  0.1354  0.2068
  746POPS   C2B10772  11.230  17.426   7.572  0.0720  0.1430 -0.1474
  746POPS   C3B10773  11.405  17.421   8.010  0.0252  0.1556 -0.1669
  746POPS   C4B10774  11.683  17.208   8.178 -0.0245  0.0910 -0.2528
  747POPS   CNO10775   3.317   1.425   5.513  0.0631 -0.0149 -0.1059
  747POPS   PO410776   2.979   1.262   5.731 -0.1420  0.0503  0.0873
  747POPS   GL110777   3.051   1.373   6.198  0.2640  0.0120 -0.0607
  747POPS   GL210778   3.297   1.239   6.439 -0.0920  0.3789  0.2052
  747POPS   C1A10779   2.816   1.176   6.592  0.3452  0.0481 -0.0758
  747POPS   D2A10780   2.780   1.193   6.974 -0.2077  0.1876 -0.0470
  747POPS   C3A10781   2.958   1.519   7.223  0.0453 -0.0015  0.1618
  747POPS   C4A10782   3.050   1.886   7.149  0.2055 -0.1215 -0.0226
  747POPS   C1B10783   3.208   1.457   6.755  0.0903 -0.2527  0.3733
  747POPS   C2B10784   3.480   1.584   7.062  0.0769  0.1337 -0.1608
  747POPS   C3B10785   3.462   1.613   7.506  0.0210 -0.0879 -0.2353
  747POPS   C4B10786   3.471   1.723   7.925  0.0723 -0.0244  0.2003
  748POPS   CNO10787   1.579   7.973   5.421  0.2874  0.1241 -0.2696
  748POPS   PO410788   1.233   8.121   5.411  0.0211 -0.1311 -0.0389
  748POPS   GL110789   1.355   8.216   5.834 -0.1993  0.0436 -0.0218
  748POPS   GL210790   1.389   8.521   6.068 -0.0649  0.0743 -0.0480
  748POPS   C1A10791   1.584   7.973   6.101  0.0453  0.0511 -0.3242
  748POPS   D2A10792   1.476   7.705   6.382 -0.3344 -0.2623 -0.0424
  748POPS   C3A10793   1.487   7.849   6.861 -0.0566 -0.2263  0.0730
  748POPS   C4A10794   1.378   7.736   7.296 -0.3209  0.0702 -0.1883
  748POPS   C1B10795   1.656   8.357   6.448  0.3506 -0.1210 -0.2795
  748POPS   C2B10796   1.645   8.478   6.896  0.2061  0.2612  0.0205
  748POPS   C3B10797   1.433   8.277   7.149 -0.1537 -0.2340 -0.0030
  748POPS   C4B10798   1.418   8.171   7.610 -0.2656 -0.3813 -0.1581
  749POPS   CNO10799   1.569   0.888   5.747 -0.0840  0.2914  0.1465
  749POPS   PO410800   1.358   0.968   6.155 -0.1563  0.2290 -0.0996
  749POPS   GL110801   1.461   1.038   6.572  0.2065  0.0829  0.2536
  749POPS   GL210802   1.441   1.335   6.514 -0.1399  0.4063 -0.3844
  749POPS   C1A10803   1.433   0.732   6.856 -0.1675 -0.0205 -0.0149
  749POPS   D2A10804   1.351   0.706   7.437  0.1466 -0.0579  0.1982
  749POPS   C3A10805   1.299   1.044   7.691  0.0737  0.1733  0.1197
  749POPS   C4A10806   1.174   1.422   7.942  0.0098 -0.1843  0.1494
  749POPS   C1B10807   1.258   1.458   6.895 -0.2054 -0.1504 -0.1938
  749POPS   C2B10808   1.281   1.562   7.362  0.1123  0.1357 -0.0845
  749POPS   C3B10809   1.561   1.545   7.681  0.1402 -0.1876  0.1378
  749POPS   C4B10810   2.010   1.615   7.757 -0.2700 -0.1805  0.1622
  750POPS   CNO10811  12.024   4.434   6.683  0.1518 -0.1023  0.1485
  750POPS   PO410812  12.402   4.377   6.490 -0.2504  0.0877 -0.2259
  750POPS   GL110813  12.547   4.123   6.837  0.1370 -0.1489  0.1230
  750POPS   GL210814  12.544   4.435   6.958 -0.1669  0.1822 -0.0744
  750POPS   C1A10815  12.574   3.974   7.276 -0.0914  0.3381  0.0927
  750POPS   D2A10816  12.388   3.893   7.593 -0.1532 -0.1444 -0.1764
  750POPS   C3A10817  12.654   3.740   7.949 -0.0183  0.0753 -0.2446
  750POPS   C4A10818  12.714   3.777   8.405  0.0751  0.0895  0.3373
  750POPS   C1B10819  12.178   4.345   7.234 -0.1578 -0.0220  0.0958
  750POPS   C2B10820  11.857   4.158   7.504 -0.1579 -0.1982 -0.0918
  750POPS   C3B10821  11.998   4.003   7.868 -0.3033  0.0164  0.1868
  750POPS   C4B10822  12.127   3.902   8.366  0.1508  0.1036  0.0291
  751POPS   CNO10823  15.186   3.302   5.776  0.0549 -0.2680  0.1226
  751POPS   PO410824  15.267   2.973   6.066  0.2519 -0.1037  0.0911
  751POPS   GL110825  15.175   2.974   6.416  0.1695  0.1376 -0.3691
  751POPS   GL210826  15.392   2.782   6.520 -0.1580 -0.2580  0.1140
  751POPS   C1A10827  15.015   3.162   6.756  0.0621  0.1301 -0.0810
  751POPS   D2A10828  15.099   3.024   7.166 -0.0475  0.2403 -0.2381
  751POPS   C3A10829  15.120   3.200   7.622  0.1138 -0.2658 -0.1363
  751POPS   C4A10830  14.862   3.212   8.035 -0.1989 -0.0415 -0.2473
  751POPS   C1B10831  15.630   3.132   6.706 -0.0439  0.0620 -0.0228
  751POPS   C2B10832  15.526   3.324   7.128  0.1846  0.0438  0.0748
  751POPS   C3B10833  15.593   3.351   7.608 -0.0814  0.0642 -0.1341
  751POPS   C4B10834  15.752   3.415   8.025 -0.0266 -0.0009 -0.2120
  752POPS   CNO10835  10.940   2.547   6.290 -0.2091  0.1177  0.3202
  752POPS   PO410836  11.213   2.229   6.436  0.1361  0.1015 -0.1693
  752POPS   GL110837  11.435   2.388   6.851  0.3089  0.1948 -0.0607
  752POPS   GL210838  11.687   2.539   6.702 -0.0383  0.1643  0.1501
  752POPS   C1A10839  11.460   2.670   7.141  0.0739  0.4775  0.0339
  752POPS   D2A10840  11.357   3.047   7.476  0.2190 -0.0306 -0.0331
  752POPS   C3A10841  11.215   3.323   7.813  0.1368  0.0497  0.0386
  752POPS   C4A10842  11.071   3.362   8.196  0.2338 -0.0136  0.2309
  752POPS   C1B10843  11.828   2.915   6.925 -0.0167  0.1143 -0.2255
  752POPS   C2B10844  11.798   2.970   7.337  0.2363 -0.1132 -0.1489
  752POPS   C3B10845  11.791   3.085   7.765  0.0892  0.1444 -0.1554
  752POPS   C4B10846  11.974   3.093   8.158  0.0715 -0.0586 -0.0275
  753POPS   CNO10847  16.633  15.692   5.924 -0.1591 -0.0231 -0.3250
  753POPS   PO410848  16.475  16.053   6.117  0.2662 -0.0392  0.1580
  753POPS   GL110849  16.426  16.067   6.537  0.3127 -0.0172  0.1103
  753POPS   GL210850  16.472  16.410   6.616 -0.1735 -0.0472 -0.4728
  753POPS   C1A10851  16.486  15.716   6.949  0.0629  0.1171  0.2065
  753POPS   D2A10852  16.623  15.660   7.407  0.0855 -0.3505  0.0935
  753POPS   C3A10853  16.518  15.781   7.821  0.1278 -0.0713 -0.0355
  753POPS   C4A10854  16.345  16.093   8.015 -0.0269  0.1442 -0.2238
  753POPS   C1B10855  16.293  16.774   6.991  0.3824 -0.0565  0.3765
  753POPS   C2B10856  16.274  16.972   7.422 -0.1334  0.1126 -0.0479
  753POPS   C3B10857  16.121  16.947   7.813  0.0166 -0.1591  0.0701
  753POPS   C4B10858  16.042  16.886   8.322 -0.1440  0.0385 -0.0917
  754POPS   CNO10859   8.486   7.317   6.224  0.1773 -0.4072  0.1178
  754POPS   PO410860   8.064   7.179   6.030 -0.0265  0.4585 -0.0880
  754POPS   GL110861   8.106   6.992   6.472 -0.1817 -0.1541  0.0391
  754POPS   GL210862   8.482   7.054   6.660  0.2810  0.1993  0.1550
  754POPS   C1A10863   7.893   6.755   6.714  0.0228 -0.1175  0.0357
  754POPS   D2A10864   7.910   6.317   6.808  0.2910  0.0333  0.2689
  754POPS   C3A10865   8.082   6.201   7.208  0.1283 -0.1200  0.0527
  754POPS   C4A10866   7.942   6.203   7.578 -0.1145 -0.2555  0.1433
  754POPS   C1B10867   8.254   7.183   6.986 -0.0871 -0.1755  0.2558
  754POPS   C2B10868   8.152   7.286   7.430  0.0273  0.1606 -0.0724
  754POPS   C3B10869   8.170   7.382   7.852 -0.0153  0.3906  0.0353
  754POPS   C4B10870   7.887   7.467   8.171 -0.0587  0.1314  0.0308
  755POPS   CNO10871   9.640  10.051   5.775 -0.0085 -0.3554  0.0885
  755POPS   PO410872   9.428  10.094   6.183  0.1114  0.1024  0.0822
  755POPS   GL110873   9.591  10.228   6.579  0.3373 -0.3863 -0.1617
  755POPS   GL210874   9.857  10.117   6.803 -0.1691 -0.1257 -0.2403
  755POPS   C1A10875   9.389  10.204   7.004 -0.1080 -0.1384 -0.2943
  755POPS   D2A10876   9.554  10.247   7.455  0.4354  0.1129 -0.0173
  755POPS   C3A10877   9.422  10.487   7.763  0.1938  0.0492 -0.0368
  755POPS   C4A10878   9.121  10.347   8.106 -0.2102 -0.2261  0.0078
  755POPS   C1B10879   9.884  10.497   7.064  0.0085 -0.0533 -0.2641
  755POPS   C2B10880   9.840  10.617   7.431 -0.1256  0.0577  0.2587
  755POPS   C3B10881   9.957  10.370   7.753 -0.0750 -0.1516 -0.1238
  755POPS   C4B10882   9.718  10.472   8.206  0.0443 -0.2327  0.0865
  756POPS   CNO10883  13.992   6.973   5.976  0.0219  0.1080 -0.0308
  756POPS   PO410884  13.771   6.903   6.300 -0.0568  0.1754 -0.1878
  756POPS   GL110885  14.008   6.840   6.709  0.2808  0.1206  0.2046
  756POPS   GL210886  14.016   7.051   6.913  0.1741 -0.0341 -0.1462
  756POPS   C1A10887  13.863   6.627   7.180 -0.1950 -0.0990  0.3017
  756POPS   D2A10888  13.828   6.650   7.719  0.0144 -0.0789 -0.0265
  756POPS   C3A10889  14.030   6.269   7.996  0.3425 -0.0494  0.1628
  756POPS   C4A10890  14.215   6.291   8.400 -0.0471  0.0025  0.3172
  756POPS   C1B10891  13.982   7.016   7.423 -0.1022 -0.2133 -0.1554
  756POPS   C2B10892  14.014   7.152   7.810 -0.0741 -0.1915 -0.0413
  756POPS   C3B10893  14.074   7.007   8.223  0.1320  0.1671  0.0221
  756POPS   C4B10894  14.045   6.711   8.623  0.0567  0.3772 -0.2286
  757POPS   CNO10895   0.845   0.118   5.897  0.3433  0.2479  0.0380
  757POPS   PO410896   0.683   0.583   6.015  0.1021  0.3322 -0.0900
  757POPS   GL110897   0.824   0.430   6.339  0.3007  0.0561 -0.2708
  757POPS   GL210898   0.863   0.059   6.427  0.1111 -0.0160  0.0744
  757POPS   C1A10899   0.932   0.453   6.807  0.2335 -0.0841  0.1831
  757POPS   D2A10900   0.927   0.728   7.133  0.4162 -0.1039 -0.2031
  757POPS   C3A10901   1.005   1.090   7.129  0.1592  0.0216  0.3366
  757POPS   C4A10902   0.904   1.246   7.548  0.4562  0.0588  0.0833
  757POPS   C1B10903   0.792  -0.012   6.770 -0.2243 -0.1329  0.1466
  757POPS   C2B10904   0.697   0.193   7.161  0.0840  0.4283 -0.1067
  757POPS   C3B10905   0.522   0.204   7.535 -0.1541  0.0727 -0.0907
  757POPS   C4B10906   0.193   0.429   7.702  0.3023  0.1291  0.1087
  758POPS   CNO10907   1.070  13.041   6.085 -0.1631 -0.5573  0.1121
  758POPS   PO410908   0.647  12.875   6.186  0.0103  0.3030  0.0438
  758POPS   GL110909   0.596  12.923   6.615  0.0443 -0.1038 -0.0322
  758POPS   GL210910   0.775  13.153   6.660 -0.0411 -0.2307 -0.0262
  758POPS   C1A10911   0.683  12.958   7.103  0.0861  0.1446 -0.0640
  758POPS   D2A10912   0.989  13.005   7.517 -0.0124 -0.1045  0.0042
  758POPS   C3A10913   0.969  12.829   7.951 -0.0693 -0.0318  0.1739
  758POPS   C4A10914   0.964  12.652   8.438 -0.2476 -0.3668 -0.2379
  758POPS   C1B10915   0.869  13.405   6.962  0.4075  0.4464 -0.1861
  758POPS   C2B10916   0.906  13.531   7.408 -0.0052 -0.1895 -0.1212
  758POPS   C3B10917   1.259  13.451   7.745 -0.2105 -0.0849 -0.2834
  758POPS   C4B10918   1.606  13.206   7.936 -0.2628  0.2614 -0.1633
  759POPS   CNO10919  15.277  17.177   5.887  0.0335  0.1387  0.1434
  759POPS   PO410920  15.542  16.943   5.759 -0.0064 -0.1522 -0.0196
  759POPS   GL110921  15.818  17.048   6.101 -0.1985 -0.2333 -0.1684
  759POPS   GL210922  15.593  16.985   6.287  0.2168 -0.0157  0.0098
  759POPS   C1A10923  15.905  17.255   6.521 -0.1268 -0.1281 -0.0959
  759POPS   D2A10924  16.047  17.220   7.011  0.1251 -0.3307 -0.1002
  759POPS   C3A10925  15.809  17.034   7.299  0.3737  0.0324  0.2549
  759POPS   C4A10926  15.569  16.958   7.773 -0.1092  0.2484 -0.0476
  759POPS   C1B10927  15.697  16.755   6.706 -0.2557  0.2320  0.2053
  759POPS   C2B10928  15.846  16.578   7.089 -0.2264 -0.1528 -0.2749
  759POPS   C3B10929  15.945  16.582   7.499 -0.3570  0.0319 -0.2977
  759POPS   C4B10930  15.941  16.501   7.985 -0.1623 -0.1308  0.1638
  760POPS   CNO10931   3.638   8.305   4.967  0.2090  0.4956  0.1226
  760POPS   PO410932   3.581   7.900   4.972 -0.0625 -0.0006 -0.1132
  760POPS   GL110933   3.405   8.073   5.426 -0.0998 -0.1027  0.0922
  760POPS   GL210934   3.528   7.887   5.717 -0.0279 -0.0787  0.1234
  760POPS   C1A10935   3.141   8.106   5.911 -0.1959 -0.0811 -0.1906
  760POPS   D2A10936   2.892   8.222   6.173 -0.1202 -0.0496 -0.0449
  760POPS   C3A10937   2.643   8.145   6.341 -0.1892  0.4387 -0.1939
  760POPS   C4A10938   2.622   7.830   6.607 -0.1037 -0.2896  0.1329
  760POPS   C1B10939   3.632   7.927   6.094  0.0587  0.2901  0.1092
  760POPS   C2B10940   3.745   7.906   6.559  0.0466  0.1520  0.0992
  760POPS   C3B10941   3.819   8.063   6.919 -0.0667  0.1943 -0.0624
  760POPS   C4B10942   3.891   7.984   7.342  0.2875  0.2040  0.2414
  761POPS   CNO10943   4.910   2.983   5.630  0.0256  0.0114  0.1191
  761POPS   PO410944   4.744   2.896   6.021 -0.0642 -0.1660  0.1647
  761POPS   GL110945   4.741   2.993   6.486  0.0530  0.3897 -0.1236
  761POPS   GL210946   4.535   2.754   6.507 -0.4989  0.1944  0.0754
  761POPS   C1A10947   4.997   2.820   6.829  0.1549  0.0270 -0.1133
  761POPS   D2A10948   4.925   2.961   7.257 -0.1566 -0.3357 -0.1148
  761POPS   C3A10949   4.805   3.307   7.249 -0.3001 -0.0877  0.0406
  761POPS   C4A10950   4.557   3.740   7.305 -0.0536  0.0592  0.1998
  761POPS   C1B10951   4.396   2.603   6.852  0.0140 -0.0411 -0.0967
  761POPS   C2B10952   4.410   2.505   7.346  0.0898 -0.0040 -0.1110
  761POPS   C3B10953   4.567   2.788   7.627  0.0043 -0.0886 -0.0230
  761POPS   C4B10954   4.522   3.201   7.801 -0.3627  0.0066  0.0515
  762POPS   CNO10955  12.362  17.381   6.305 -0.0648 -0.1715 -0.1110
  762POPS   PO410956  12.328  16.993   6.029  0.1057 -0.0157  0.2931
  762POPS   GL110957  12.427  16.887   6.460  0.1993  0.1680  0.2227
  762POPS   GL210958  12.119  17.101   6.745 -0.1934  0.3913 -0.1126
  762POPS   C1A10959  12.548  16.834   6.848 -0.4583  0.0067  0.0458
  762POPS   D2A10960  12.553  17.171   7.222 -0.0807  0.1666  0.1726
  762POPS   C3A10961  12.900  17.309   7.398 -0.1125 -0.1383  0.1646
  762POPS   C4A10962  13.013  17.560   7.630 -0.1583 -0.1371  0.0986
  762POPS   C1B10963  12.119  16.903   7.141  0.1989 -0.3250 -0.1816
  762POPS   C2B10964  12.212  16.758   7.480 -0.0756  0.0893 -0.3776
  762POPS   C3B10965  12.337  16.461   7.755  0.0094 -0.3518 -0.0125
  762POPS   C4B10966  12.525  16.226   8.062  0.1462 -0.0123  0.0513
  763POPS   CNO10967   3.485   5.286   5.593  0.2784 -0.1479 -0.1173
  763POPS   PO410968   3.899   5.436   5.516  0.3173 -0.0932 -0.2353
  763POPS   GL110969   3.763   5.591   5.973 -0.1434 -0.0970 -0.2953
  763POPS   GL210970   3.393   5.607   5.993  0.0600 -0.1349 -0.1757
  763POPS   C1A10971   3.952   5.966   6.267 -0.3142  0.3259  0.0674
  763POPS   D2A10972   4.271   6.238   6.408 -0.1667  0.0295  0.0940
  763POPS   C3A10973   4.534   6.623   6.496 -0.0487 -0.0527 -0.1342
  763POPS   C4A10974   4.872   6.903   6.777  0.0264  0.1030 -0.2960
  763POPS   C1B10975   3.126   5.539   6.378 -0.2100  0.3507 -0.0324
  763POPS   C2B10976   3.196   5.348   6.789 -0.0926 -0.1800 -0.0543
  763POPS   C3B10977   3.076   5.451   7.222  0.1801  0.2998 -0.1150
  763POPS   C4B10978   2.833   5.498   7.689 -0.1881  0.1304  0.1813
  764POPS   CNO10979   9.584   2.247   6.208 -0.1224  0.1341 -0.0123
  764POPS   PO410980   9.314   1.956   6.402 -0.1522  0.1126 -0.3743
  764POPS   GL110981   9.482   2.147   6.724  0.2244  0.3160  0.2022
  764POPS   GL210982   9.781   2.099   6.913 -0.2465  0.1372  0.0674
  764POPS   C1A10983   9.238   2.054   7.090 -0.0125  0.1058  0.6962
  764POPS   D2A10984   9.037   2.100   7.486 -0.1935 -0.1128 -0.1380
  764POPS   C3A10985   9.023   2.118   8.014  0.2136  0.2730 -0.0249
  764POPS   C4A10986   8.895   2.466   8.268 -0.3145 -0.4724  0.2337
  764POPS   C1B10987   9.544   2.490   7.114 -0.1606 -0.2235  0.3516
  764POPS   C2B10988   9.517   2.797   7.533 -0.1029 -0.1416 -0.0225
  764POPS   C3B10989   9.317   2.697   7.972 -0.3873 -0.1222 -0.1561
  764POPS   C4B10990   9.292   2.825   8.448 -0.0693  0.0057  0.0368
  765POPS   CNO10991  17.762   7.172   6.081  0.1248  0.0032 -0.3126
  765POPS   PO410992  17.525   6.814   6.165 -0.0809  0.0891 -0.2156
  765POPS   GL110993  17.734   6.773   6.481  0.1236  0.3514  0.0025
  765POPS   GL210994  18.001   6.591   6.460  0.1768 -0.2034 -0.2276
  765POPS   C1A10995  17.755   6.872   6.927  0.0288 -0.1960 -0.0250
  765POPS   D2A10996  17.808   7.052   7.362 -0.4436 -0.0835 -0.0078
  765POPS   C3A10997  17.954   7.240   7.671 -0.0297 -0.2096 -0.0312
  765POPS   C4A10998  17.768   7.475   8.054 -0.0741 -0.3036  0.1179
  765POPS   C1B10999  18.336   6.632   6.789 -0.1004 -0.1640 -0.1063
  765POPS   C2B11000  18.445   6.454   7.195 -0.0888  0.0932 -0.5109
  765POPS   C3B11001  18.724   6.558   7.578  0.1107 -0.3625 -0.3642
  765POPS   C4B11002  18.991   6.596   7.985  0.2464  0.1034 -0.0364
  766POPS   CNO11003  14.867   5.529   5.815 -0.2157 -0.1992 -0.0922
  766POPS   PO411004  14.963   5.492   6.239 -0.1137  0.3842 -0.1538
  766POPS   GL111005  15.029   5.492   6.615 -0.2042 -0.0558  0.0390
  766POPS   GL211006  14.951   5.880   6.621 -0.3027 -0.3340 -0.0546
  766POPS   C1A11007  15.037   5.618   7.075 -0.0813 -0.0138  0.0815
  766POPS   D2A11008  14.776   5.766   7.297 -0.1153 -0.0243  0.0812
  766POPS   C3A11009  14.834   5.618   7.682  0.3351 -0.1220 -0.1463
  766POPS   C4A11010  14.552   5.313   7.940 -0.1476  0.2021 -0.0600
  766POPS   C1B11011  15.049   6.246   6.972 -0.1682 -0.0153  0.1947
  766POPS   C2B11012  14.930   6.427   7.321 -0.1896 -0.1079  0.1528
  766POPS   C3B11013  14.895   6.494   7.777 -0.1350  0.0293  0.0465
  766POPS   C4B11014  14.974   6.569   8.126 -0.0422  0.1060 -0.3066
  767POPS   CNO11015   0.967  16.710   5.796  0.2924 -0.0628  0.2417
  767POPS   PO411016   0.911  16.360   6.053  0.1855 -0.3167  0.0994
  767POPS   GL111017   0.895  16.777   6.374 -0.3374  0.1070  0.1122
  767POPS   GL211018   1.120  16.594   6.451 -0.3204  0.1455 -0.0725
  767POPS   C1A11019   0.714  16.953   6.816 -0.0118  0.1820 -0.2103
  767POPS   D2A11020   0.600  16.776   7.168  0.0259 -0.0673 -0.3236
  767POPS   C3A11021   0.715  16.992   7.517  0.0916 -0.2403 -0.1396
  767POPS   C4A11022   0.663  17.335   7.644 -0.0752  0.0164  0.1269
  767POPS   C1B11023   1.073  16.622   6.833  0.2121 -0.2573  0.1661
  767POPS   C2B11024   1.091  16.694   7.290  0.0157  0.2399  0.1665
  767POPS   C3B11025   1.185  16.653   7.689 -0.2405 -0.0746 -0.1197
  767POPS   C4B11026   1.281  16.365   8.069  0.1062  0.1452  0.1862
  768POPS   CNO11027   0.762  14.648   5.703 -0.1194  0.0397  0.0857
  768POPS   PO411028   1.132  14.915   5.854 -0.1995  0.1837  0.1800
  768POPS   GL111029   1.404  15.069   6.158 -0.1636  0.0605  0.0800
  768POPS   GL211030   1.740  15.170   6.129 -0.0115  0.0112 -0.0909
  768POPS   C1A11031   1.406  15.179   6.575  0.4193  0.0114  0.2167
  768POPS   D2A11032   1.481  15.214   7.007  0.1908 -0.0071 -0.0231
  768POPS   C3A11033   1.247  15.082   7.327 -0.1052 -0.0478 -0.1282
  768POPS   C4A11034   1.065  14.783   7.597 -0.0961 -0.0989  0.1473
  768POPS   C1B11035   1.936  15.080   6.503 -0.1870 -0.0039  0.2706
  768POPS   C2B11036   1.838  14.909   6.995  0.0120 -0.2258 -0.0281
  768POPS   C3B11037   1.822  15.139   7.457  0.0505 -0.0720 -0.0320
  768POPS   C4B11038   1.669  15.400   7.737 -0.0282  0.0468  0.0208
  769POPS   CNO11039   9.500  13.935   6.531 -0.0329  0.0767  0.4275
  769POPS   PO411040   9.320  13.574   6.311 -0.1795  0.2657 -0.3339
  769POPS   GL111041   9.279  13.255   6.667 -0.0802  0.1656 -0.0961
  769POPS   GL211042   9.130  13.524   6.844 -0.2081 -0.1018 -0.0395
  769POPS   C1A11043   9.434  12.984   6.916  0.4269 -0.1183 -0.2166
  769POPS   D2A11044   9.545  13.020   7.470  0.3295  0.1021 -0.0991
  769POPS   C3A11045   9.406  12.704   7.850  0.0368 -0.0569  0.5124
  769POPS   C4A11046   9.621  12.553   8.210  0.0408  0.2114 -0.2951
  769POPS   C1B11047   9.178  13.289   7.219  0.0537 -0.2624  0.2744
  769POPS   C2B11048   9.015  12.935   7.543  0.0406  0.0288  0.2173
  769POPS   C3B11049   8.756  12.685   7.790 -0.0679  0.0183 -0.2487
  769POPS   C4B11050   8.796  12.218   7.990 -0.0702 -0.2255 -0.0502
  770POPS   CNO11051   8.488  17.484   5.924  0.1386  0.0844  0.0509
  770POPS   PO411052   8.314  17.232   6.236 -0.0267  0.0380  0.0804
  770POPS   GL111053   8.199  17.325   6.662  0.0564  0.0418 -0.2130
  770POPS   GL211054   8.496  17.566   6.823  0.0775  0.2142 -0.0300
  770POPS   C1A11055   7.910  17.164   6.972 -0.1605  0.0449  0.0872
  770POPS   D2A11056   7.585  17.059   7.358  0.1573  0.0412 -0.0142
  770POPS   C3A11057   7.594  16.723   7.780 -0.0524  0.1316  0.2528
  770POPS   C4A11058   7.441  16.555   8.150 -0.0584 -0.0599 -0.0172
  770POPS   C1B11059   8.688  17.576   7.292  0.1741  0.0955  0.1821
  770POPS   C2B11060   8.840  17.328   7.718  0.1031 -0.3551 -0.0114
  770POPS   C3B11061   8.706  17.102   8.116 -0.0719 -0.1535 -0.1315
  770POPS   C4B11062   8.339  16.775   8.095 -0.1166  0.1328  0.1046
  771POPS   CNO11063  10.455   8.245   5.949  0.0387  0.1374 -0.1041
  771POPS   PO411064  10.737   8.396   6.106  0.1012 -0.0781  0.0389
  771POPS   GL111065  10.537   8.407   6.454  0.0712 -0.2201  0.0626
  771POPS   GL211066  10.170   8.547   6.503 -0.1323 -0.0025  0.0433
  771POPS   C1A11067  10.619   8.365   6.954  0.3362 -0.1223  0.0474
  771POPS   D2A11068  10.475   8.557   7.318 -0.1977  0.3268 -0.1619
  771POPS   C3A11069  10.448   8.387   7.691 -0.0177  0.0910 -0.0479
  771POPS   C4A11070  10.255   8.277   8.064  0.0445 -0.2208 -0.3203
  771POPS   C1B11071  10.035   8.404   6.808 -0.2313  0.1907  0.0937
  771POPS   C2B11072  10.027   8.380   7.332  0.0182 -0.1323  0.2457
  771POPS   C3B11073   9.774   8.427   7.701  0.1414 -0.0261  0.0321
  771POPS   C4B11074   9.812   8.215   8.134  0.0921 -0.0335 -0.1986
  772POPS   CNO11075  10.882   5.004   6.350  0.0195 -0.2905  0.1150
  772POPS   PO411076  11.123   5.307   6.161  0.2312 -0.3060 -0.0174
  772POPS   GL111077  11.022   5.367   6.617 -0.0219 -0.3298 -0.1776
  772POPS   GL211078  10.979   5.671   6.658  0.0009 -0.0653  0.1640
  772POPS   C1A11079  11.263   5.399   7.029  0.0514  0.1532  0.0671
  772POPS   D2A11080  11.292   5.672   7.469  0.1371 -0.0391 -0.0085
  772POPS   C3A11081  11.406   5.463   7.901 -0.0367 -0.2878 -0.3052
  772POPS   C4A11082  11.364   5.287   8.323 -0.3809  0.0012  0.1571
  772POPS   C1B11083  10.847   5.882   7.194 -0.1300  0.0747 -0.1543
  772POPS   C2B11084  10.714   5.810   7.568  0.0212 -0.2714 -0.1261
  772POPS   C3B11085  10.723   5.763   8.024  0.1583 -0.0499 -0.0320
  772POPS   C4B11086  10.981   5.735   8.364  0.1003 -0.1379 -0.1304
  773POPS   CNO11087   7.516   8.329   5.379  0.1154 -0.1847 -0.1710
  773POPS   PO411088   7.372   8.326   5.742 -0.0010  0.0035  0.0608
  773POPS   GL111089   7.323   8.538   6.156  0.3171  0.0107 -0.0730
  773POPS   GL211090   6.976   8.480   6.288  0.0187 -0.1301 -0.0203
  773POPS   C1A11091   7.295   8.598   6.582  0.1458 -0.3967  0.0278
  773POPS   D2A11092   7.106   8.828   6.721  0.0511  0.2487 -0.0202
  773POPS   C3A11093   7.013   8.727   7.169  0.1392  0.1228  0.0150
  773POPS   C4A11094   6.842   8.672   7.614 -0.0235  0.1267 -0.2563
  773POPS   C1B11095   6.835   8.428   6.754 -0.0584 -0.0073  0.1074
  773POPS   C2B11096   6.462   8.601   7.111 -0.1297  0.1230 -0.2490
  773POPS   C3B11097   6.346   8.738   7.434 -0.0206  0.1147  0.2107
  773POPS   C4B11098   6.472   9.074   7.727  0.2335 -0.0799  0.1536
  774POPS   CNO11099  11.578  13.024   6.443  0.1311 -0.1478  0.1018
  774POPS   PO411100  11.376  13.428   6.500 -0.2008 -0.2039  0.2152
  774POPS   GL111101  11.442  13.233   6.889 -0.2299  0.1323 -0.0502
  774POPS   GL211102  11.203  13.330   7.159 -0.0657 -0.0227 -0.1450
  774POPS   C1A11103  11.538  12.800   7.130 -0.1314  0.0935 -0.2715
  774POPS   D2A11104  11.933  12.622   7.312  0.1087  0.1105 -0.0537
  774POPS   C3A11105  11.974  12.302   7.525  0.1568 -0.0004  0.0488
  774POPS   C4A11106  12.107  12.184   7.952  0.1821  0.3979 -0.1877
  774POPS   C1B11107  11.407  13.653   7.401  0.0264 -0.0502  0.3080
  774POPS   C2B11108  11.281  13.896   7.780  0.0129  0.1936  0.0920
  774POPS   C3B11109  11.183  13.916   8.172 -0.0492  0.0829 -0.1894
  774POPS   C4B11110  10.807  13.745   8.297 -0.0051  0.2345 -0.0433
  775POPS   CNO11111   3.815   3.011   5.294 -0.2097  0.1375 -0.2764
  775POPS   PO411112   3.744   2.798   5.703  0.1867 -0.2302 -0.3462
  775POPS   GL111113   3.788   2.634   6.163  0.1228  0.0721 -0.2037
  775POPS   GL211114   3.446   2.404   6.348  0.4161  0.2751 -0.2752
  775POPS   C1A11115   4.015   2.816   6.483  0.0309 -0.3379 -0.2799
  775POPS   D2A11116   4.051   3.266   6.684 -0.5669  0.2304 -0.0653
  775POPS   C3A11117   3.826   3.329   7.137 -0.1329  0.1247 -0.0353
  775POPS   C4A11118   3.916   2.994   7.399  0.3184  0.0926 -0.4143
  775POPS   C1B11119   3.474   2.506   6.731 -0.0809 -0.0835 -0.0921
  775POPS   C2B11120   3.580   2.656   7.072 -0.4377  0.1317 -0.2872
  775POPS   C3B11121   3.612   2.641   7.663  0.0225  0.2862  0.0360
  775POPS   C4B11122   3.374   2.955   7.914 -0.1849  0.1239  0.1561
  776POPS   CNO11123   1.495  11.135   5.524  0.0394  0.0429  0.0583
  776POPS   PO411124   1.480  11.288   5.867  0.2042  0.2059  0.1215
  776POPS   GL111125   1.562  11.262   6.242  0.1082  0.2345 -0.0765
  776POPS   GL211126   1.552  11.017   6.386  0.2283  0.2931 -0.2583
  776POPS   C1A11127   1.688  11.612   6.454  0.1589  0.1723  0.0082
  776POPS   D2A11128   1.460  11.937   6.626 -0.2995  0.0774 -0.0202
  776POPS   C3A11129   1.419  11.946   7.017 -0.2764 -0.2611  0.1690
  776POPS   C4A11130   1.377  11.605   7.372 -0.0029 -0.0543  0.0098
  776POPS   C1B11131   1.489  10.705   6.775 -0.0909  0.0252  0.1925
  776POPS   C2B11132   1.575  11.036   7.102 -0.2202 -0.2352  0.3252
  776POPS   C3B11133   1.617  11.192   7.516  0.0110 -0.0349  0.2363
  776POPS   C4B11134   1.605  11.610   7.869 -0.1882 -0.2156 -0.1659
  777POPS   CNO11135   6.424  15.784   6.015  0.0596  0.0019  0.0427
  777POPS   PO411136   6.650  16.120   6.090 -0.0135  0.0548  0.0710
  777POPS   GL111137   6.695  16.256   6.503 -0.2192 -0.1051 -0.3105
  777POPS   GL211138   6.684  16.649   6.506 -0.0234  0.0777 -0.0457
  777POPS   C1A11139   6.723  16.073   6.950 -0.0910  0.1669 -0.0023
  777POPS   D2A11140   6.586  15.906   7.224  0.1088  0.2161  0.3245
  777POPS   C3A11141   6.546  16.107   7.564 -0.1242 -0.2865  0.1536
  777POPS   C4A11142   6.650  16.536   7.649  0.0109  0.2192 -0.2664
  777POPS   C1B11143   6.516  16.956   6.759 -0.2101 -0.1240 -0.0579
  777POPS   C2B11144   6.619  17.374   7.049 -0.2044 -0.1715 -0.1062
  777POPS   C3B11145   6.394  17.707   7.205 -0.2297 -0.1197 -0.1308
  777POPS   C4B11146   6.056  17.784   7.583 -0.1504 -0.0969 -0.1964
  778POPS   CNO11147  17.666   6.079   5.495 -0.0622 -0.4532 -0.4012
  778POPS   PO411148  17.950   5.822   5.430 -0.0403 -0.1350 -0.0809
  778POPS   GL111149  17.958   5.703   5.824 -0.0853 -0.1349 -0.1006
  778POPS   GL211150  17.768   5.847   5.959 -0.2692 -0.1337 -0.1281
  778POPS   C1A11151  18.251   5.597   6.284  0.0102  0.2814 -0.3023
  778POPS   D2A11152  18.203   5.642   6.682 -0.0827 -0.4009 -0.0704
  778POPS   C3A11153  18.273   5.583   7.118 -0.1718 -0.1637 -0.0371
  778POPS   C4A11154  18.420   5.433   7.417 -0.1960 -0.0272 -0.3890
  778POPS   C1B11155  17.724   5.735   6.407  0.2223  0.1166  0.1044
  778POPS   C2B11156  17.732   5.716   6.889  0.1287 -0.0653 -0.0886
  778POPS   C3B11157  17.755   5.685   7.332 -0.0725  0.0507 -0.0003
  778POPS   C4B11158  17.503   5.511   7.568 -0.3318  0.0671  0.2372
  779POPS   CNO11159  14.791  17.111   5.994 -0.0429  0.3081  0.1120
  779POPS   PO411160  14.763  16.798   6.269  0.1245 -0.1898  0.2997
  779POPS   GL111161  14.667  16.993   6.698  0.0006  0.4994 -0.0383
  779POPS   GL211162  14.797  17.282   6.795  0.2916  0.0645  0.0025
  779POPS   C1A11163  14.649  16.911   7.160  0.2400 -0.0622  0.0328
  779POPS   D2A11164  14.615  17.044   7.611 -0.0157 -0.0198 -0.1172
  779POPS   C3A11165  14.690  16.762   7.872  0.0485  0.0423 -0.1898
  779POPS   C4A11166  14.776  16.380   8.159  0.3393 -0.1458  0.1801
  779POPS   C1B11167  14.885  17.374   7.224  0.2140  0.2554 -0.1807
  779POPS   C2B11168  14.928  17.636   7.578  0.1029  0.3868  0.0574
  779POPS   C3B11169  14.718  17.550   7.930  0.0347  0.2456  0.1850
  779POPS   C4B11170  14.490  17.204   8.091  0.0136  0.0325 -0.1185
  780POPS   CNO11171   7.707  13.336   5.686 -0.0280  0.3241 -0.0397
  780POPS   PO411172   8.020  13.354   5.979 -0.1882 -0.0189 -0.2324
  780POPS   GL111173   7.944  13.058   6.308 -0.2733 -0.1814 -0.0237
  780POPS   GL211174   8.223  12.960   6.571 -0.2026  0.1023 -0.0261
  780POPS   C1A11175   7.774  12.923   6.753 -0.3601  0.2911  0.1309
  780POPS   D2A11176   7.725  12.763   7.166  0.3470  0.1208  0.0714
  780POPS   C3A11177   7.850  12.361   7.442  0.3066 -0.2018  0.1702
  780POPS   C4A11178   7.785  11.919   7.620  0.0676 -0.0215  0.0013
  780POPS   C1B11179   8.231  13.095   6.951  0.3010 -0.0413  0.1790
  780POPS   C2B11180   7.825  13.239   7.172 -0.1577 -0.0774 -0.0837
  780POPS   C3B11181   7.425  13.234   7.306 -0.0075  0.2802  0.0513
  780POPS   C4B11182   7.292  13.320   7.614  0.1424  0.0193  0.0341
  781POPS   CNO11183   0.473   3.342   6.048  0.2296  0.0311  0.0391
  781POPS   PO411184   0.101   3.331   5.805  0.1811  0.1359 -0.0768
  781POPS   GL111185  -0.209   3.274   6.146 -0.1385 -0.1847 -0.3172
  781POPS   GL211186  -0.602   3.377   6.131  0.1167 -0.0466 -0.1079
  781POPS   C1A11187  -0.386   3.245   6.579 -0.2813 -0.0841  0.0264
  781POPS   D2A11188  -0.403   3.260   7.055  0.0242  0.1140  0.1271
  781POPS   C3A11189  -0.158   3.418   7.425 -0.0846 -0.0464 -0.2486
  781POPS   C4A11190  -0.056   3.772   7.826 -0.1328  0.1997  0.3716
  781POPS   C1B11191  -0.793   3.608   6.510  0.2140  0.2564 -0.1439
  781POPS   C2B11192  -0.566   3.800   6.850  0.1764 -0.0233  0.1583
  781POPS   C3B11193  -0.513   3.714   7.193 -0.2580  0.0951  0.2003
  781POPS   C4B11194  -0.457   3.905   7.549 -0.0153  0.0056 -0.2049
  782POPS   CNO11195  11.699  15.484   5.897 -0.1901  0.1519 -0.0252
  782POPS   PO411196  11.605  15.206   6.209  0.0350 -0.2278 -0.3117
  782POPS   GL111197  11.583  15.330   6.596 -0.1634 -0.3710 -0.0043
  782POPS   GL211198  11.701  15.653   6.788  0.2788 -0.1276 -0.2136
  782POPS   C1A11199  11.328  15.385   7.009  0.2524 -0.0794 -0.1438
  782POPS   D2A11200  11.219  15.207   7.429  0.1979  0.0915 -0.1272
  782POPS   C3A11201  10.883  15.230   7.680  0.3086  0.1290 -0.0632
  782POPS   C4A11202  10.769  15.504   8.050 -0.0110 -0.1695  0.1035
  782POPS   C1B11203  11.864  15.995   7.027 -0.0173 -0.0668 -0.1025
  782POPS   C2B11204  12.048  16.155   7.456 -0.0840 -0.1956  0.0599
  782POPS   C3B11205  12.014  16.069   7.931 -0.2294  0.1047  0.0562
  782POPS   C4B11206  11.706  15.836   8.206  0.0021 -0.2392  0.0473
  783POPS   CNO11207   1.041   7.174   5.730 -0.1217 -0.1133  0.0896
  783POPS   PO411208   1.439   7.071   5.457 -0.2871 -0.1450 -0.0154
  783POPS   GL111209   1.564   7.321   5.797 -0.2254 -0.1702  0.0346
  783POPS   GL211210   1.772   7.528   5.908  0.0174 -0.1157  0.2941
  783POPS   C1A11211   1.300   7.419   6.042 -0.1930 -0.2249 -0.1372
  783POPS   D2A11212   1.063   7.791   6.120 -0.1808  0.0355 -0.0605
  783POPS   C3A11213   0.981   7.937   6.579 -0.0606 -0.4171 -0.0848
  783POPS   C4A11214   1.030   7.983   7.076 -0.0553  0.1514  0.1120
  783POPS   C1B11215   1.888   7.475   6.294 -0.1567  0.0342 -0.0315
  783POPS   C2B11216   1.778   7.527   6.742  0.5723 -0.1845 -0.0064
  783POPS   C3B11217   1.713   7.351   7.066  0.0235 -0.1283  0.0075
  783POPS   C4B11218   1.692   7.040   7.382 -0.0088 -0.2205 -0.1605
  784POPS   CNO11219   5.508  12.744   5.802 -0.0432 -0.0990 -0.2649
  784POPS   PO411220   5.357  12.334   5.824 -0.1823 -0.1463 -0.0020
  784POPS   GL111221   5.558  12.301   6.186 -0.0561  0.1411 -0.1050
  784POPS   GL211222   5.814  12.600   6.309 -0.1802 -0.0151  0.2875
  784POPS   C1A11223   5.420  12.225   6.623  0.1074  0.1016 -0.0373
  784POPS   D2A11224   5.308  12.392   7.054 -0.3237  0.1912 -0.0449
  784POPS   C3A11225   5.219  12.233   7.558  0.0338 -0.0142 -0.0415
  784POPS   C4A11226   5.376  12.447   7.903 -0.0542 -0.1193 -0.1811
  784POPS   C1B11227   5.751  12.564   6.778  0.2201  0.3509  0.1728
  784POPS   C2B11228   5.727  12.652   7.256 -0.1768 -0.0158  0.0498
  784POPS   C3B11229   5.724  12.782   7.676 -0.0189  0.2139 -0.1310
  784POPS   C4B11230   5.461  13.048   7.840  0.0497 -0.0878  0.3188
  785POPS   CNO11231  15.895   8.280   6.463 -0.3146 -0.0080 -0.1333
  785POPS   PO411232  16.163   8.160   6.229 -0.2023 -0.1055  0.0755
  785POPS   GL111233  16.418   8.187   6.655 -0.0756 -0.1810 -0.0671
  785POPS   GL211234  16.708   8.347   6.569 -0.0249 -0.1817 -0.1401
  785POPS   C1A11235  16.485   8.262   7.116  0.0128 -0.0844  0.3111
  785POPS   D2A11236  16.338   8.281   7.523  0.1295 -0.1587  0.2851
  785POPS   C3A11237  16.608   7.999   7.737 -0.0478  0.1806  0.1113
  785POPS   C4A11238  16.904   7.851   7.630 -0.4226 -0.1090  0.1052
  785POPS   C1B11239  16.874   8.032   6.894  0.0708  0.0724 -0.0834
  785POPS   C2B11240  17.157   7.864   7.143  0.0289  0.1675 -0.1213
  785POPS   C3B11241  17.389   7.909   7.540 -0.0777  0.0924 -0.0848
  785POPS   C4B11242  17.770   7.770   7.614  0.1109  0.3074  0.0001
  786POPS   CNO11243   0.574  11.824   5.923 -0.0967  0.3216 -0.2203
  786POPS   PO411244   0.263  11.517   5.932 -0.1038 -0.1343 -0.0749
  786POPS   GL111245   0.216  11.640   6.320  0.3202 -0.2496 -0.1758
  786POPS   GL211246   0.413  11.876   6.462  0.0399 -0.0963 -0.1562
  786POPS   C1A11247   0.193  11.394   6.647  0.2476  0.0349 -0.1110
  786POPS   D2A11248   0.310  11.509   7.072  0.1946  0.1315  0.1153
  786POPS   C3A11249   0.318  11.221   7.421  0.1124 -0.1540 -0.0738
  786POPS   C4A11250   0.590  11.050   7.716  0.1344  0.1393 -0.1061
  786POPS   C1B11251   0.347  12.075   6.746 -0.0177 -0.1006  0.2299
  786POPS   C2B11252   0.184  11.990   7.076 -0.1487  0.0369  0.1325
  786POPS   C3B11253   0.157  11.772   7.397  0.3105 -0.3025 -0.0250
  786POPS   C4B11254   0.057  11.598   7.782 -0.2264 -0.1133 -0.1051
  787POPS   CNO11255   6.109  14.825   5.910  0.0903 -0.3244 -0.0367
  787POPS   PO411256   5.981  14.468   6.061 -0.0020  0.1744  0.0771
  787POPS   GL111257   5.872  14.749   6.385  0.1027 -0.4231  0.0300
  787POPS   GL211258   6.136  14.918   6.446 -0.1526  0.0221 -0.0584
  787POPS   C1A11259   5.747  14.762   6.795 -0.1132  0.0788 -0.1028
  787POPS   D2A11260   5.874  14.753   7.236 -0.2347 -0.1868  0.1209
  787POPS   C3A11261   6.009  14.389   7.588 -0.0370 -0.0862 -0.3156
  787POPS   C4A11262   5.844  14.095   7.739  0.2809 -0.1411  0.0606
  787POPS   C1B11263   6.185  14.495   6.665 -0.2523  0.2694 -0.1213
  787POPS   C2B11264   6.212  14.493   7.049  0.1367  0.1908  0.2231
  787POPS   C3B11265   6.393  14.642   7.401  0.1744 -0.0378  0.0855
  787POPS   C4B11266   6.567  14.967   7.813 -0.2290 -0.2505  0.0485
  788POPS   CNO11267  12.798   0.335   5.802 -0.0391  0.2458  0.0944
  788POPS   PO411268  12.493   0.068   5.965 -0.0845  0.3668 -0.1185
  788POPS   GL111269  12.458  -0.116   6.386  0.0731 -0.2376  0.0128
  788POPS   GL211270  12.425   0.086   6.653 -0.1020 -0.2118  0.1854
  788POPS   C1A11271  12.533  -0.365   6.799 -0.0947 -0.1585  0.3029
  788POPS   D2A11272  12.614  -0.204   7.223 -0.0218  0.1107 -0.0699
  788POPS   C3A11273  12.533  -0.214   7.719  0.3842 -0.0964  0.1149
  788POPS   C4A11274  12.639  -0.065   8.105  0.0308 -0.1307  0.4400
  788POPS   C1B11275  12.208   0.055   6.984  0.0585 -0.0413  0.0669
  788POPS   C2B11276  12.250   0.035   7.445 -0.0773 -0.1780 -0.0439
  788POPS   C3B11277  12.160   0.141   7.810 -0.2806 -0.1397 -0.1264
  788POPS   C4B11278  11.874   0.178   8.209  0.1497 -0.0333  0.0312
  789POPS   CNO11279   7.389  13.982   6.267 -0.3165 -0.1388 -0.1866
  789POPS   PO411280   7.728  14.272   6.116 -0.2708  0.1137  0.1272
  789POPS   GL111281   7.796  14.262   6.523 -0.2502 -0.2834  0.0164
  789POPS   GL211282   8.049  14.273   6.514  0.1640 -0.0544  0.3693
  789POPS   C1A11283   7.636  14.585   6.885 -0.2786 -0.2410 -0.0333
  789POPS   D2A11284   7.530  14.826   7.294 -0.1477  0.0419  0.0167
  789POPS   C3A11285   7.792  14.798   7.698 -0.0147 -0.0697 -0.1487
  789POPS   C4A11286   7.912  14.811   8.079  0.2357  0.1365 -0.0402
  789POPS   C1B11287   8.181  14.323   6.980 -0.1564 -0.1373 -0.1318
  789POPS   C2B11288   8.171  14.035   7.293 -0.1487 -0.2284 -0.0770
  789POPS   C3B11289   8.144  13.969   7.658  0.0027  0.1790  0.1069
  789POPS   C4B11290   8.223  13.889   8.030  0.2934 -0.0262 -0.1538
  790POPS   CNO11291  13.022   3.599   6.038 -0.0202 -0.1147 -0.2181
  790POPS   PO411292  13.318   4.016   6.044 -0.1577  0.1830 -0.0808
  790POPS   GL111293  13.184   3.906   6.381  0.1431 -0.1490  0.1884
  790POPS   GL211294  13.250   3.692   6.515 -0.0491  0.3100 -0.1352
  790POPS   C1A11295  13.042   4.006   6.823  0.2860 -0.1545  0.2746
  790POPS   D2A11296  12.964   4.269   7.143 -0.0579  0.1555  0.0097
  790POPS   C3A11297  13.053   4.203   7.491 -0.3653  0.2079  0.1472
  790POPS   C4A11298  12.977   4.194   7.908  0.1306 -0.0261 -0.2146
  790POPS   C1B11299  13.509   3.881   6.821 -0.0992 -0.2217  0.0711
  790POPS   C2B11300  13.435   4.032   7.135 -0.0030 -0.4422  0.1804
  790POPS   C3B11301  13.546   3.982   7.582 -0.1732 -0.0068 -0.1669
  790POPS   C4B11302  13.599   3.995   8.068  0.2856 -0.2901 -0.0104
  791POPS   CNO11303  12.298   7.999   5.922  0.1801  0.1661  0.4880
  791POPS   PO411304  12.238   8.014   6.279  0.0767  0.1901  0.1793
  791POPS   GL111305  12.039   8.323   6.565 -0.0118 -0.0138  0.0734
  791POPS   GL211306  12.242   8.190   6.793  0.3885  0.1660 -0.0272
  791POPS   C1A11307  11.810   8.411   6.966  0.1437 -0.1662 -0.2297
  791POPS   D2A11308  11.549   8.527   7.320  0.2409 -0.0739  0.2813
  791POPS   C3A11309  11.584   8.169   7.481 -0.0538 -0.0961 -0.0805
  791POPS   C4A11310  11.889   8.012   7.629 -0.0190 -0.2627 -0.2255
  791POPS   C1B11311  12.301   8.234   7.256 -0.0571 -0.2621  0.1854
  791POPS   C2B11312  12.418   8.185   7.655  0.2657  0.0989  0.2680
  791POPS   C3B11313  12.598   7.988   7.967 -0.0605  0.2543  0.1930
  791POPS   C4B11314  12.919   7.798   8.126  0.1818  0.2105  0.2258
  792POPS   CNO11315  14.492  15.127   5.759  0.3378  0.1765 -0.2263
  792POPS   PO411316  14.249  15.023   6.129  0.2079 -0.0731  0.3631
  792POPS   GL111317  14.221  14.962   6.638  0.4201 -0.1353 -0.1339
  792POPS   GL211318  14.455  15.065   6.627 -0.0929 -0.0252 -0.4112
  792POPS   C1A11319  14.114  14.846   7.179 -0.1646 -0.2045  0.2069
  792POPS   D2A11320  13.783  14.766   7.458 -0.3136 -0.2726 -0.0317
  792POPS   C3A11321  13.727  14.896   7.851 -0.0279 -0.0273  0.4642
  792POPS   C4A11322  13.797  15.123   8.277  0.0320  0.1413  0.0621
  792POPS   C1B11323  14.627  15.007   7.026  0.0264 -0.0219 -0.0597
  792POPS   C2B11324  14.436  15.203   7.424 -0.0472 -0.0713 -0.0822
  792POPS   C3B11325  14.335  15.549   7.726  0.3710  0.1049  0.2280
  792POPS   C4B11326  14.518  15.815   8.095 -0.0645 -0.0461  0.1692
  793POPS   CNO11327  10.127   9.698   5.850  0.2583 -0.2050  0.1889
  793POPS   PO411328  10.495   9.895   6.057  0.0767 -0.1985  0.1468
  793POPS   GL111329  10.532   9.861   6.532 -0.0175  0.3195 -0.0200
  793POPS   GL211330  10.402   9.953   6.743  0.1675 -0.0183 -0.0490
  793POPS   C1A11331  10.826   9.809   6.819 -0.0170 -0.0675  0.1060
  793POPS   D2A11332  11.112   9.962   7.163  0.0284  0.0377 -0.0473
  793POPS   C3A11333  11.498   9.804   7.032  0.1501 -0.0034  0.0462
  793POPS   C4A11334  11.885   9.978   6.900 -0.0331 -0.1746 -0.0576
  793POPS   C1B11335  10.459   9.974   7.127 -0.0416 -0.2325  0.0961
  793POPS   C2B11336  10.714   9.803   7.353 -0.0718  0.1634 -0.0521
  793POPS   C3B11337  10.993   9.882   7.632 -0.1098  0.3363 -0.2423
  793POPS   C4B11338  11.416   9.859   7.805  0.1932  0.0433 -0.1296
  794POPS   CNO11339   5.112  11.084   5.464 -0.1502 -0.0905 -0.1291
  794POPS   PO411340   4.973  11.480   5.615  0.0913  0.1927 -0.1520
  794POPS   GL111341   4.889  11.681   6.054 -0.0742  0.0169 -0.0786
  794POPS   GL211342   4.928  11.411   6.260  0.3294 -0.0644  0.1065
  794POPS   C1A11343   4.661  11.890   6.451 -0.0182  0.0219 -0.1842
  794POPS   D2A11344   4.524  11.848   6.872  0.0620 -0.1756 -0.2889
  794POPS   C3A11345   4.259  12.138   7.196  0.2722 -0.1147  0.4068
  794POPS   C4A11346   4.145  12.250   7.643  0.0230 -0.0961  0.0364
  794POPS   C1B11347   4.764  11.448   6.666  0.2084 -0.3134  0.0359
  794POPS   C2B11348   4.476  11.271   7.019 -0.1398  0.2251  0.0802
  794POPS   C3B11349   4.178  11.390   7.404 -0.3086 -0.1631  0.1893
  794POPS   C4B11350   3.889  11.205   7.696  0.2928  0.3087 -0.0253
  795POPS   CNO11351  13.666  17.825   5.964  0.0054 -0.4031 -0.1199
  795POPS   PO411352  13.866  17.670   6.238  0.1464 -0.2295  0.0886
  795POPS   GL111353  14.046  17.763   6.642  0.0468  0.3252 -0.1852
  795POPS   GL211354  14.305  17.602   6.779  0.0538 -0.2046  0.1052
  795POPS   C1A11355  13.901  17.842   6.990 -0.2664 -0.1632  0.0337
  795POPS   D2A11356  13.894  17.736   7.356  0.2732  0.0099 -0.2168
  795POPS   C3A11357  13.661  17.711   7.695  0.0349 -0.2099  0.3070
  795POPS   C4A11358  13.356  17.640   8.053  0.0136  0.0332 -0.0479
  795POPS   C1B11359  14.431  17.377   7.225 -0.1185  0.2648  0.1484
  795POPS   C2B11360  14.253  17.433   7.676  0.1581 -0.2671 -0.1558
  795POPS   C3B11361  13.985  17.439   8.018  0.0860 -0.2361 -0.0195
  795POPS   C4B11362  14.071  17.030   8.328 -0.0880  0.0564 -0.0062
  796POPS   CNO11363  15.512   1.392   6.111 -0.3636  0.0471  0.1162
  796POPS   PO411364  15.102   1.428   6.018 -0.2920  0.0631 -0.1240
  796POPS   GL111365  14.974   1.284   6.389 -0.0507 -0.0740 -0.3122
  796POPS   GL211366  14.957   0.994   6.478 -0.1086  0.1653  0.3539
  796POPS   C1A11367  15.029   1.337   6.819 -0.1604 -0.0674  0.0951
  796POPS   D2A11368  15.018   1.471   7.103  0.2686  0.0550 -0.3361
  796POPS   C3A11369  14.952   1.392   7.477 -0.1915 -0.0636 -0.0760
  796POPS   C4A11370  14.991   1.452   7.896  0.0977  0.1867 -0.2023
  796POPS   C1B11371  14.791   0.820   6.791 -0.3041  0.1992 -0.2617
  796POPS   C2B11372  14.876   0.973   7.190  0.2608  0.1952 -0.0828
  796POPS   C3B11373  14.958   0.744   7.639  0.1255 -0.1167  0.0457
  796POPS   C4B11374  15.283   0.492   7.917  0.3517 -0.0004 -0.0139
  797POPS   CNO11375   3.698   1.649   5.201 -0.4408 -0.1387  0.4749
  797POPS   PO411376   3.599   1.800   5.636  0.0552 -0.0287 -0.1254
  797POPS   GL111377   3.630   1.942   6.094  0.3760 -0.0909  0.2016
  797POPS   GL211378   3.313   1.910   6.238  0.0023  0.0043  0.3667
  797POPS   C1A11379   3.910   2.151   6.434 -0.3280  0.1451  0.0347
  797POPS   D2A11380   3.917   2.329   6.906 -0.0895 -0.0692  0.1667
  797POPS   C3A11381   3.935   2.309   7.299 -0.1609 -0.2513  0.1765
  797POPS   C4A11382   4.269   2.076   7.586  0.2573 -0.1046  0.0009
  797POPS   C1B11383   3.438   1.954   6.733  0.0602 -0.0804  0.2109
  797POPS   C2B11384   3.522   2.044   7.162 -0.3868 -0.0552  0.1044
  797POPS   C3B11385   3.264   2.281   7.531  0.0757 -0.1434  0.1598
  797POPS   C4B11386   3.281   2.342   8.049 -0.2303 -0.2248  0.1260
  798POPS   CNO11387  14.083  12.320   6.093  0.0493  0.3757  0.1621
  798POPS   PO411388  14.442  12.609   6.146 -0.0319 -0.2219  0.0877
  798POPS   GL111389  14.280  12.459   6.580  0.2767 -0.1389 -0.2273
  798POPS   GL211390  14.457  12.140   6.631 -0.0239  0.2029 -0.2363
  798POPS   C1A11391  14.348  12.470   7.003  0.1424 -0.1874  0.1354
  798POPS   D2A11392  14.450  12.511   7.458 -0.1958  0.1065 -0.1610
  798POPS   C3A11393  14.887  12.647   7.582 -0.1363 -0.4159  0.4462
  798POPS   C4A11394  15.310  12.592   7.845  0.2358 -0.1223  0.1605
  798POPS   C1B11395  14.474  11.919   6.988  0.3794  0.0761  0.1829
  798POPS   C2B11396  14.374  11.953   7.363  0.2676 -0.2232 -0.2268
  798POPS   C3B11397  14.511  12.117   7.826  0.2960 -0.1683  0.2567
  798POPS   C4B11398  14.877  12.371   8.042 -0.0525  0.2279  0.0049
  799POPS   CNO11399  17.868   2.638   5.243  0.0977  0.2136  0.1484
  799POPS   PO411400  18.212   2.487   5.600 -0.1050 -0.0275 -0.2108
  799POPS   GL111401  18.170   2.490   6.122 -0.1053  0.1075  0.1086
  799POPS   GL211402  18.534   2.599   6.360 -0.1332 -0.1082 -0.0947
  799POPS   C1A11403  18.093   2.429   6.578  0.0647  0.1241 -0.3797
  799POPS   D2A11404  17.954   2.362   6.971 -0.2322 -0.4561  0.1688
  799POPS   C3A11405  17.874   1.966   7.270  0.0494  0.0423  0.0100
  799POPS   C4A11406  17.915   1.532   7.358 -0.1208  0.2440 -0.2525
  799POPS   C1B11407  18.561   2.647   6.761  0.1374 -0.1300  0.0042
  799POPS   C2B11408  18.387   2.577   7.245 -0.1842 -0.0084 -0.0081
  799POPS   C3B11409  18.615   2.699   7.622  0.0442  0.2931 -0.1879
  799POPS   C4B11410  18.984   2.857   7.807 -0.1671 -0.0199  0.3606
  800POPS   CNO11411   5.516  17.603   5.579  0.2067  0.1648  0.1418
  800POPS   PO411412   5.432  17.227   5.934  0.2354  0.4091  0.1381
  800POPS   GL111413   5.436  17.141   6.332  0.0008 -0.2968  0.0368
  800POPS   GL211414   5.700  17.178   6.440 -0.1429  0.0957 -0.1691
  800POPS   C1A11415   5.430  16.876   6.714  0.1615  0.1098 -0.2512
  800POPS   D2A11416   5.588  16.943   7.188  0.2493  0.0271  0.0608
  800POPS   C3A11417   5.598  16.623   7.555 -0.1682 -0.0830  0.0755
  800POPS   C4A11418   5.334  16.311   7.788 -0.1222 -0.0582  0.1127
  800POPS   C1B11419   5.649  17.513   6.603  0.0475  0.0461 -0.1725
  800POPS   C2B11420   5.678  17.840   6.825 -0.0121 -0.0894 -0.0072
  800POPS   C3B11421   5.741  17.849   7.190  0.0500  0.2851 -0.0529
  800POPS   C4B11422   5.578  18.133   7.536 -0.1939  0.0884  0.0356
  801POPS   CNO11423  13.461  15.621   6.221 -0.1688  0.0984 -0.0805
  801POPS   PO411424  13.225  15.953   6.031 -0.0722 -0.1149 -0.1817
  801POPS   GL111425  13.301  15.971   6.483  0.4066  0.1242 -0.1861
  801POPS   GL211426  13.210  15.707   6.644 -0.0210  0.0081  0.1692
  801POPS   C1A11427  13.677  15.834   6.724 -0.3138  0.1590 -0.2610
  801POPS   D2A11428  14.051  15.777   6.854  0.0265  0.1183 -0.2934
  801POPS   C3A11429  13.967  15.807   7.327 -0.1289 -0.2974 -0.1013
  801POPS   C4A11430  13.594  15.687   7.605 -0.1698 -0.0686 -0.0029
  801POPS   C1B11431  12.994  15.865   6.937  0.0837  0.0634 -0.1784
  801POPS   C2B11432  12.857  16.039   7.387 -0.1163  0.3595 -0.1299
  801POPS   C3B11433  12.871  16.337   7.747 -0.2067 -0.1865 -0.1002
  801POPS   C4B11434  12.943  16.595   8.100  0.3970  0.0076  0.1185
  802POPS   CNO11435   8.377   1.568   6.048  0.0404  0.0256 -0.0149
  802POPS   PO411436   8.044   1.445   6.346 -0.0887 -0.2554 -0.2058
  802POPS   GL111437   8.022   1.497   6.806  0.1786 -0.0248  0.0944
  802POPS   GL211438   7.843   1.333   6.895  0.0718  0.0261 -0.1263
  802POPS   C1A11439   7.975   1.647   7.259  0.1717  0.0327 -0.2653
  802POPS   D2A11440   7.648   1.584   7.550 -0.0000 -0.0771  0.2623
  802POPS   C3A11441   7.487   1.844   7.726  0.0498 -0.0151  0.0789
  802POPS   C4A11442   7.552   2.162   8.085 -0.0568  0.2310  0.3771
  802POPS   C1B11443   7.673   1.196   7.074 -0.2576  0.0518 -0.0149
  802POPS   C2B11444   7.569   1.074   7.412  0.0465  0.0389  0.0982
  802POPS   C3B11445   7.466   1.024   7.879 -0.2154 -0.0372 -0.0976
  802POPS   C4B11446   7.651   1.016   8.291  0.2255 -0.1242  0.3441
  803POPS   CNO11447   0.257  11.121   5.651 -0.0321 -0.0089 -0.2168
  803POPS   PO411448   0.589  10.782   5.726 -0.0887 -0.0453 -0.2543
  803POPS   GL111449   0.459  10.974   6.089 -0.0658  0.0688 -0.2832
  803POPS   GL211450   0.041  10.966   6.173 -0.0741 -0.2279 -0.0063
  803POPS   C1A11451   0.584  10.988   6.370 -0.0686 -0.0725  0.1330
  803POPS   D2A11452   0.571  10.986   6.792 -0.0639  0.1991 -0.1712
  803POPS   C3A11453   0.654  10.862   7.189  0.2369 -0.0677 -0.1873
  803POPS   C4A11454   0.946  10.677   7.511 -0.2747  0.0645  0.0805
  803POPS   C1B11455   0.037  10.883   6.608  0.2222 -0.2049  0.1452
  803POPS   C2B11456   0.142  10.809   7.043  0.0046  0.0179 -0.0086
  803POPS   C3B11457   0.085  10.780   7.534  0.2453 -0.1323 -0.0652
  803POPS   C4B11458   0.148  11.074   7.871 -0.2639  0.0906 -0.0094
  804POPS   CNO11459   6.809   9.633   5.702 -0.3450 -0.0649 -0.0971
  804POPS   PO411460   7.213   9.863   5.625 -0.0507  0.0033 -0.1974
  804POPS   GL111461   7.091   9.845   6.135  0.0207 -0.0442 -0.2674
  804POPS   GL211462   7.026  10.196   6.180 -0.0060  0.3725 -0.0185
  804POPS   C1A11463   7.288   9.920   6.573 -0.1558 -0.0668  0.0062
  804POPS   D2A11464   7.493  10.043   6.949 -0.3325  0.1120 -0.2848
  804POPS   C3A11465   7.402   9.766   7.261  0.0439 -0.1431 -0.1601
  804POPS   C4A11466   7.291   9.424   7.565  0.0341 -0.0443  0.0882
  804POPS   C1B11467   6.931  10.293   6.548  0.0127 -0.2145 -0.1267
  804POPS   C2B11468   7.138  10.378   6.857  0.1235 -0.1248 -0.0973
  804POPS   C3B11469   7.247  10.582   7.134 -0.0057  0.0874 -0.3012
  804POPS   C4B11470   7.163  10.630   7.555 -0.0240  0.0682 -0.0493
  805POPS   CNO11471   6.091   0.211   5.624 -0.0967 -0.3286 -0.0140
  805POPS   PO411472   5.719   0.068   5.442 -0.0047 -0.3534  0.1599
  805POPS   GL111473   5.735  -0.034   5.917 -0.1005 -0.1360  0.1538
  805POPS   GL211474   5.825   0.301   6.019 -0.0660 -0.0833  0.1754
  805POPS   C1A11475   5.888  -0.078   6.335  0.1718 -0.0701 -0.1560
  805POPS   D2A11476   6.148   0.048   6.760 -0.2791  0.0809 -0.0275
  805POPS   C3A11477   6.194   0.251   7.124  0.0174 -0.0260 -0.0833
  805POPS   C4A11478   6.015   0.344   7.445 -0.2972 -0.2123  0.1656
  805POPS   C1B11479   5.848   0.425   6.438 -0.0050  0.2177  0.1047
  805POPS   C2B11480   5.869   0.515   6.785  0.1904 -0.1306  0.1067
  805POPS   C3B11481   5.720   0.658   7.156  0.0412  0.0826  0.1466
  805POPS   C4B11482   5.680   0.652   7.600 -0.1849 -0.1751 -0.0347
  806POPS   CNO11483  17.120  13.147   6.366 -0.0645  0.2676 -0.0204
  806POPS   PO411484  16.809  12.877   6.182  0.1433 -0.2514  0.0496
  806POPS   GL111485  16.646  13.050   6.509  0.0452  0.2264 -0.2100
  806POPS   GL211486  16.351  13.233   6.599  0.3200  0.1972 -0.0860
  806POPS   C1A11487  16.974  13.033   6.825  0.2803 -0.1915  0.0430
  806POPS   D2A11488  17.130  13.059   7.223 -0.2171  0.0359  0.1771
  806POPS   C3A11489  16.999  13.194   7.677 -0.0040 -0.2638  0.0296
  806POPS   C4A11490  16.957  13.078   8.050 -0.1487 -0.1697 -0.1916
  806POPS   C1B11491  16.269  13.083   6.932  0.0466 -0.0289  0.0127
  806POPS   C2B11492  16.177  13.029   7.388  0.0277  0.1864  0.0126
  806POPS   C3B11493  16.209  12.765   7.654 -0.0549 -0.1249 -0.1696
  806POPS   C4B11494  16.218  12.449   7.941 -0.2221 -0.0580 -0.0624
  807POPS   CNO11495   3.048   5.293   5.858 -0.1363 -0.1072  0.1308
  807POPS   PO411496   3.422   4.928   5.932 -0.0649 -0.2158  0.1041
  807POPS   GL111497   3.254   5.082   6.306 -0.2994 -0.0292 -0.0260
  807POPS   GL211498   3.584   5.269   6.332 -0.1150  0.2732  0.1156
  807POPS   C1A11499   2.830   5.010   6.562 -0.1557  0.1152  0.0536
  807POPS   D2A11500   2.951   4.927   6.968  0.0001 -0.0524  0.3395
  807POPS   C3A11501   2.952   4.725   7.311 -0.0409 -0.0764 -0.1329
  807POPS   C4A11502   2.869   4.378   7.561  0.1053  0.1311 -0.0616
  807POPS   C1B11503   3.628   5.642   6.562  0.0785  0.0123  0.0166
  807POPS   C2B11504   3.851   5.931   6.770 -0.2706 -0.4390  0.0524
  807POPS   C3B11505   3.844   5.966   7.183 -0.0985  0.1156 -0.2254
  807POPS   C4B11506   3.715   5.951   7.618  0.2831  0.2257 -0.1597
  808POPS   CNO11507   7.457  16.877   5.471  0.1513 -0.3164  0.0360
  808POPS   PO411508   7.251  17.179   5.764 -0.0432  0.0357 -0.1495
  808POPS   GL111509   7.043  17.377   6.123 -0.1084  0.3937  0.1682
  808POPS   GL211510   6.668  17.206   6.215 -0.0939  0.2539 -0.0122
  808POPS   C1A11511   7.118  17.649   6.479 -0.0319  0.0712  0.1267
  808POPS   D2A11512   7.159  17.752   6.907  0.1677 -0.2167  0.0843
  808POPS   C3A11513   6.991  17.693   7.259 -0.2482  0.0341 -0.2609
  808POPS   C4A11514   6.785  17.746   7.690 -0.1273  0.0394 -0.3193
  808POPS   C1B11515   6.705  17.411   6.544  0.2050  0.0766 -0.2673
  808POPS   C2B11516   6.619  17.813   6.725  0.3508 -0.0210 -0.0874
  808POPS   C3B11517   6.676  17.992   7.050  0.3467  0.0151 -0.0037
  808POPS   C4B11518   6.617  18.455   7.090  0.0803 -0.1776 -0.1296
  809POPS   CNO11519  15.757   9.852   6.083 -0.0720  0.1118  0.0274
  809POPS   PO411520  15.835   9.563   5.860  0.0500  0.1513  0.1751
  809POPS   GL111521  15.809   9.417   6.310 -0.0355  0.1596 -0.1670
  809POPS   GL211522  16.017   9.516   6.445 -0.2091 -0.0910 -0.1329
  809POPS   C1A11523  15.825   9.068   6.626  0.0610  0.0236 -0.2173
  809POPS   D2A11524  16.013   8.675   6.731  0.0404 -0.0926  0.3415
  809POPS   C3A11525  16.085   8.633   7.143  0.0449  0.0588 -0.1583
  809POPS   C4A11526  15.931   8.670   7.533  0.1556 -0.1934 -0.0348
  809POPS   C1B11527  16.019   9.588   6.920  0.3180  0.0745 -0.0886
  809POPS   C2B11528  15.883   9.671   7.307 -0.3067 -0.2610 -0.2548
  809POPS   C3B11529  15.837   9.583   7.749 -0.0537 -0.1022  0.0460
  809POPS   C4B11530  16.103   9.361   8.125  0.0797  0.0057 -0.2607
  810POPS   CNO11531   6.506  16.741   5.508  0.2723 -0.1713  0.1302
  810POPS   PO411532   6.285  17.044   5.892 -0.2339  0.1573 -0.1408
  810POPS   GL111533   6.201  17.005   6.354  0.0497  0.1193 -0.0755
  810POPS   GL211534   6.173  16.672   6.423 -0.2839  0.0760  0.0209
  810POPS   C1A11535   5.966  16.884   6.848 -0.2438 -0.0186 -0.2887
  810POPS   D2A11536   6.133  16.826   7.262 -0.0184 -0.0469  0.1335
  810POPS   C3A11537   6.061  17.035   7.667 -0.0048  0.3104  0.0054
  810POPS   C4A11538   5.911  17.055   8.032 -0.0290  0.0371  0.0054
  810POPS   C1B11539   6.372  16.482   6.814 -0.0245 -0.1198  0.1710
  810POPS   C2B11540   6.324  16.300   7.160 -0.0695 -0.0322 -0.0597
  810POPS   C3B11541   6.100  16.483   7.695  0.0554  0.0676  0.1925
  810POPS   C4B11542   5.899  16.287   7.977 -0.0189  0.1841 -0.1826
  811POPS   CNO11543   8.906   7.161   5.890 -0.0457  0.0352 -0.2417
  811POPS   PO411544   9.194   7.069   6.262  0.0196 -0.1610  0.0290
  811POPS   GL111545   9.000   6.914   6.676 -0.2712 -0.1796 -0.0842
  811POPS   GL211546   9.156   7.065   6.843  0.0878  0.0410  0.2461
  811POPS   C1A11547   8.774   6.870   7.047 -0.1704  0.1950 -0.1861
  811POPS   D2A11548   8.533   6.915   7.388  0.0646 -0.0341 -0.2159
  811POPS   C3A11549   8.563   6.819   7.933  0.1497 -0.0217 -0.1029
  811POPS   C4A11550   8.531   6.841   8.339  0.1692  0.0263 -0.0280
  811POPS   C1B11551   9.261   7.023   7.272  0.0052 -0.0970  0.0920
  811POPS   C2B11552   9.072   6.798   7.556 -0.2835 -0.2445 -0.1391
  811POPS   C3B11553   9.065   6.822   7.935  0.3782  0.1366  0.4868
  811POPS   C4B11554   9.028   6.938   8.332 -0.2673  0.0537  0.0825
  812YOPS   CNO11555  15.854  10.737   6.333  0.0270 -0.2893 -0.1676
  812YOPS   PO411556  16.239  10.359   6.246 -0.0660  0.2607  0.1598
  812YOPS   GL111557  16.292  10.480   6.662  0.2384 -0.1174  0.0262
  812YOPS   GL211558  16.286  10.778   6.691  0.0148 -0.1391 -0.0026
  812YOPS   C1A11559  16.146  10.553   7.088  0.1362  0.1567 -0.2853
  812YOPS   D2A11560  16.143  10.505   7.482 -0.0212  0.0139 -0.1551
  812YOPS   C3A11561  16.249  10.607   7.845  0.0841 -0.0436 -0.0140
  812YOPS   C4A11562  16.066  10.957   7.833  0.0663  0.0050 -0.0507
  812YOPS   C1B11563  15.778  10.801   6.837 -0.0591 -0.1872  0.2112
  812YOPS   C2B11564  15.454  10.628   7.174 -0.1802  0.4437  0.0499
  812YOPS   D3B11565  15.298  10.420   7.397  0.3742 -0.0266 -0.1402
  812YOPS   C4B11566  15.278  10.408   7.758  0.1038  0.0742  0.0055
  813YOPS   CNO11567   8.043   5.858   6.388  0.3422  0.0129 -0.2201
  813YOPS   PO411568   8.086   5.483   6.153  0.0109  0.1795  0.0712
  813YOPS   GL111569   8.307   5.451   6.464 -0.2261 -0.1140  0.3469
  813YOPS   GL211570   8.101   5.600   6.820 -0.0827  0.0485 -0.0499
  813YOPS   C1A11571   8.561   5.426   6.826  0.1686 -0.0689 -0.0249
  813YOPS   D2A11572   8.389   5.388   7.230  0.1074  0.1303 -0.0427
  813YOPS   C3A11573   8.400   5.348   7.712  0.0411  0.2599  0.3377
  813YOPS   C4A11574   7.998   5.091   7.941 -0.3965  0.1615  0.1000
  813YOPS   C1B11575   7.938   5.730   7.283  0.1351  0.2987 -0.2175
  813YOPS   C2B11576   7.902   5.565   7.691 -0.0550  0.1989 -0.1251
  813YOPS   D3B11577   7.655   5.422   7.983 -0.0023 -0.1415  0.1422
  813YOPS   C4B11578   7.460   5.120   8.206 -0.1025 -0.2797 -0.1270
  814YOPS   CNO11579  16.931   5.220   5.641  0.0260  0.1901  0.2690
  814YOPS   PO411580  17.334   5.075   5.599 -0.1946 -0.1382  0.1107
  814YOPS   GL111581  17.337   5.160   5.983 -0.1863  0.0759 -0.1567
  814YOPS   GL211582  17.698   5.305   6.047 -0.0077 -0.1603  0.0080
  814YOPS   C1A11583  17.380   5.198   6.430  0.0841  0.1345  0.0129
  814YOPS   D2A11584  17.354   5.364   6.863 -0.1736  0.3616 -0.4134
  814YOPS   C3A11585  17.305   5.726   7.161  0.0006  0.1548 -0.1872
  814YOPS   C4A11586  16.994   5.641   7.499 -0.5128 -0.0387  0.1764
  814YOPS   C1B11587  17.927   5.262   6.388  0.0143  0.4181  0.2689
  814YOPS   C2B11588  17.940   5.251   6.986  0.2275 -0.0016  0.0588
  814YOPS   D3B11589  17.968   5.213   7.478 -0.1703 -0.3076  0.1666
  814YOPS   C4B11590  18.262   5.039   7.745  0.1534 -0.1794  0.0985
  815YOPS   CNO11591  11.978  11.464   6.361  0.0456  0.1386 -0.0115
  815YOPS   PO411592  11.787  11.776   6.483  0.0601 -0.1027 -0.0844
  815YOPS   GL111593  11.671  11.787   6.756 -0.3724 -0.1064 -0.0276
  815YOPS   GL211594  11.766  11.892   7.039 -0.0999  0.1166  0.0975
  815YOPS   C1A11595  11.488  11.497   7.130  0.0086  0.0871 -0.2113
  815YOPS   D2A11596  11.553  11.428   7.496 -0.1570  0.1069  0.0830
  815YOPS   C3A11597  11.442  11.276   7.824 -0.0250 -0.2429 -0.1683
  815YOPS   C4A11598  11.347  10.906   8.092  0.1780 -0.2123 -0.0482
  815YOPS   C1B11599  11.809  11.837   7.495  0.1135  0.1267  0.0396
  815YOPS   C2B11600  11.719  11.652   7.914 -0.0880 -0.2562  0.1244
  815YOPS   D3B11601  11.879  11.435   8.163 -0.0273 -0.1124 -0.1831
  815YOPS   C4B11602  12.224  11.293   8.347 -0.2030  0.5513 -0.2019
  816YOPS   CNO11603   9.684   2.714   6.204  0.0368  0.0974  0.1664
  816YOPS   PO411604   9.983   2.519   6.500 -0.0764 -0.2962 -0.1016
  816YOPS   GL111605   9.912   2.565   6.827  0.1671  0.1984 -0.0001
  816YOPS   GL211606   9.852   2.910   6.894 -0.0950 -0.1269  0.2778
  816YOPS   C1A11607   9.980   2.582   7.335  0.0986 -0.4061 -0.1673
  816YOPS   D2A11608  10.073   2.471   7.707  0.1023  0.0047 -0.0264
  816YOPS   C3A11609   9.776   2.538   8.063 -0.4686 -0.2792 -0.0228
  816YOPS   C4A11610   9.966   2.230   8.425  0.0613  0.0730  0.1839
  816YOPS   C1B11611   9.850   3.088   7.346 -0.1499 -0.1236  0.1576
  816YOPS   C2B11612   9.866   2.976   7.794  0.2455  0.2200 -0.1884
  816YOPS   D3B11613  10.156   2.932   8.160 -0.0824 -0.0383 -0.2170
  816YOPS   C4B11614  10.173   3.247   8.462 -0.0662  0.2186  0.0106
  817YOPS   CNO11615  16.905  17.211   6.125  0.0439  0.2176 -0.0452
  817YOPS   PO411616  16.693  17.586   6.174  0.0565 -0.1982 -0.0405
  817YOPS   GL111617  16.846  17.445   6.593 -0.0225  0.0627  0.2354
  817YOPS   GL211618  16.499  17.162   6.699 -0.2176 -0.1812  0.0000
  817YOPS   C1A11619  17.137  17.459   6.871 -0.3522 -0.0437 -0.1138
  817YOPS   D2A11620  17.566  17.729   6.909  0.2433 -0.0465  0.1652
  817YOPS   C3A11621  17.819  18.023   6.915  0.2967  0.2451 -0.1758
  817YOPS   C4A11622  18.069  18.042   7.267 -0.2311 -0.5195 -0.2311
  817YOPS   C1B11623  16.768  17.160   7.059  0.3091  0.0993  0.0152
  817YOPS   C2B11624  16.753  17.142   7.509  0.2707 -0.2424 -0.2962
  817YOPS   D3B11625  16.591  16.978   7.885  0.0352  0.0400 -0.1348
  817YOPS   C4B11626  16.648  17.006   8.263  0.1292  0.0293 -0.0770
  818YOPS   CNO11627  11.938   1.737   6.160  0.3413  0.2423 -0.1364
  818YOPS   PO411628  12.262   2.025   6.282  0.2314 -0.1382 -0.0120
  818YOPS   GL111629  12.509   1.987   6.654 -0.2056  0.2274  0.0608
  818YOPS   GL211630  12.617   1.710   6.658  0.0868 -0.1147  0.1278
  818YOPS   C1A11631  12.515   2.046   7.077 -0.1856  0.1043 -0.4109
  818YOPS   D2A11632  12.332   2.177   7.474 -0.5024  0.3038 -0.4610
  818YOPS   C3A11633  12.109   2.194   7.653  0.1880  0.1142 -0.1290
  818YOPS   C4A11634  11.735   2.599   7.662 -0.3238  0.0403 -0.0038
  818YOPS   C1B11635  12.869   1.709   7.003 -0.1681  0.0625 -0.0727
  818YOPS   C2B11636  13.341   1.481   7.135  0.1737  0.2135 -0.3427
  818YOPS   D3B11637  13.557   1.299   7.549  0.2352  0.4036  0.1157
  818YOPS   C4B11638  13.266   1.053   7.863  0.1052  0.0723 -0.2470
  819YOPS   CNO11639  14.883  11.538   6.038 -0.3009 -0.0706 -0.1343
  819YOPS   PO411640  15.132  11.931   6.101 -0.0315  0.1835 -0.2255
  819YOPS   GL111641  15.148  12.075   6.430 -0.1033 -0.0159 -0.0465
  819YOPS   GL211642  15.369  11.858   6.571  0.1820 -0.1446 -0.1595
  819YOPS   C1A11643  14.981  12.165   6.777 -0.2393 -0.2167  0.0983
  819YOPS   D2A11644  14.806  12.255   7.136  0.0946 -0.2426 -0.4264
  819YOPS   C3A11645  14.955  12.125   7.494 -0.0960 -0.0515 -0.2252
  819YOPS   C4A11646  14.814  11.754   7.472  0.0457  0.1001  0.2983
  819YOPS   C1B11647  15.285  11.894   7.059  0.2036  0.1884  0.1814
  819YOPS   C2B11648  15.318  11.710   7.409 -0.1617  0.1527  0.0174
  819YOPS   D3B11649  15.612  11.706   7.758 -0.0049 -0.2255 -0.0001
  819YOPS   C4B11650  15.439  11.664   8.193  0.2488 -0.3246  0.0042
  820YOPS   CNO11651  16.970  12.415   6.024  0.0762 -0.0711 -0.0308
  820YOPS   PO411652  17.483  12.403   6.132 -0.2268 -0.0149 -0.2539
  820YOPS   GL111653  17.213  12.618   6.425 -0.2179  0.2092 -0.0867
  820YOPS   GL211654  16.937  12.518   6.557 -0.2930 -0.0062  0.1097
  820YOPS   C1A11655  17.324  12.580   6.841 -0.2001  0.3842  0.0565
  820YOPS   D2A11656  17.136  12.572   7.135  0.0738 -0.0307 -0.0473
  820YOPS   C3A11657  17.236  12.710   7.488 -0.0450  0.0812  0.0199
  820YOPS   C4A11658  17.721  12.621   7.615  0.0559 -0.1170  0.1446
  820YOPS   C1B11659  16.798  12.218   6.779 -0.1628  0.0392 -0.1155
  820YOPS   C2B11660  16.751  12.150   7.224 -0.4784  0.0772  0.1092
  820YOPS   D3B11661  17.044  12.284   7.663  0.0668 -0.3759 -0.0771
  820YOPS   C4B11662  17.420  12.216   7.767 -0.2599 -0.1157 -0.1458
  821YOPS   CNO11663   2.156   0.883   5.903 -0.0398 -0.2976 -0.1338
  821YOPS   PO411664   2.276   0.642   6.152  0.2068  0.1465  0.1121
  821YOPS   GL111665   2.214   0.464   6.533 -0.2828  0.0733  0.0331
  821YOPS   GL211666   2.285   0.173   6.668 -0.0810  0.2826 -0.1324
  821YOPS   C1A11667   1.973   0.605   6.872 -0.2727  0.0516 -0.1163
  821YOPS   D2A11668   1.812   0.741   7.186 -0.0341  0.0218  0.0162
  821YOPS   C3A11669   1.804   1.083   7.501  0.2340  0.2287 -0.1665
  821YOPS   C4A11670   2.251   1.093   7.810  0.1215  0.2970  0.0221
  821YOPS   C1B11671   2.213   0.145   7.102 -0.3549  0.0709 -0.0876
  821YOPS   C2B11672   2.027   0.321   7.414  0.0525 -0.2205 -0.2896
  821YOPS   D3B11673   2.003   0.657   7.735 -0.0473 -0.1014  0.0438
  821YOPS   C4B11674   1.839   0.662   8.154  0.2894  0.3093  0.0340
  822YOPS   CNO11675   8.817  13.711   6.511  0.2138 -0.3227  0.2188
  822YOPS   PO411676   8.512  13.932   6.356  0.0842 -0.1388 -0.2167
  822YOPS   GL111677   8.325  13.941   6.705  0.0748  0.1323  0.3712
  822YOPS   GL211678   8.607  13.987   6.961  0.0332 -0.3073  0.0604
  822YOPS   C1A11679   8.117  13.622   7.016  0.2148  0.0843 -0.1900
  822YOPS   D2A11680   8.293  13.589   7.455  0.1492  0.0428  0.1607
  822YOPS   C3A11681   8.237  13.337   7.889  0.0576 -0.0606 -0.0507
  822YOPS   C4A11682   8.353  12.845   7.973 -0.3467 -0.1539  0.1233
  822YOPS   C1B11683   8.650  13.979   7.469  0.1980 -0.2294  0.1274
  822YOPS   C2B11684   8.753  14.153   7.969  0.1287  0.0615  0.0113
  822YOPS   D3B11685   9.158  14.250   8.258 -0.0956 -0.0095 -0.0566
  822YOPS   C4B11686   9.135  14.286   8.705  0.1235 -0.2995  0.0798
  823YOPS   CNO11687   5.001   3.917   5.317  0.0864  0.1642  0.0885
  823YOPS   PO411688   5.212   3.937   5.760  0.1410 -0.0942 -0.0773
  823YOPS   GL111689   5.181   4.020   6.170 -0.0607 -0.0917 -0.0077
  823YOPS   GL211690   5.029   4.316   6.349 -0.3372  0.0632 -0.0401
  823YOPS   C1A11691   5.160   3.750   6.514 -0.1481 -0.1472  0.2251
  823YOPS   D2A11692   4.807   3.412   6.720 -0.2809  0.3097 -0.2565
  823YOPS   C3A11693   4.489   3.059   6.956 -0.2096  0.1738  0.1407
  823YOPS   C4A11694   4.291   3.216   7.189  0.2641 -0.2894 -0.0037
  823YOPS   C1B11695   5.057   4.278   6.833  0.0297  0.3150 -0.2735
  823YOPS   C2B11696   4.917   4.151   7.291 -0.0693 -0.2302  0.2264
  823YOPS   D3B11697   4.908   4.034   7.734  0.0145  0.1247 -0.1944
  823YOPS   C4B11698   4.971   4.379   7.920  0.0711  0.1902  0.2298
  824YOPS   CNO11699   2.221   9.037   5.332  0.2015 -0.0444  0.1417
  824YOPS   PO411700   1.900   8.794   5.424  0.0536  0.0295  0.0161
  824YOPS   GL111701   2.022   8.747   5.762  0.1041  0.0753  0.3112
  824YOPS   GL211702   2.347   8.908   5.838 -0.0157  0.1067  0.0265
  824YOPS   C1A11703   2.286   8.392   5.867  0.0051 -0.1237 -0.0209
  824YOPS   D2A11704   2.598   8.022   5.827  0.0553  0.2575  0.0237
  824YOPS   C3A11705   2.800   7.683   6.143  0.0355  0.0127 -0.0298
  824YOPS   C4A11706   3.210   7.808   6.328  0.0897 -0.0706 -0.2387
  824YOPS   C1B11707   2.538   8.790   6.159  0.0956 -0.1555 -0.0581
  824YOPS   C2B11708   2.816   8.641   6.455  0.0875 -0.0606  0.4333
  824YOPS   D3B11709   3.096   8.332   6.623  0.0369 -0.1424  0.2765
  824YOPS   C4B11710   3.299   8.014   6.797 -0.0948  0.1914 -0.3143
  825YOPS   CNO11711  12.828  16.439   5.549  0.1944  0.2474 -0.1665
  825YOPS   PO411712  12.727  16.177   5.991  0.1500  0.0332 -0.4516
  825YOPS   GL111713  12.972  16.295   6.294 -0.0267  0.0795  0.0906
  825YOPS   GL211714  12.747  16.275   6.573  0.0991  0.1098 -0.1652
  825YOPS   C1A11715  13.067  16.701   6.544 -0.3909  0.0876 -0.2813
  825YOPS   D2A11716  13.397  16.582   6.865  0.1315  0.0490 -0.0318
  825YOPS   C3A11717  13.377  16.198   6.904  0.1070  0.3492  0.0807
  825YOPS   C4A11718  13.449  16.019   7.233 -0.2108  0.2558 -0.1212
  825YOPS   C1B11719  12.901  16.430   7.004  0.1215  0.0764  0.1716
  825YOPS   C2B11720  13.014  16.851   7.139  0.2852 -0.0970  0.0661
  825YOPS   D3B11721  12.947  17.155   6.804 -0.1592 -0.0085 -0.1597
  825YOPS   C4B11722  13.028  17.528   6.962 -0.0962  0.1552 -0.4819
  826YOPS   CNO11723  13.723   6.427   6.681  0.4338  0.3882  0.2465
  826YOPS   PO411724  13.412   6.538   6.297 -0.1299 -0.2811 -0.0900
  826YOPS   GL111725  13.212   6.351   6.723  0.0259 -0.0001  0.5274
  826YOPS   GL211726  13.386   6.152   6.937 -0.1416 -0.0326  0.3114
  826YOPS   C1A11727  12.960   6.322   7.045  0.3073  0.0420  0.0376
  826YOPS   D2A11728  13.063   6.204   7.448 -0.2201 -0.0729  0.0078
  826YOPS   C3A11729  13.296   5.808   7.762 -0.0594 -0.0482 -0.5126
  826YOPS   C4A11730  13.166   5.798   8.215  0.0508 -0.2513 -0.1260
  826YOPS   C1B11731  13.585   6.149   7.376  0.4347 -0.3417  0.0220
  826YOPS   C2B11732  13.452   6.283   7.841 -0.4263 -0.0337 -0.0405
  826YOPS   D3B11733  13.212   6.358   8.209 -0.0428 -0.1382  0.1270
  826YOPS   C4B11734  13.275   6.117   8.602  0.0319  0.4553  0.1738
  827YOPS   CNO11735   7.606   2.420   5.992 -0.3728 -0.1128  0.0868
  827YOPS   PO411736   7.765   2.841   5.928 -0.2386  0.1278  0.0124
  827YOPS   GL111737   7.797   3.093   6.390 -0.1233  0.2509 -0.3662
  827YOPS   GL211738   7.645   3.372   6.497  0.1535 -0.0723  0.1316
  827YOPS   C1A11739   7.730   3.041   6.831  0.3193  0.1952  0.2615
  827YOPS   D2A11740   7.606   3.177   7.218 -0.1644  0.0699  0.0419
  827YOPS   C3A11741   7.413   3.581   7.348 -0.0571 -0.0869  0.0683
  827YOPS   C4A11742   7.127   3.712   7.750 -0.3386  0.0142  0.0100
  827YOPS   C1B11743   7.313   3.446   6.785 -0.1557 -0.1146 -0.1374
  827YOPS   C2B11744   6.990   3.769   6.840  0.0352 -0.2088 -0.0810
  827YOPS   D3B11745   6.597   3.855   6.911  0.1409 -0.1824 -0.0392
  827YOPS   C4B11746   6.173   3.701   7.125 -0.3470  0.2448  0.2476
  828YOPS   CNO11747  17.376  15.443   6.354  0.0908 -0.1872 -0.0426
  828YOPS   PO411748  17.685  15.300   6.151 -0.0071 -0.1183 -0.1046
  828YOPS   GL111749  17.957  15.183   6.327 -0.1225 -0.3614  0.0302
  828YOPS   GL211750  18.316  15.184   6.326 -0.3776 -0.0544 -0.0017
  828YOPS   C1A11751  18.090  14.801   6.570 -0.1560  0.4613 -0.0589
  828YOPS   D2A11752  18.470  14.788   6.935  0.3409  0.0572  0.0417
  828YOPS   C3A11753  18.319  14.974   7.284 -0.0148 -0.0096  0.2486
  828YOPS   C4A11754  18.024  15.045   7.460 -0.2053 -0.1222  0.1055
  828YOPS   C1B11755  18.216  15.349   6.791 -0.0509  0.0730  0.3858
  828YOPS   C2B11756  17.852  15.262   7.028 -0.0661  0.2017 -0.0432
  828YOPS   D3B11757  17.586  14.992   7.259  0.0115  0.1623 -0.0988
  828YOPS   C4B11758  17.318  14.813   7.215  0.2271  0.2092  0.0312
  829YOPS   CNO11759  16.750  10.336   6.455  0.1611  0.2212  0.0479
  829YOPS   PO411760  17.045  10.547   6.273 -0.1915  0.3001  0.1224
  829YOPS   GL111761  17.333  10.346   6.566 -0.3459 -0.1228 -0.1368
  829YOPS   GL211762  17.101  10.082   6.680  0.0125  0.1263  0.1284
  829YOPS   C1A11763  17.373  10.277   7.086  0.1322 -0.1528  0.1248
  829YOPS   D2A11764  17.132  10.390   7.442  0.1628 -0.0988 -0.3106
  829YOPS   C3A11765  17.174  10.326   7.879  0.2292  0.2073 -0.0825
  829YOPS   C4A11766  17.142  10.124   8.200  0.0658  0.1425 -0.1441
  829YOPS   C1B11767  16.882  10.410   6.952 -0.0130 -0.2061 -0.0447
  829YOPS   C2B11768  16.579  10.339   7.298  0.0136 -0.0415 -0.1195
  829YOPS   D3B11769  16.640  10.266   7.769 -0.0692 -0.3612 -0.2655
  829YOPS   C4B11770  16.653  10.543   8.161 -0.3233  0.2762 -0.1399
  830YOPS   CNO11771   2.622   2.913   5.233 -0.0714  0.1551  0.0010
  830YOPS   PO411772   2.887   2.981   5.675  0.0230  0.2028 -0.2634
  830YOPS   GL111773   2.809   2.898   6.009  0.3149  0.1093 -0.2976
  830YOPS   GL211774   2.518   2.750   6.160 -0.1413  0.0829  0.3790
  830YOPS   C1A11775   2.776   3.112   6.437  0.1268  0.0504  0.1628
  830YOPS   D2A11776   2.452   3.079   6.782 -0.0591 -0.0418  0.0755
  830YOPS   C3A11777   2.354   3.020   7.217 -0.1567  0.2082 -0.1007
  830YOPS   C4A11778   1.997   2.935   7.378 -0.0251 -0.1245 -0.1100
  830YOPS   C1B11779   2.617   2.604   6.619 -0.2166  0.0151  0.1053
  830YOPS   C2B11780   2.683   2.708   7.072 -0.1840 -0.4166  0.3727
  830YOPS   D3B11781   2.733   2.745   7.469 -0.0987  0.0456  0.0656
  830YOPS   C4B11782   2.768   2.335   7.623  0.0295  0.1982  0.1101
  831YOPS   CNO11783  16.772   2.063   5.922 -0.0049 -0.0620  0.2000
  831YOPS   PO411784  16.333   2.056   6.035  0.0423 -0.0760 -0.0378
  831YOPS   GL111785  16.523   2.090   6.408  0.0325  0.2689  0.0531
  831YOPS   GL211786  16.619   1.731   6.524 -0.3761  0.0204 -0.2290
  831YOPS   C1A11787  16.598   2.307   6.804  0.0223  0.0759  0.0174
  831YOPS   D2A11788  16.463   2.420   7.224  0.3151 -0.0119  0.0820
  831YOPS   C3A11789  16.735   2.738   7.563  0.0298  0.2301 -0.0100
  831YOPS   C4A11790  16.766   2.716   7.989 -0.1117 -0.1993 -0.0289
  831YOPS   C1B11791  16.580   1.814   6.862 -0.0943  0.1995 -0.2043
  831YOPS   C2B11792  16.309   1.874   7.227 -0.1566  0.0525 -0.0291
  831YOPS   D3B11793  16.526   2.118   7.631  0.1875 -0.2934 -0.0998
  831YOPS   C4B11794  16.701   1.918   8.010  0.0838  0.1143  0.0615
  832YOPS   CNO11795   5.195   4.446   5.905 -0.2111 -0.0284 -0.5279
  832YOPS   PO411796   5.508   4.666   5.936 -0.2388 -0.0162 -0.0439
  832YOPS   GL111797   5.221   4.963   6.166  0.1411  0.0142  0.0880
  832YOPS   GL211798   4.957   4.791   6.306 -0.0423 -0.4874 -0.0022
  832YOPS   C1A11799   5.200   5.215   6.585 -0.0144 -0.0146 -0.0635
  832YOPS   D2A11800   5.326   5.449   6.907 -0.2892 -0.2079 -0.2193
  832YOPS   C3A11801   5.265   5.458   7.283 -0.1798  0.0836  0.0368
  832YOPS   C4A11802   5.584   5.482   7.582  0.0179  0.0893  0.1360
  832YOPS   C1B11803   5.207   4.712   6.650 -0.0571 -0.0150  0.1349
  832YOPS   C2B11804   5.106   5.003   7.049 -0.1928 -0.1526 -0.3111
  832YOPS   D3B11805   4.814   5.077   7.390 -0.2265 -0.3042  0.4931
  832YOPS   C4B11806   4.798   4.896   7.733 -0.0894  0.0443  0.0549
  833YOPS   CNO11807  11.954   2.855   6.364  0.2215 -0.1495 -0.0628
  833YOPS   PO411808  12.466   2.825   6.486 -0.2821 -0.1712  0.2539
  833YOPS   GL111809  12.767   3.067   6.789  0.1649  0.4387 -0.0560
  833YOPS   GL211810  13.073   3.055   6.771 -0.2561  0.1013 -0.0950
  833YOPS   C1A11811  12.827   3.107   7.286  0.1651  0.1166 -0.2663
  833YOPS   D2A11812  12.842   2.853   7.722 -0.0516 -0.0459 -0.1072
  833YOPS   C3A11813  12.549   3.052   8.102 -0.1702  0.0970  0.1803
  833YOPS   C4A11814  12.337   3.486   8.219 -0.0672 -0.1320  0.1869
  833YOPS   C1B11815  13.305   3.139   7.207  0.1624  0.0281  0.0849
  833YOPS   C2B11816  13.267   3.152   7.598  0.1394 -0.0425  0.0430
  833YOPS   D3B11817  13.444   3.054   8.076  0.1861  0.2365 -0.1670
  833YOPS   C4B11818  13.638   2.766   8.193  0.3937 -0.0810  0.2391
  834YOPS   CNO11819   0.375   6.623   5.623  0.1100 -0.0781 -0.0370
  834YOPS   PO411820   0.521   6.247   5.610  0.3338  0.0140  0.0437
  834YOPS   GL111821   0.876   6.301   5.850 -0.0865  0.2268 -0.1078
  834YOPS   GL211822   1.063   6.090   5.985  0.1814  0.3423 -0.0043
  834YOPS   C1A11823   0.848   6.567   6.266  0.1261  0.0252  0.1114
  834YOPS   D2A11824   0.994   6.601   6.708 -0.1250 -0.0909  0.0346
  834YOPS   C3A11825   0.955   6.466   7.110  0.0146  0.1115 -0.0139
  834YOPS   C4A11826   1.261   6.582   7.328  0.1936  0.1298 -0.2540
  834YOPS   C1B11827   1.199   5.938   6.455 -0.0390 -0.2376  0.2296
  834YOPS   C2B11828   1.299   5.765   6.881  0.2567  0.1957 -0.0546
  834YOPS   D3B11829   1.412   5.585   7.252  0.3859  0.0428  0.0985
  834YOPS   C4B11830   1.720   5.284   7.262 -0.2805 -0.1774 -0.0530
  835YOPS   CNO11831  12.260  14.189   6.258 -0.0695  0.1751 -0.1082
  835YOPS   PO411832  12.552  14.533   6.300  0.0707  0.1589  0.0068
  835YOPS   GL111833  12.668  14.717   6.658 -0.1022 -0.1303 -0.2708
  835YOPS   GL211834  12.594  14.971   6.676 -0.2688 -0.1892 -0.0266
  835YOPS   C1A11835  12.919  14.833   7.014 -0.0827 -0.0613 -0.1688
  835YOPS   D2A11836  12.894  14.907   7.437 -0.0438  0.1472  0.0766
  835YOPS   C3A11837  12.560  14.828   7.767 -0.0815  0.3594 -0.0902
  835YOPS   C4A11838  12.408  14.515   8.012  0.0390  0.0322 -0.1633
  835YOPS   C1B11839  12.185  15.284   6.804 -0.3499 -0.1192  0.2404
  835YOPS   C2B11840  12.075  15.390   7.193 -0.1135 -0.2017  0.0926
  835YOPS   D3B11841  11.776  15.710   7.467 -0.1218 -0.1209  0.2602
  835YOPS   C4B11842  11.379  15.715   7.436  0.0557  0.3020 -0.0074
  836YOPS   CNO11843   1.348   3.200   5.562 -0.1015 -0.0915 -0.0889
  836YOPS   PO411844   1.789   3.271   5.741  0.1530  0.2097  0.2608
  836YOPS   GL111845   1.746   3.351   6.196  0.1319 -0.3173 -0.0714
  836YOPS   GL211846   1.418   3.427   6.131  0.0020 -0.2042 -0.0268
  836YOPS   C1A11847   1.967   3.519   6.440  0.1327  0.0968 -0.2122
  836YOPS   D2A11848   2.295   3.556   6.592  0.0492  0.0238 -0.0189
  836YOPS   C3A11849   2.542   3.569   6.988  0.1072 -0.3850 -0.0567
  836YOPS   C4A11850   2.360   3.721   7.344  0.4118 -0.0927  0.1858
  836YOPS   C1B11851   1.352   3.196   6.417  0.1489  0.1142 -0.0473
  836YOPS   C2B11852   1.157   2.898   6.809 -0.2054  0.2165 -0.1581
  836YOPS   D3B11853   0.992   2.754   7.257 -0.1089 -0.3215 -0.0793
  836YOPS   C4B11854   0.706   3.088   7.359 -0.0639  0.2368 -0.5214
  837YOPS   CNO11855  16.504  13.852   5.896  0.2617 -0.1162  0.0479
  837YOPS   PO411856  16.664  13.998   6.216 -0.0699 -0.0396  0.0939
  837YOPS   GL111857  16.523  14.097   6.614  0.0647  0.2400 -0.1903
  837YOPS   GL211858  16.309  14.039   6.780  0.3066 -0.3605 -0.0696
  837YOPS   C1A11859  16.638  14.302   6.995  0.2180  0.1039 -0.0045
  837YOPS   D2A11860  16.515  14.353   7.426  0.1228 -0.2782  0.0769
  837YOPS   C3A11861  16.406  14.476   7.896  0.4528  0.0755  0.0494
  837YOPS   C4A11862  16.634  14.542   8.128  0.0866  0.1815  0.2161
  837YOPS   C1B11863  16.422  13.900   7.153 -0.4026  0.0045 -0.2087
  837YOPS   C2B11864  16.529  13.861   7.645 -0.1057 -0.1222  0.0792
  837YOPS   D3B11865  16.653  14.073   7.993 -0.3294 -0.0219  0.4492
  837YOPS   C4B11866  16.653  13.867   8.419 -0.2423 -0.2858  0.0606
  838YOPS   CNO11867   0.270   8.835   5.827  0.0240 -0.2292 -0.3371
  838YOPS   PO411868   0.665   9.021   5.801 -0.1444  0.3873  0.0068
  838YOPS   GL111869   0.607   9.298   6.194 -0.1693  0.0861  0.0120
  838YOPS   GL211870   0.349   9.137   6.335  0.1868  0.1171 -0.1111
  838YOPS   C1A11871   0.748   9.620   6.487  0.1951 -0.0257 -0.0118
  838YOPS   D2A11872   0.530   9.905   6.819 -0.2583 -0.2343  0.0272
  838YOPS   C3A11873   0.657   9.962   7.214 -0.1222 -0.0596 -0.0764
  838YOPS   C4A11874   0.529   9.688   7.481 -0.1727 -0.2884  0.1443
  838YOPS   C1B11875   0.659   9.146   6.617  0.3155 -0.0127 -0.1564
  838YOPS   C2B11876   0.904   8.925   6.962 -0.0195  0.0779  0.1336
  838YOPS   D3B11877   1.125   9.007   7.334 -0.3095  0.1529  0.1515
  838YOPS   C4B11878   1.070   9.090   7.739 -0.0224 -0.0510 -0.0859
  839YOPS   CNO11879   9.661   4.122   6.228 -0.0443 -0.1920  0.0603
  839YOPS   PO411880   9.479   4.511   6.260 -0.0031 -0.1942 -0.1859
  839YOPS   GL111881   9.561   4.702   6.664  0.1917  0.0159 -0.0413
  839YOPS   GL211882   9.895   4.766   6.845  0.1649 -0.0537  0.0262
  839YOPS   C1A11883   9.463   4.935   6.985 -0.1423 -0.0045 -0.3311
  839YOPS   D2A11884   9.401   4.986   7.393  0.2359  0.1102 -0.0660
  839YOPS   C3A11885   9.534   5.129   7.745  0.3508  0.0484 -0.3652
  839YOPS   C4A11886  10.005   5.125   7.943  0.1692 -0.1425  0.3437
  839YOPS   C1B11887   9.991   4.705   7.323  0.3520 -0.2532 -0.1502
  839YOPS   C2B11888   9.849   4.760   7.689 -0.1031 -0.0178 -0.0699
  839YOPS   D3B11889   9.832   4.589   8.184  0.1892 -0.0111 -0.2055
  839YOPS   C4B11890  10.059   4.712   8.600 -0.1742  0.1089 -0.1839
  840YOPS   CNO11891   7.873   8.784   5.993 -0.1122 -0.1875 -0.0224
  840YOPS   PO411892   8.342   8.684   6.137  0.1366  0.1161 -0.0616
  840YOPS   GL111893   8.207   8.513   6.466 -0.0884  0.1531  0.3337
  840YOPS   GL211894   7.988   8.739   6.562 -0.0276  0.0340  0.1619
  840YOPS   C1A11895   8.555   8.433   6.782  0.0537  0.0951 -0.0319
  840YOPS   D2A11896   8.953   8.406   6.941 -0.1753  0.1044 -0.1899
  840YOPS   C3A11897   9.018   8.487   7.370 -0.2368 -0.2408  0.0123
  840YOPS   C4A11898   8.958   8.920   7.495 -0.0042 -0.1862 -0.1173
  840YOPS   C1B11899   8.141   8.833   6.906  0.2242  0.4024  0.3116
  840YOPS   C2B11900   8.029   8.902   7.317  0.0607  0.0073 -0.0555
  840YOPS   D3B11901   7.907   8.830   7.619 -0.2084 -0.0207  0.1321
  840YOPS   C4B11902   7.752   9.274   7.698 -0.0613 -0.0919  0.3189
  841YOPS   CNO11903  16.175  17.552   6.038 -0.2594 -0.0784 -0.1264
  841YOPS   PO411904  16.073  17.980   6.039  0.0440 -0.3593  0.0266
  841YOPS   GL111905  16.047  18.218   6.481  0.1925 -0.1661 -0.0289
  841YOPS   GL211906  16.136  18.100   6.776 -0.0433 -0.0151  0.1010
  841YOPS   C1A11907  15.864  18.532   6.757 -0.0502  0.1668 -0.2245
  841YOPS   D2A11908  15.972  18.787   7.178 -0.2754  0.3553 -0.2764
  841YOPS   C3A11909  16.193  18.844   7.558 -0.1287 -0.2969  0.1287
  841YOPS   C4A11910  16.096  18.776   8.006 -0.3481  0.0680 -0.0545
  841YOPS   C1B11911  16.292  18.032   7.084 -0.1634 -0.0734 -0.0106
  841YOPS   C2B11912  16.407  17.924   7.488  0.2064  0.0436  0.0369
  841YOPS   D3B11913  16.667  18.012   7.909  0.0328 -0.0267  0.1628
  841YOPS   C4B11914  17.159  17.873   8.074  0.2571  0.2171  0.0926
  842POPE   NH311915  13.192  13.344   6.397 -0.2849  0.2508 -0.1838
  842POPE   PO411916  12.773  13.107   6.370  0.0657  0.1288  0.2942
  842POPE   GL111917  12.824  13.115   6.831  0.1752  0.1633 -0.2519
  842POPE   GL211918  12.814  12.827   6.862 -0.0345  0.0914 -0.4197
  842POPE   C1A11919  12.761  13.279   7.321  0.0819 -0.1063 -0.0416
  842POPE   D2A11920  12.752  13.421   7.713 -0.2806 -0.2078 -0.2712
  842POPE   C3A11921  12.569  13.297   8.065  0.2684 -0.0999  0.1708
  842POPE   C4A11922  12.845  13.121   8.490  0.0743  0.0726 -0.2568
  842POPE   C1B11923  12.706  12.807   7.301  0.1077  0.0257 -0.0390
  842POPE   C2B11924  12.682  12.891   7.786 -0.0559  0.2553 -0.1013
  842POPE   C3B11925  12.579  12.784   8.127 -0.1004  0.2110 -0.3054
  842POPE   C4B11926  12.349  12.973   8.439 -0.2856 -0.0703  0.0664
  843POPE   NH311927  15.488   5.410   6.309  0.0135  0.2149 -0.0140
  843POPE   PO411928  15.329   5.864   6.315  0.1543  0.0910  0.0109
  843POPE   GL111929  15.495   5.909   6.718 -0.0312 -0.0362  0.1144
  843POPE   GL211930  15.575   5.594   6.780  0.0041  0.1932 -0.2418
  843POPE   C1A11931  15.742   6.073   7.022 -0.0274  0.0505  0.1052
  843POPE   D2A11932  15.676   6.385   7.269 -0.2201 -0.0515  0.2372
  843POPE   C3A11933  15.391   6.267   7.425 -0.3465  0.0669 -0.0517
  843POPE   C4A11934  15.173   5.975   7.478  0.1048  0.3541  0.1517
  843POPE   C1B11935  15.477   5.659   7.224  0.0821  0.1586 -0.0014
  843POPE   C2B11936  15.280   5.424   7.518 -0.0501 -0.0496  0.1525
  843POPE   C3B11937  15.213   5.528   7.997  0.1176  0.1931 -0.0900
  843POPE   C4B11938  15.433   5.485   8.338 -0.2579  0.1140 -0.1954
  844POPE   NH311939   8.281   9.175   6.137 -0.0231 -0.1407 -0.2407
  844POPE   PO411940   8.557   9.425   6.090  0.1911 -0.1231  0.2836
  844POPE   GL111941   8.604   9.435   6.499 -0.0712  0.0590  0.3207
  844POPE   GL211942   8.539   9.104   6.637  0.0705  0.0644 -0.0122
  844POPE   C1A11943   8.419   9.689   6.772  0.1517 -0.2901 -0.1038
  844POPE   D2A11944   8.374   9.910   7.144 -0.4283 -0.1376  0.0752
  844POPE   C3A11945   8.519   9.893   7.606  0.2269 -0.0684  0.0343
  844POPE   C4A11946   8.722   9.872   7.966  0.0622 -0.2312  0.0142
  844POPE   C1B11947   8.281   9.273   7.079  0.3774  0.2228  0.1383
  844POPE   C2B11948   8.174   9.491   7.480  0.2187  0.0503  0.1367
  844POPE   C3B11949   8.072   9.709   7.800 -0.0158 -0.3861 -0.1386
  844POPE   C4B11950   8.335   9.644   8.161  0.1930 -0.0473  0.2676
  845POPE   NH311951  10.432   6.489   6.346  0.2498 -0.2593 -0.1030
  845POPE   PO411952   9.968   6.703   6.339 -0.2855  0.2021  0.1042
  845POPE   GL111953   9.589   6.782   6.508  0.2842 -0.2006 -0.4093
  845POPE   GL211954   9.308   6.644   6.464 -0.2227  0.1872  0.0116
  845POPE   C1A11955   9.660   7.002   6.897  0.0169  0.2459  0.0945
  845POPE   D2A11956   9.749   7.104   7.361  0.1508 -0.0001  0.2286
  845POPE   C3A11957   9.955   7.438   7.605 -0.0109 -0.2516 -0.1229
  845POPE   C4A11958   9.802   7.848   7.712  0.5204 -0.0888 -0.1565
  845POPE   C1B11959   9.327   6.636   6.928  0.1253  0.1772  0.0777
  845POPE   C2B11960   9.471   6.495   7.377 -0.0177  0.0104 -0.0118
  845POPE   C3B11961   9.605   6.793   7.665 -0.0258  0.0294  0.0599
  845POPE   C4B11962   9.934   6.975   7.857  0.1687 -0.1091  0.2155
  846POPE   NH311963  11.468   7.552   6.450 -0.2164 -0.0488 -0.0692
  846POPE   PO411964  11.376   7.148   6.238  0.2870 -0.1889  0.1113
  846POPE   GL111965  11.443   7.125   6.692  0.0271  0.2953 -0.2826
  846POPE   GL211966  11.667   6.921   6.910 -0.0486 -0.1776  0.0356
  846POPE   C1A11967  11.218   7.159   7.140 -0.1653  0.0483 -0.0771
  846POPE   D2A11968  11.159   7.322   7.569 -0.1645 -0.0445 -0.3456
  846POPE   C3A11969  11.273   7.085   8.013  0.2799  0.0144 -0.1667
  846POPE   C4A11970  11.399   6.787   8.205  0.1491 -0.0302  0.5853
  846POPE   C1B11971  11.651   6.881   7.304  0.2056  0.1371  0.1909
  846POPE   C2B11972  11.658   6.870   7.752 -0.0719  0.0009 -0.3741
  846POPE   C3B11973  11.812   7.062   8.167 -0.2018 -0.0920 -0.2016
  846POPE   C4B11974  11.970   7.133   8.546  0.1624 -0.0627  0.0310
  847POPE   NH311975   3.874   5.102   5.892  0.1660  0.0706 -0.2340
  847POPE   PO411976   4.296   5.380   5.884  0.0518  0.0035  0.1660
  847POPE   GL111977   4.070   5.358   6.274  0.1495  0.3746  0.1284
  847POPE   GL211978   4.077   5.074   6.405  0.2513  0.1506 -0.2128
  847POPE   C1A11979   4.158   5.559   6.654 -0.0001  0.2012  0.1683
  847POPE   D2A11980   3.936   5.512   7.068 -0.0248  0.4162 -0.0437
  847POPE   C3A11981   4.067   5.535   7.491 -0.3330  0.1280  0.0425
  847POPE   C4A11982   4.076   5.324   7.913 -0.0444 -0.0743 -0.0119
  847POPE   C1B11983   4.135   5.086   6.847 -0.0270 -0.0387  0.1986
  847POPE   C2B11984   3.876   4.998   7.182  0.2051 -0.3438 -0.2558
  847POPE   C3B11985   3.721   5.051   7.617  0.1779 -0.3286  0.0066
  847POPE   C4B11986   3.492   5.004   7.946 -0.2710  0.1004 -0.3974
  848POPE   NH311987   9.959  12.413   6.191  0.1118 -0.2052  0.2083
  848POPE   PO411988   9.517  12.267   6.029 -0.0006  0.1813 -0.2508
  848POPE   GL111989   9.532  12.435   6.512 -0.0574  0.4036  0.0732
  848POPE   GL211990   9.250  12.678   6.522  0.1160 -0.3428 -0.1138
  848POPE   C1A11991   9.484  12.476   6.922  0.1032 -0.0746 -0.0804
  848POPE   D2A11992   9.334  12.594   7.325  0.1082 -0.0745  0.0522
  848POPE   C3A11993   9.156  12.282   7.598  0.4812  0.2738 -0.1020
  848POPE   C4A11994   8.726  12.044   7.518  0.2568  0.1865  0.0169
  848POPE   C1B11995   9.019  12.604   6.799  0.1299 -0.1050 -0.1592
  848POPE   C2B11996   8.588  12.694   6.832  0.0889  0.1580  0.2128
  848POPE   C3B11997   8.301  12.654   7.158  0.1808 -0.2057 -0.1512
  848POPE   C4B11998   8.353  12.479   7.552  0.3816 -0.1602 -0.0921
  849POPE   NH311999   3.432   7.540   5.347  0.2302  0.1304 -0.1114
  849POPE   PO412000   3.207   7.063   5.391 -0.1599 -0.0116 -0.0976
  849POPE   GL112001   3.384   7.278   5.773 -0.3083  0.2589 -0.1014
  849POPE   GL212002   3.561   7.427   5.845 -0.1731 -0.3365  0.2544
  849POPE   C1A12003   3.162   7.310   6.213  0.0613  0.3588  0.1728
  849POPE   D2A12004   2.967   7.409   6.543 -0.2122  0.2178  0.0552
  849POPE   C3A12005   3.028   7.568   6.873 -0.0626  0.2961 -0.0904
  849POPE   C4A12006   3.123   7.715   7.208 -0.0295  0.1033 -0.0179
  849POPE   C1B12007   3.659   7.396   6.282 -0.0645  0.2641 -0.0767
  849POPE   C2B12008   3.447   7.509   6.680  0.3148 -0.1839 -0.2029
  849POPE   C3B12009   3.538   7.530   7.052  0.0163 -0.1199  0.0188
  849POPE   C4B12010   3.475   7.472   7.508 -0.0274  0.4234  0.0699
  850POPE   NH312011  11.344  17.286   6.197 -0.2034 -0.3838  0.1937
  850POPE   PO412012  11.796  17.541   6.250  0.1277  0.1458 -0.1727
  850POPE   GL112013  11.997  17.580   6.683  0.1276 -0.1368 -0.1397
  850POPE   GL212014  11.776  17.782   6.948 -0.1427  0.0861 -0.0501
  850POPE   C1A12015  12.126  17.467   7.125  0.3472 -0.1667  0.0296
  850POPE   D2A12016  12.059  17.329   7.547 -0.0177  0.1010 -0.0740
  850POPE   C3A12017  12.483  17.146   7.704 -0.0609 -0.6131  0.2616
  850POPE   C4A12018  12.523  16.869   7.955 -0.1415  0.1623 -0.0607
  850POPE   C1B12019  11.720  17.749   7.419 -0.1028 -0.2951 -0.0565
  850POPE   C2B12020  11.751  17.725   7.876  0.0540  0.0100  0.2586
  850POPE   C3B12021  12.055  17.474   8.005 -0.1868 -0.0140 -0.0263
  850POPE   C4B12022  12.463  17.398   8.123  0.0881 -0.2524  0.0667
  851POPE   NH312023   8.703  15.000   6.587 -0.1287 -0.1717  0.0880
  851POPE   PO412024   8.381  15.321   6.551  0.3005 -0.1091 -0.0115
  851POPE   GL112025   8.586  15.571   6.819 -0.0452  0.1761 -0.2133
  851POPE   GL212026   8.574  15.947   6.698  0.4167  0.0149 -0.0779
  851POPE   C1A12027   8.652  15.606   7.278 -0.1800  0.5075 -0.1471
  851POPE   D2A12028   8.609  15.519   7.583 -0.0328  0.0153 -0.1600
  851POPE   C3A12029   8.838  15.473   7.837  0.1447 -0.0665  0.0386
  851POPE   C4A12030   8.954  15.511   8.178  0.1139 -0.0327 -0.2537
  851POPE   C1B12031   8.621  16.055   7.116 -0.1200  0.2915 -0.2271
  851POPE   C2B12032   8.527  16.021   7.522  0.1683  0.0664 -0.0526
  851POPE   C3B12033   8.544  15.832   7.999  0.0519  0.0069  0.1065
  851POPE   C4B12034   8.638  15.840   8.386  0.3230  0.3254 -0.0398
  852POPE   NH312035   8.244   1.041   6.110 -0.1772 -0.0582  0.0651
  852POPE   PO412036   7.988   0.699   6.159 -0.1530  0.0795 -0.0057
  852POPE   GL112037   7.863   0.553   6.609  0.2468  0.1533 -0.2616
  852POPE   GL212038   8.106   0.478   6.846 -0.3171  0.0728 -0.2501
  852POPE   C1A12039   7.648   0.642   7.004  0.2373  0.0159 -0.0586
  852POPE   D2A12040   7.524   0.562   7.381  0.0221  0.2168 -0.6773
  852POPE   C3A12041   7.337   0.496   7.782 -0.2145 -0.2854 -0.1157
  852POPE   C4A12042   7.260   0.649   8.227 -0.2240  0.4498 -0.0842
  852POPE   C1B12043   8.095   0.577   7.247  0.0890 -0.0369  0.1102
  852POPE   C2B12044   8.300   0.488   7.643 -0.0429  0.0561 -0.0231
  852POPE   C3B12045   8.473   0.433   8.024  0.0039 -0.1164 -0.0492
  852POPE   C4B12046   8.487   0.585   8.443  0.3405  0.1515 -0.1615
  853POPE   NH312047  13.842   9.125   6.468 -0.1193 -0.2408 -0.0552
  853POPE   PO412048  14.344   9.105   6.286 -0.0145 -0.2367  0.0738
  853POPE   GL112049  14.449   8.845   6.666  0.0561  0.0439  0.0855
  853POPE   GL212050  14.405   8.582   6.810  0.2068  0.1941  0.0479
  853POPE   C1A12051  14.770   8.864   6.963  0.0698 -0.0142 -0.0598
  853POPE   D2A12052  15.081   9.106   7.174 -0.3140 -0.3456 -0.2354
  853POPE   C3A12053  15.381   8.961   7.558 -0.2203  0.1501  0.3104
  853POPE   C4A12054  15.163   8.651   7.786 -0.1915 -0.0096 -0.0709
  853POPE   C1B12055  14.557   8.497   7.198  0.0069  0.0212  0.3996
  853POPE   C2B12056  14.805   8.633   7.450  0.0080 -0.0689  0.0729
  853POPE   C3B12057  14.762   9.005   7.558 -0.0029 -0.0457  0.0749
  853POPE   C4B12058  14.852   9.391   7.530  0.0093 -0.0041 -0.2060
  854POPE   NH312059   7.465   2.049   6.415  0.0783 -0.0344 -0.2895
  854POPE   PO412060   7.831   2.192   6.644  0.0057 -0.0627  0.0158
  854POPE   GL112061   8.079   2.227   6.944  0.0426  0.0205 -0.0655
  854POPE   GL212062   7.877   2.176   7.132  0.1629 -0.0618  0.1341
  854POPE   C1A12063   8.340   2.002   7.301 -0.1016 -0.0248  0.0100
  854POPE   D2A12064   8.392   2.036   7.702 -0.1650  0.1781  0.0809
  854POPE   C3A12065   8.512   2.152   8.061  0.1875 -0.0121  0.2057
  854POPE   C4A12066   8.410   2.411   8.518  0.0141  0.1940  0.3855
  854POPE   C1B12067   7.895   2.078   7.551 -0.1671  0.1683  0.0288
  854POPE   C2B12068   7.945   1.812   7.930 -0.1612 -0.0787  0.3194
  854POPE   C3B12069   7.521   1.678   8.190 -0.3232  0.1820  0.2597
  854POPE   C4B12070   7.381   1.534   8.517  0.0023 -0.1065  0.1009
  855POPE   NH312071  12.762   1.992   6.213  0.0584  0.1980 -0.2897
  855POPE   PO412072  12.742   2.360   6.324  0.1077 -0.4648  0.2350
  855POPE   GL112073  12.871   2.563   6.650 -0.0902 -0.1622  0.0967
  855POPE   GL212074  12.642   2.491   6.962  0.1553 -0.0941 -0.0211
  855POPE   C1A12075  13.098   2.671   7.054  0.1261 -0.1807 -0.1372
  855POPE   D2A12076  13.274   2.623   7.411  0.1115  0.1105  0.1324
  855POPE   C3A12077  13.652   2.808   7.601  0.2947 -0.0315  0.1627
  855POPE   C4A12078  13.926   3.116   7.877  0.0989 -0.0719  0.1424
  855POPE   C1B12079  12.743   2.527   7.329 -0.1607 -0.4218 -0.0121
  855POPE   C2B12080  12.811   2.309   7.664  0.2459 -0.2444 -0.3667
  855POPE   C3B12081  12.541   2.063   7.923 -0.0238  0.0903  0.0529
  855POPE   C4B12082  12.554   1.855   8.345  0.1449  0.1557  0.0859
  856POPE   NH312083   1.478  11.797   5.915  0.1092 -0.0904  0.0647
  856POPE   PO412084   1.052  11.856   5.890 -0.0310 -0.1452  0.1321
  856POPE   GL112085   1.133  11.539   6.192  0.1482 -0.0724  0.5744
  856POPE   GL212086   0.993  11.243   6.135 -0.2196 -0.2080  0.0700
  856POPE   C1A12087   1.195  11.427   6.542 -0.0653 -0.0855  0.0458
  856POPE   D2A12088   1.311  11.459   6.847 -0.1273  0.1258  0.3118
  856POPE   C3A12089   1.656  11.559   6.944 -0.0730 -0.1082  0.4121
  856POPE   C4A12090   1.860  11.545   7.293  0.2287 -0.0045  0.0981
  856POPE   C1B12091   0.700  11.459   6.416 -0.1977  0.5152 -0.0531
  856POPE   C2B12092   0.757  11.412   6.939  0.0021  0.1285  0.0861
  856POPE   C3B12093   0.733  11.382   7.338 -0.1613 -0.4159  0.0767
  856POPE   C4B12094   0.594  11.545   7.626  0.2095 -0.0834 -0.1824
  857POPE   NH312095  16.214  12.824   6.343 -0.2420 -0.3397  0.0244
  857POPE   PO412096  16.026  13.196   6.222 -0.0230 -0.1469  0.0708
  857POPE   GL112097  15.839  13.180   6.614  0.2161 -0.0252  0.0484
  857POPE   GL212098  15.593  13.087   6.646 -0.1466  0.0931 -0.3004
  857POPE   C1A12099  15.801  13.214   7.098 -0.1498  0.1895 -0.0541
  857POPE   D2A12100  15.717  13.008   7.517  0.1502 -0.0471  0.1621
  857POPE   C3A12101  15.851  12.971   7.886  0.1907 -0.1523  0.2517
  857POPE   C4A12102  16.172  12.828   8.257  0.0656  0.0090 -0.2229
  857POPE   C1B12103  15.835  12.757   6.869  0.0836  0.2566  0.1327
  857POPE   C2B12104  15.949  12.572   7.252  0.0126 -0.2227 -0.1038
  857POPE   C3B12105  15.784  12.496   7.700  0.2468  0.0119  0.0714
  857POPE   C4B12106  15.663  12.552   8.142 -0.0528  0.3817  0.0788
  858POPE   NH312107   3.870   4.585   5.990  0.2955 -0.0657  0.0244
  858POPE   PO412108   4.325   4.821   5.874 -0.2143 -0.2307 -0.0049
  858POPE   GL112109   4.316   4.683   6.112  0.0692 -0.1658 -0.3597
  858POPE   GL212110   4.530   4.501   6.248  0.1095  0.2826 -0.1612
  858POPE   C1A12111   4.156   4.577   6.562  0.3284 -0.1366  0.2541
  858POPE   D2A12112   3.860   4.585   6.941 -0.2603 -0.2039 -0.2556
  858POPE   C3A12113   3.722   4.280   7.257 -0.4250 -0.1401  0.2337
  858POPE   C4A12114   3.862   4.103   7.514  0.0517  0.2395 -0.0185
  858POPE   C1B12115   4.585   4.261   6.670  0.2282  0.0419 -0.0551
  858POPE   C2B12116   4.454   4.165   7.071  0.1724  0.1032  0.0390
  858POPE   C3B12117   4.203   4.383   7.285  0.0141  0.1758  0.0582
  858POPE   C4B12118   4.024   4.571   7.645 -0.3358 -0.0135 -0.0436
  859POPE   NH312119   3.343  13.087   5.714  0.1199  0.4622 -0.0892
  859POPE   PO412120   3.006  12.794   5.755 -0.0841 -0.1226  0.0082
  859POPE   GL112121   3.163  12.804   6.208  0.0305  0.1274 -0.0155
  859POPE   GL212122   3.106  13.201   6.171  0.0574 -0.2054 -0.2048
  859POPE   C1A12123   3.086  12.876   6.677 -0.1382 -0.4004 -0.2538
  859POPE   D2A12124   3.050  12.938   7.127  0.0355  0.0806  0.0583
  859POPE   C3A12125   2.697  12.899   7.362 -0.0232 -0.0489 -0.0294
  859POPE   C4A12126   2.266  12.930   7.635  0.2807  0.1134 -0.1927
  859POPE   C1B12127   3.279  13.347   6.569  0.0694 -0.0244  0.2977
  859POPE   C2B12128   3.179  13.380   6.964 -0.2374 -0.1117 -0.1564
  859POPE   C3B12129   3.334  13.687   7.224  0.0856 -0.1596 -0.5529
  859POPE   C4B12130   3.650  13.943   7.375 -0.0436 -0.3102 -0.0696
  860POPE   NH312131   6.375  10.384   5.971 -0.0540 -0.1157  0.1487
  860POPE   PO412132   6.049  10.675   5.695  0.2536 -0.0880 -0.1087
  860POPE   GL112133   5.937  10.679   6.150 -0.1898  0.0558  0.0070
  860POPE   GL212134   6.249  10.834   6.218  0.0506  0.2762  0.0601
  860POPE   C1A12135   6.037  10.548   6.557  0.0371 -0.2695 -0.0242
  860POPE   D2A12136   6.283  10.525   6.961  0.0939 -0.2659  0.1096
  860POPE   C3A12137   6.363  10.292   7.318 -0.4786 -0.4802  0.3537
  860POPE   C4A12138   6.549  10.039   7.611 -0.1214 -0.1016  0.3259
  860POPE   C1B12139   6.514  10.542   6.528 -0.1814 -0.2746  0.2224
  860POPE   C2B12140   6.720  10.653   6.783 -0.0691 -0.1804 -0.1537
  860POPE   C3B12141   6.747  10.622   7.187  0.0608  0.0445  0.1042
  860POPE   C4B12142   6.682  10.509   7.566 -0.1538 -0.1017 -0.2436
  861POPE   NH312143  13.133  10.664   6.166 -0.0268 -0.0147 -0.0017
  861POPE   PO412144  13.492  10.756   6.241 -0.2035  0.0185  0.1654
  861POPE   GL112145  13.571  10.605   6.575 -0.1784  0.1590 -0.1724
  861POPE   GL212146  13.259  10.483   6.675  0.0007 -0.1334 -0.0211
  861POPE   C1A12147  13.647  10.321   6.939 -0.0995 -0.3754  0.1483
  861POPE   D2A12148  13.751  10.205   7.323  0.4503 -0.0038  0.0982
  861POPE   C3A12149  13.649   9.757   7.450 -0.2279 -0.2750  0.0534
  861POPE   C4A12150  13.469   9.473   7.697 -0.1321 -0.0964 -0.1478
  861POPE   C1B12151  13.066  10.438   7.169 -0.0514 -0.2131  0.4779
  861POPE   C2B12152  13.017  10.521   7.612 -0.0286  0.2613  0.0804
  861POPE   C3B12153  13.223  10.541   7.987  0.1047  0.1201  0.1627
  861POPE   C4B12154  13.173  10.660   8.446  0.0119  0.0140  0.0482
  862POPE   NH312155   7.731   5.827   5.994 -0.2615  0.2344 -0.0811
  862POPE   PO412156   7.541   5.507   6.083  0.2005 -0.0296 -0.2828
  862POPE   GL112157   7.498   5.844   6.399  0.1529 -0.0207  0.2280
  862POPE   GL212158   7.200   5.774   6.401  0.0321 -0.0343 -0.1956
  862POPE   C1A12159   7.649   5.915   6.838  0.1436  0.0690 -0.0546
  862POPE   D2A12160   7.567   6.100   7.179 -0.0923  0.3703  0.0447
  862POPE   C3A12161   7.507   6.470   7.171  0.0008  0.1895 -0.0679
  862POPE   C4A12162   7.209   6.711   7.252 -0.0334 -0.2071  0.0052
  862POPE   C1B12163   7.113   5.563   6.802  0.0462  0.2775  0.1650
  862POPE   C2B12164   7.298   5.574   7.097  0.1465  0.1007  0.0123
  862POPE   C3B12165   7.452   5.693   7.550 -0.1363 -0.2366  0.1680
  862POPE   C4B12166   7.332   6.173   7.652  0.3300  0.1034 -0.2639
  863POPE   NH312167  16.436   9.593   5.833 -0.0139 -0.1356 -0.0888
  863POPE   PO412168  16.315   9.809   6.246 -0.0760 -0.2643  0.1871
  863POPE   GL112169  16.129   9.992   6.604 -0.0718 -0.4481  0.0058
  863POPE   GL212170  15.883  10.169   6.476  0.1434 -0.0797  0.2380
  863POPE   C1A12171  16.206  10.053   7.053  0.4345  0.0776  0.1611
  863POPE   D2A12172  16.243   9.967   7.439  0.0396  0.3331  0.2048
  863POPE   C3A12173  16.091  10.020   7.742 -0.0906 -0.4767 -0.0671
  863POPE   C4A12174  16.067   9.915   8.129 -0.0243 -0.1631 -0.0878
  863POPE   C1B12175  15.764  10.246   6.879 -0.1817  0.1593 -0.3104
  863POPE   C2B12176  15.780  10.221   7.320  0.1947  0.4405 -0.1514
  863POPE   C3B12177  15.594  10.025   7.650 -0.2223  0.1302  0.1756
  863POPE   C4B12178  15.606  10.018   8.088 -0.0057 -0.1361  0.1355
  864POPE   NH312179  11.868  10.625   6.286  0.0734 -0.1025 -0.2357
  864POPE   PO412180  12.265  10.708   6.360 -0.0152  0.2711  0.1920
  864POPE   GL112181  12.339  10.657   6.747  0.2091  0.0789 -0.0207
  864POPE   GL212182  12.317  10.272   6.714  0.3937 -0.0186 -0.1931
  864POPE   C1A12183  12.572  10.649   7.205  0.1684  0.0627 -0.2568
  864POPE   D2A12184  12.594  10.933   7.620  0.3554  0.0983 -0.1601
  864POPE   C3A12185  12.358  10.900   8.046 -0.2202  0.1904 -0.1727
  864POPE   C4A12186  12.168  10.845   8.457  0.0215 -0.0125 -0.1987
  864POPE   C1B12187  12.184  10.300   7.203  0.0444 -0.0007  0.0859
  864POPE   C2B12188  12.139  10.180   7.581 -0.0394  0.2039 -0.3423
  864POPE   C3B12189  11.900  10.046   7.998  0.2857 -0.0558  0.1892
  864POPE   C4B12190  11.501  10.061   8.264  0.2503 -0.3111 -0.4227
  865POPE   NH312191  10.410   1.267   6.554 -0.1135 -0.6380 -0.0194
  865POPE   PO412192  10.299   0.878   6.435 -0.1127 -0.1744  0.1643
  865POPE   GL112193  10.550   0.647   6.653  0.0240  0.0247  0.0721
  865POPE   GL212194  10.670   0.964   6.803  0.0863  0.4166  0.0147
  865POPE   C1A12195  10.806   0.538   7.022 -0.0646 -0.1374 -0.1687
  865POPE   D2A12196  10.891   0.830   7.340  0.3908 -0.0595  0.1848
  865POPE   C3A12197  10.875   0.745   7.766 -0.1361 -0.1349 -0.1001
  865POPE   C4A12198  10.816   0.918   8.112  0.1709 -0.1934 -0.4248
  865POPE   C1B12199  10.671   1.233   7.094  0.0266  0.2204 -0.1385
  865POPE   C2B12200  10.740   1.342   7.478 -0.2364  0.0899 -0.0338
  865POPE   C3B12201  11.024   1.221   7.761  0.0038 -0.1413 -0.2221
  865POPE   C4B12202  11.107   1.406   8.182  0.2200  0.2635 -0.0395
  866POPE   NH312203  10.457  11.578   5.804 -0.0941 -0.1461 -0.0731
  866POPE   PO412204  10.341  11.193   6.013 -0.0398  0.0146  0.0111
  866POPE   GL112205  10.163  11.043   6.338  0.1241 -0.2895 -0.0264
  866POPE   GL212206  10.426  10.842   6.553 -0.0783 -0.2251 -0.3528
  866POPE   C1A12207   9.945  11.024   6.725 -0.0392 -0.0854 -0.0766
  866POPE   D2A12208   9.995  10.977   7.158  0.0141 -0.1517  0.1844
  866POPE   C3A12209  10.030  11.149   7.551 -0.2320 -0.2501 -0.0761
  866POPE   C4A12210  10.035  11.221   8.024  0.0142  0.1012 -0.0507
  866POPE   C1B12211  10.342  10.642   6.965 -0.1115 -0.0048  0.4805
  866POPE   C2B12212  10.353  10.502   7.408 -0.3337  0.2637  0.1603
  866POPE   C3B12213  10.491  10.335   7.861 -0.1337  0.1330  0.0312
  866POPE   C4B12214  10.349  10.129   8.200  0.0268 -0.0854  0.0354
  867POPE   NH312215  15.441  11.552   6.207 -0.0752 -0.2822 -0.2293
  867POPE   PO412216  15.605  11.153   6.105 -0.1462  0.1382 -0.0912
  867POPE   GL112217  15.637  11.212   6.528 -0.0066  0.1352  0.1276
  867POPE   GL212218  16.025  11.232   6.681 -0.0953 -0.0445  0.0861
  867POPE   C1A12219  15.575  11.508   6.833  0.2771  0.0108  0.0718
  867POPE   D2A12220  15.780  11.570   7.188  0.2205  0.1382  0.3140
  867POPE   C3A12221  15.936  11.400   7.558  0.0821  0.2029  0.0737
  867POPE   C4A12222  15.980  11.501   8.051  0.0572 -0.0720 -0.2216
  867POPE   C1B12223  15.992  11.165   7.035 -0.0774 -0.1500  0.1645
  867POPE   C2B12224  15.847  10.958   7.415 -0.0031 -0.1616 -0.0257
  867POPE   C3B12225  15.674  10.719   7.683  0.1791  0.1873 -0.0827
  867POPE   C4B12226  15.762  10.436   7.857 -0.3421 -0.2024 -0.0499
  868POPE   NH312227   3.287  10.602   5.738 -0.2310  0.0282  0.1445
  868POPE   PO412228   2.895  10.506   5.493 -0.1551 -0.0294  0.0014
  868POPE   GL112229   2.617  10.694   5.966  0.3014 -0.1907  0.0263
  868POPE   GL212230   2.325  10.560   6.105 -0.1663  0.0265  0.0158
  868POPE   C1A12231   2.637  11.051   6.277  0.5103  0.2036  0.1051
  868POPE   D2A12232   2.498  11.269   6.711  0.0316  0.0819 -0.2208
  868POPE   C3A12233   2.207  11.629   6.887  0.0137 -0.1782 -0.2354
  868POPE   C4A12234   1.966  11.921   6.721 -0.1666  0.1585 -0.1618
  868POPE   C1B12235   2.496  10.326   6.412 -0.1948 -0.0270  0.0469
  868POPE   C2B12236   2.837  10.337   6.830 -0.0363  0.0318  0.2023
  868POPE   C3B12237   3.075  10.554   7.087 -0.0433  0.1557 -0.2794
  868POPE   C4B12238   3.094  10.684   7.502  0.2066 -0.0075 -0.0221
  869POPE   NH312239  11.282  14.071   6.482 -0.5081 -0.3360  0.2930
  869POPE   PO412240  11.291  14.442   6.556 -0.3148  0.1150 -0.0035
  869POPE   GL112241  11.383  14.377   6.868  0.1504 -0.3337  0.1009
  869POPE   GL212242  11.236  14.232   7.021 -0.0752 -0.0728  0.2547
  869POPE   C1A12243  11.592  14.472   7.286  0.0148  0.1645 -0.0027
  869POPE   D2A12244  11.634  14.579   7.710  0.0088  0.0986 -0.1815
  869POPE   C3A12245  11.299  14.942   7.871  0.2536 -0.3038 -0.3408
  869POPE   C4A12246  10.911  14.998   8.138 -0.1146 -0.3546 -0.0772
  869POPE   C1B12247  11.132  14.163   7.330  0.0298  0.2289 -0.2764
  869POPE   C2B12248  11.009  14.347   7.720 -0.1533  0.0603  0.1611
  869POPE   C3B12249  11.156  14.544   8.198 -0.0492 -0.0117  0.0006
  869POPE   C4B12250  11.049  14.645   8.571 -0.1475  0.0828 -0.2008
  870POPE   NH312251   0.967   6.552   5.440 -0.2413  0.0216 -0.0559
  870POPE   PO412252   1.363   6.269   5.460  0.0615 -0.2262  0.0179
  870POPE   GL112253   1.371   6.455   5.925  0.2176  0.4098  0.1560
  870POPE   GL212254   1.302   6.675   5.796  0.3105 -0.1875 -0.0441
  870POPE   C1A12255   1.439   6.493   6.450 -0.2067  0.2242  0.2985
  870POPE   D2A12256   1.373   6.293   6.812  0.1561 -0.1609  0.3931
  870POPE   C3A12257   1.746   6.116   7.050 -0.0360 -0.0948 -0.1982
  870POPE   C4A12258   1.856   5.791   7.346 -0.0218  0.1329 -0.2088
  870POPE   C1B12259   1.313   6.909   6.190 -0.0986 -0.2089  0.0377
  870POPE   C2B12260   1.299   7.042   6.605  0.3439  0.2277  0.0223
  870POPE   C3B12261   1.416   6.843   6.969 -0.1292 -0.1831  0.0587
  870POPE   C4B12262   1.752   6.586   7.048 -0.1835 -0.1861 -0.1016
  871POPE   NH312263  16.047  15.731   6.159  0.2074 -0.0991  0.0050
  871POPE   PO412264  15.900  15.344   6.139 -0.0286 -0.3994  0.0959
  871POPE   GL112265  15.846  15.494   6.536 -0.1455 -0.0121 -0.6235
  871POPE   GL212266  16.026  15.729   6.682  0.1526 -0.2037 -0.1948
  871POPE   C1A12267  15.649  15.368   6.898  0.0007 -0.1605 -0.0214
  871POPE   D2A12268  15.856  15.123   7.176 -0.1599 -0.1034  0.1711
  871POPE   C3A12269  15.937  15.124   7.650 -0.0901  0.4464 -0.0672
  871POPE   C4A12270  15.797  14.965   7.951  0.0132 -0.0638  0.0699
  871POPE   C1B12271  16.015  15.666   7.064 -0.0423  0.0956 -0.2450
  871POPE   C2B12272  16.105  15.629   7.499  0.0313 -0.0097 -0.0985
  871POPE   C3B12273  16.140  15.478   7.939  0.1972  0.0264  0.2029
  871POPE   C4B12274  15.995  15.317   8.336  0.2266 -0.2247 -0.2373
  872YOPE   NH312275   1.485   1.383   5.943  0.1969  0.4261 -0.1551
  872YOPE   PO412276   1.120   1.841   6.097  0.3272  0.2508  0.3175
  872YOPE   GL112277   1.382   1.843   6.500  0.1573 -0.2420 -0.4348
  872YOPE   GL212278   1.506   2.110   6.370  0.1724  0.0214  0.1405
  872YOPE   C1A12279   1.393   2.006   7.042 -0.4166 -0.1349  0.3033
  872YOPE   D2A12280   1.426   2.014   7.425 -0.0197  0.1799 -0.2651
  872YOPE   C3A12281   1.258   1.957   7.747 -0.0991  0.1444 -0.0844
  872YOPE   C4A12282   1.482   2.146   8.085 -0.0344 -0.1735 -0.3899
  872YOPE   C1B12283   1.800   2.166   6.782 -0.3162 -0.1310 -0.1763
  872YOPE   C2B12284   2.181   1.921   6.921 -0.2178  0.1701 -0.1184
  872YOPE   D3B12285   2.677   1.685   6.897  0.0019  0.0302 -0.1445
  872YOPE   C4B12286   2.938   1.779   6.498 -0.1573 -0.0061  0.0295
  873YOPE   NH312287  17.396  10.701   5.914 -0.0394  0.4308 -0.1382
  873YOPE   PO412288  17.597  10.231   5.931 -0.0858 -0.0973 -0.1680
  873YOPE   GL112289  17.948  10.239   6.230  0.3413  0.0037 -0.0751
  873YOPE   GL212290  17.807  10.447   6.353  0.2142  0.2134  0.1468
  873YOPE   C1A12291  18.116  10.093   6.582  0.0228  0.2462 -0.0554
  873YOPE   D2A12292  18.286  10.384   6.919  0.1029 -0.0293  0.1932
  873YOPE   C3A12293  18.440  10.440   7.334  0.0733 -0.2350 -0.1782
  873YOPE   C4A12294  18.514  10.523   7.807  0.2622  0.0768 -0.4145
  873YOPE   C1B12295  17.789  10.397   6.774 -0.0034 -0.0651  0.1312
  873YOPE   C2B12296  17.862  10.415   7.215  0.2209  0.0690 -0.4638
  873YOPE   D3B12297  17.676  10.165   7.528 -0.0459  0.2191  0.1860
  873YOPE   C4B12298  17.453   9.796   7.395 -0.1460 -0.2492 -0.0512
  874YOPE   NH312299  14.339   6.637   6.333 -0.1030  0.2887  0.1394
  874YOPE   PO412300  14.407   6.210   6.161 -0.2179  0.0481 -0.2021
  874YOPE   GL112301  14.225   6.194   6.478 -0.1782  0.1139 -0.0384
  874YOPE   GL212302  14.001   5.845   6.634  0.0865 -0.0636 -0.1252
  874YOPE   C1A12303  14.075   6.214   7.039  0.2085 -0.3629 -0.2604
  874YOPE   D2A12304  14.057   6.197   7.453 -0.3322  0.0328 -0.1620
  874YOPE   C3A12305  13.859   5.918   7.689  0.1454 -0.0822 -0.1082
  874YOPE   C4A12306  13.619   5.554   7.394 -0.1016  0.1994 -0.0148
  874YOPE   C1B12307  13.977   5.727   7.059 -0.0836 -0.1150  0.1786
  874YOPE   C2B12308  14.249   5.790   7.323  0.1375  0.0366  0.1964
  874YOPE   D3B12309  14.306   5.784   7.819  0.0030 -0.2920 -0.1092
  874YOPE   C4B12310  14.505   5.745   8.184  0.3763 -0.2435  0.2757
  875YOPE   NH312311  14.732   0.550   6.191 -0.1587 -0.0722  0.1198
  875YOPE   PO412312  14.370   0.260   6.183 -0.1392  0.2390 -0.1968
  875YOPE   GL112313  13.982   0.232   6.430  0.3499 -0.2895  0.2030
  875YOPE   GL212314  13.665   0.293   6.363  0.3038  0.0921 -0.2883
  875YOPE   C1A12315  13.867   0.377   6.828  0.2047  0.0480  0.1440
  875YOPE   D2A12316  13.940   0.348   7.216  0.0076 -0.0890 -0.1405
  875YOPE   C3A12317  13.509   0.135   7.428 -0.0986 -0.3195  0.0233
  875YOPE   C4A12318  13.061   0.034   7.417  0.1812 -0.1841 -0.0264
  875YOPE   C1B12319  13.476   0.054   6.645 -0.0195 -0.1661  0.1661
  875YOPE   C2B12320  13.380  -0.055   7.010  0.1200 -0.0528  0.0681
  875YOPE   D3B12321  13.404  -0.403   7.280  0.1734 -0.1737  0.2155
  875YOPE   C4B12322  13.433  -0.745   7.702  0.2110 -0.2744 -0.0888
  876YOPE   NH312323   3.388   1.054   5.938  0.0643 -0.2222 -0.0130
  876YOPE   PO412324   3.484   1.452   6.001  0.1892 -0.1233 -0.0795
  876YOPE   GL112325   3.694   1.546   6.395  0.1283  0.1749 -0.1469
  876YOPE   GL212326   3.996   1.682   6.372 -0.0669 -0.0366 -0.0519
  876YOPE   C1A12327   3.860   1.367   6.736  0.2226 -0.1324  0.0008
  876YOPE   D2A12328   3.863   1.259   7.198 -0.0940 -0.1904  0.2563
  876YOPE   C3A12329   3.994   0.940   7.432  0.0419  0.2889 -0.2694
  876YOPE   C4A12330   4.215   0.568   7.392 -0.4781  0.0308  0.0268
  876YOPE   C1B12331   3.950   1.851   6.844  0.0147  0.1949 -0.1312
  876YOPE   C2B12332   3.942   1.742   7.325 -0.2211 -0.1156 -0.0537
  876YOPE   D3B12333   4.001   1.650   7.744 -0.0555  0.0951 -0.1737
  876YOPE   C4B12334   3.755   1.271   7.835 -0.0298 -0.2155  0.1475
  877YOPE   NH312335   0.087  15.709   6.124  0.0520  0.0306 -0.3432
  877YOPE   PO412336   0.017  16.190   5.997 -0.2858  0.0242  0.1287
  877YOPE   GL112337  -0.102  16.271   6.355 -0.0807  0.0689 -0.1519
  877YOPE   GL212338  -0.140  16.184   6.751 -0.1773  0.0871 -0.4933
  877YOPE   C1A12339   0.014  16.714   6.583 -0.1576  0.1818  0.1071
  877YOPE   D2A12340   0.159  16.919   6.827 -0.0009 -0.0992  0.0741
  877YOPE   C3A12341   0.133  16.738   7.237  0.0980 -0.1663 -0.0931
  877YOPE   C4A12342   0.279  16.637   7.583  0.1465  0.1022  0.0480
  877YOPE   C1B12343  -0.253  16.463   7.027 -0.0880 -0.0747 -0.0097
  877YOPE   C2B12344  -0.322  16.721   7.383 -0.1343  0.1145 -0.1089
  877YOPE   D3B12345  -0.619  16.828   7.709  0.1337  0.0261  0.1616
  877YOPE   C4B12346  -0.820  17.106   7.984 -0.0028 -0.0543 -0.1767
  878YOPE   NH312347   1.022  15.874   6.031 -0.1165  0.1087  0.0952
  878YOPE   PO412348   1.538  15.696   6.051  0.0738  0.2468 -0.2083
  878YOPE   GL112349   1.345  15.712   6.444 -0.2312 -0.1083  0.2341
  878YOPE   GL212350   1.133  15.993   6.506  0.0959  0.0590 -0.0691
  878YOPE   C1A12351   1.285  15.631   6.863  0.1462  0.2939 -0.0760
  878YOPE   D2A12352   1.150  15.709   7.260  0.2913 -0.0470 -0.2106
  878YOPE   C3A12353   1.274  15.628   7.669 -0.1643 -0.3019  0.1930
  878YOPE   C4A12354   1.193  15.245   7.810  0.1932  0.2736  0.2218
  878YOPE   C1B12355   0.939  16.138   6.817  0.1119 -0.1226  0.2629
  878YOPE   C2B12356   0.904  16.228   7.220 -0.1765 -0.0562  0.1735
  878YOPE   D3B12357   0.741  16.415   7.541 -0.1294  0.1175  0.2841
  878YOPE   C4B12358   0.783  16.535   7.932  0.0684 -0.1966 -0.0737
  879YOPE   NH312359   6.705   8.195   5.928  0.0104 -0.0346  0.0816
  879YOPE   PO412360   6.379   8.437   5.860  0.1028  0.2014  0.2128
  879YOPE   GL112361   6.154   8.718   6.067  0.0160  0.0292  0.1313
  879YOPE   GL212362   5.841   8.691   6.095  0.1842  0.4912  0.1988
  879YOPE   C1A12363   6.175   9.070   6.375  0.1459 -0.0530  0.0695
  879YOPE   D2A12364   6.195   9.325   6.739 -0.0723 -0.2954  0.0262
  879YOPE   C3A12365   6.375   9.616   6.913 -0.0345  0.0328  0.0407
  879YOPE   C4A12366   6.195   9.835   7.294  0.1481 -0.0371  0.1725
  879YOPE   C1B12367   5.780   8.657   6.439 -0.3139 -0.3116 -0.2721
  879YOPE   C2B12368   5.745   8.396   6.801 -0.1314 -0.1610 -0.1423
  879YOPE   D3B12369   5.966   8.181   7.004 -0.2439  0.1211 -0.1593
  879YOPE   C4B12370   6.196   8.297   7.389  0.2037  0.1775 -0.1508
  880YOPE   NH312371   7.393   9.361   5.728 -0.0337  0.2175 -0.0201
  880YOPE   PO412372   7.886   9.226   5.745  0.1041 -0.1492  0.2734
  880YOPE   GL112373   7.634   9.267   6.162 -0.2131  0.1047 -0.0461
  880YOPE   GL212374   7.462   9.535   6.252 -0.2193 -0.0501  0.0445
  880YOPE   C1A12375   7.526   9.025   6.513  0.4616  0.2558 -0.5571
  880YOPE   D2A12376   7.647   8.923   6.872 -0.0630 -0.1065  0.0619
  880YOPE   C3A12377   7.477   8.601   7.050 -0.0065 -0.0637 -0.2147
  880YOPE   C4A12378   7.312   8.425   7.457 -0.0088  0.1371  0.0212
  880YOPE   C1B12379   7.575   9.578   6.775  0.1286 -0.1692 -0.1637
  880YOPE   C2B12380   7.892   9.756   7.139  0.0598  0.1670  0.3069
  880YOPE   D3B12381   7.951  10.077   7.499  0.1580  0.0599  0.1755
  880YOPE   C4B12382   8.257  10.305   7.654 -0.0362 -0.1577  0.1934
  881YOPE   NH312383  17.118   4.243   5.723 -0.0279 -0.1003  0.2666
  881YOPE   PO412384  17.561   4.098   5.761 -0.0499  0.1027  0.0007
  881YOPE   GL112385  17.698   3.797   6.026 -0.3045  0.2123  0.0042
  881YOPE   GL212386  18.026   3.740   6.029  0.0699 -0.0985  0.0726
  881YOPE   C1A12387  17.758   3.681   6.441  0.1042  0.0036 -0.0154
  881YOPE   D2A12388  17.880   3.566   6.910 -0.4189  0.1019 -0.0034
  881YOPE   C3A12389  18.025   3.799   7.227  0.3635 -0.2207 -0.0372
  881YOPE   C4A12390  17.944   4.130   7.544 -0.2581 -0.2017  0.1124
  881YOPE   C1B12391  18.274   3.602   6.409 -0.0835 -0.1190 -0.0464
  881YOPE   C2B12392  18.458   3.692   6.665  0.0671  0.1074  0.2216
  881YOPE   D3B12393  18.513   3.899   7.167 -0.0975 -0.1334 -0.0265
  881YOPE   C4B12394  18.625   4.314   7.364  0.0853 -0.0088  0.1916
  882YOPE   NH312395  13.967  12.820   6.324 -0.0723  0.1555 -0.0275
  882YOPE   PO412396  13.584  12.986   6.265 -0.2403 -0.1518 -0.1174
  882YOPE   GL112397  13.552  13.093   6.737 -0.2283 -0.1435 -0.0646
  882YOPE   GL212398  13.403  13.018   6.878 -0.0139  0.0757  0.0063
  882YOPE   C1A12399  13.758  13.329   6.944 -0.0878 -0.0526 -0.0206
  882YOPE   D2A12400  13.977  13.379   7.209 -0.0762  0.5673 -0.2185
  882YOPE   C3A12401  13.761  13.567   7.512  0.0234 -0.0789  0.1534
  882YOPE   C4A12402  13.828  13.843   7.773 -0.3578  0.1421 -0.0879
  882YOPE   C1B12403  13.159  12.917   7.192 -0.0088  0.1236 -0.4792
  882YOPE   C2B12404  13.114  13.015   7.595 -0.0561 -0.0326 -0.0844
  882YOPE   D3B12405  13.132  12.887   8.038 -0.1132 -0.0410 -0.0174
  882YOPE   C4B12406  13.089  12.616   8.425  0.1636  0.2275 -0.0948
  883YOPE   NH312407   1.932  13.419   5.759  0.1591 -0.3985 -0.1480
  883YOPE   PO412408   2.367  13.351   5.770  0.0258 -0.2889  0.1494
  883YOPE   GL112409   2.615  13.096   6.086 -0.0792 -0.1225  0.3381
  883YOPE   GL212410   2.538  12.723   6.057  0.1231  0.3430  0.2819
  883YOPE   C1A12411   2.717  13.113   6.539 -0.0406 -0.1203  0.1731
  883YOPE   D2A12412   2.594  12.937   6.869  0.0367  0.0551  0.1106
  883YOPE   C3A12413   2.223  13.182   7.235  0.0460  0.1710 -0.0923
  883YOPE   C4A12414   2.139  13.442   7.407  0.0446 -0.1433 -0.1964
  883YOPE   C1B12415   2.744  12.635   6.433 -0.0357 -0.0331  0.2651
  883YOPE   C2B12416   2.794  12.441   6.833 -0.0212 -0.0798 -0.0760
  883YOPE   D3B12417   2.876  12.205   7.196  0.2337 -0.0476  0.2952
  883YOPE   C4B12418   2.802  12.127   7.629 -0.1001  0.1295  0.0437
  884YOPE   NH312419  13.028  12.110   6.468  0.0650  0.4229 -0.3358
  884YOPE   PO412420  12.882  11.734   6.309  0.3474 -0.0932 -0.0315
  884YOPE   GL112421  12.711  11.558   6.604 -0.0554 -0.1105 -0.1593
  884YOPE   GL212422  13.050  11.570   6.765  0.2456 -0.0172  0.1806
  884YOPE   C1A12423  12.560  11.545   7.038 -0.0969 -0.0323  0.1785
  884YOPE   D2A12424  12.611  11.343   7.355 -0.2973  0.0468 -0.2130
  884YOPE   C3A12425  12.808  11.398   7.574 -0.0116 -0.1385 -0.1579
  884YOPE   C4A12426  13.100  11.616   7.711 -0.0720 -0.0821  0.0752
  884YOPE   C1B12427  13.112  11.402   7.173 -0.0508 -0.0650 -0.2033
  884YOPE   C2B12428  13.474  11.405   7.409  0.0738 -0.1443  0.3532
  884YOPE   D3B12429  13.624  11.275   7.775 -0.1834 -0.1332  0.0411
  884YOPE   C4B12430  13.809  11.403   8.119 -0.0836  0.0498 -0.2413
  885YOPE   NH312431  14.510   3.598   5.826 -0.1999 -0.3171 -0.0181
  885YOPE   PO412432  14.207   3.878   5.907 -0.0552 -0.0018  0.0483
  885YOPE   GL112433  14.485   4.029   6.168 -0.0190 -0.3251 -0.2054
  885YOPE   GL212434  14.823   4.188   6.081 -0.0785  0.0932  0.1127
  885YOPE   C1A12435  14.385   3.920   6.564  0.1755 -0.0994  0.0002
  885YOPE   D2A12436  14.440   3.980   6.963 -0.0267 -0.0622  0.0171
  885YOPE   C3A12437  14.317   4.247   7.240  0.0801 -0.0836  0.2224
  885YOPE   C4A12438  14.346   4.436   7.635  0.3588 -0.1127  0.3124
  885YOPE   C1B12439  15.069   4.102   6.399  0.1239  0.1048  0.0399
  885YOPE   C2B12440  14.883   4.071   6.800  0.0637 -0.1239 -0.1723
  885YOPE   D3B12441  14.879   4.144   7.258 -0.2172  0.0640  0.0583
  885YOPE   C4B12442  14.727   4.075   7.600  0.1694  0.0951 -0.0562
  886YOPE   NH312443   2.325  11.914   5.904 -0.0946  0.0066 -0.2196
  886YOPE   PO412444   2.843  11.944   5.911  0.0287  0.4073  0.0807
  886YOPE   GL112445   2.732  12.142   6.299 -0.0219  0.3057  0.1141
  886YOPE   GL212446   2.478  12.290   6.328  0.0966 -0.0329 -0.0512
  886YOPE   C1A12447   2.504  11.989   6.711  0.1507  0.2216 -0.2504
  886YOPE   D2A12448   2.306  12.099   7.102 -0.1655 -0.1579 -0.3623
  886YOPE   C3A12449   1.960  12.046   7.248 -0.0017 -0.1082 -0.1292
  886YOPE   C4A12450   1.713  11.946   7.545  0.1993  0.1613 -0.2069
  886YOPE   C1B12451   2.204  12.410   6.696 -0.3665  0.0168  0.1045
  886YOPE   C2B12452   2.427  12.580   7.136 -0.2357 -0.2767  0.3481
  886YOPE   D3B12453   2.412  12.455   7.578  0.1623  0.0379  0.2169
  886YOPE   C4B12454   2.259  12.003   7.674  0.1082  0.2028  0.0046
  887YOPE   NH312455   0.290  13.273   6.280  0.2649  0.1220 -0.1560
  887YOPE   PO412456  -0.052  13.291   6.132 -0.0700 -0.1579 -0.2484
  887YOPE   GL112457  -0.333  13.348   6.466  0.1072 -0.0516 -0.4726
  887YOPE   GL212458  -0.059  13.369   6.661 -0.0243  0.2307  0.2803
  887YOPE   C1A12459  -0.479  13.085   6.848  0.0932 -0.0253 -0.0353
  887YOPE   D2A12460  -0.381  12.894   7.143 -0.2331  0.0892  0.1075
  887YOPE   C3A12461  -0.431  13.102   7.619 -0.0383 -0.0996  0.0720
  887YOPE   C4A12462  -0.519  12.942   7.952  0.2382 -0.0998 -0.0614
  887YOPE   C1B12463  -0.171  13.386   7.071  0.0538  0.0322  0.0249
  887YOPE   C2B12464   0.012  13.218   7.465  0.0503 -0.0286 -0.0116
  887YOPE   D3B12465   0.162  13.000   7.952  0.0157  0.1398 -0.1479
  887YOPE   C4B12466   0.553  12.897   8.229 -0.2298  0.3959 -0.1124
  888YOPE   NH312467  13.597  17.273   6.161 -0.0654  0.3704  0.0570
  888YOPE   PO412468  13.267  17.483   5.929 -0.0535 -0.1110 -0.1687
  888YOPE   GL112469  13.281  17.690   6.351  0.2924 -0.0944  0.0267
  888YOPE   GL212470  12.918  17.842   6.538 -0.0584  0.2691  0.1967
  888YOPE   C1A12471  13.576  17.531   6.755 -0.1036  0.0568  0.0555
  888YOPE   D2A12472  13.955  17.286   6.941  0.2679 -0.0405  0.0414
  888YOPE   C3A12473  13.847  17.258   7.401  0.0350  0.0966  0.0230
  888YOPE   C4A12474  13.871  16.994   7.804 -0.3380 -0.1845 -0.0460
  888YOPE   C1B12475  12.841  18.126   6.941 -0.0704  0.0141  0.2204
  888YOPE   C2B12476  12.585  18.252   7.243  0.0181  0.0236 -0.1254
  888YOPE   D3B12477  12.663  18.265   7.669  0.2162 -0.1662  0.1329
  888YOPE   C4B12478  13.001  18.104   7.899  0.0308  0.1692  0.1032
  889YOPE   NH312479  11.320   6.626   6.598 -0.1209  0.1167 -0.1287
  889YOPE   PO412480  10.889   6.630   6.410  0.0762 -0.0967 -0.2018
  889YOPE   GL112481  10.941   6.774   6.907 -0.0382 -0.0660 -0.1269
  889YOPE   GL212482  10.699   6.939   6.929 -0.0561  0.0407 -0.1370
  889YOPE   C1A12483  11.168   6.671   7.226 -0.0834  0.1837  0.2988
  889YOPE   D2A12484  11.217   6.819   7.568  0.1243  0.0034 -0.0750
  889YOPE   C3A12485  11.127   6.584   7.865  0.3533  0.1311  0.1667
  889YOPE   C4A12486  10.932   6.677   8.244  0.2172  0.4247  0.1708
  889YOPE   C1B12487  10.788   7.063   7.360  0.1961  0.2575 -0.0083
  889YOPE   C2B12488  10.760   6.979   7.824  0.1081  0.2388  0.1246
  889YOPE   D3B12489  10.814   7.169   8.214  0.1005 -0.2364  0.3390
  889YOPE   C4B12490  11.064   7.107   8.562  0.0069 -0.2833  0.0020
  890YOPE   NH312491  16.376   0.914   6.186 -0.1501 -0.1609 -0.2519
  890YOPE   PO412492  16.714   0.914   6.024 -0.0559 -0.1298 -0.0366
  890YOPE   GL112493  16.712   0.662   6.531 -0.4097 -0.1093  0.0273
  890YOPE   GL212494  16.434   0.546   6.508 -0.2586 -0.0385  0.2444
  890YOPE   C1A12495  16.727   0.339   6.912 -0.1002  0.1369 -0.2695
  890YOPE   D2A12496  16.805   0.294   7.414 -0.1141  0.0799  0.2459
  890YOPE   C3A12497  17.108   0.397   7.729  0.1491  0.1519 -0.1557
  890YOPE   C4A12498  17.080   0.361   8.154  0.1330  0.0109  0.0413
  890YOPE   C1B12499  16.312   0.831   6.832 -0.2733 -0.1486 -0.1028
  890YOPE   C2B12500  16.301   1.162   7.164 -0.0500 -0.0900  0.1872
  890YOPE   D3B12501  16.577   1.239   7.496 -0.0223 -0.2596 -0.1826
  890YOPE   C4B12502  16.579   1.071   7.938  0.0194 -0.0930 -0.0702
  891YOPE   NH312503   9.155  13.052   6.222 -0.1085  0.0170 -0.2174
  891YOPE   PO412504   8.752  13.216   6.395  0.0684 -0.0662 -0.1290
  891YOPE   GL112505   8.681  13.223   6.783  0.0452 -0.2024 -0.1725
  891YOPE   GL212506   8.573  13.494   6.887 -0.0447  0.1149 -0.1656
  891YOPE   C1A12507   8.719  13.023   7.159 -0.1473 -0.0042  0.0245
  891YOPE   D2A12508   8.490  13.053   7.528 -0.4680  0.1652  0.2811
  891YOPE   C3A12509   8.049  12.925   7.514 -0.1360 -0.1862  0.1361
  891YOPE   C4A12510   7.837  12.676   7.831 -0.0793  0.0759 -0.1021
  891YOPE   C1B12511   8.712  13.507   7.253 -0.1245 -0.1055 -0.1035
  891YOPE   C2B12512   8.746  13.477   7.648 -0.3251 -0.0167 -0.2000
  891YOPE   D3B12513   8.673  13.627   8.078 -0.2742  0.2396 -0.0374
  891YOPE   C4B12514   8.552  13.582   8.598  0.0059  0.2632 -0.0802
  892YOPE   NH312515   8.794   0.334   6.328 -0.1261  0.0078 -0.0810
  892YOPE   PO412516   9.141   0.516   6.479  0.3280 -0.1962 -0.1264
  892YOPE   GL112517   9.374   0.793   6.680 -0.3605 -0.2458  0.0029
  892YOPE   GL212518   9.292   1.032   6.800 -0.1342 -0.0431 -0.0840
  892YOPE   C1A12519   9.717   0.795   6.972  0.2070  0.1410  0.0817
  892YOPE   D2A12520   9.824   0.567   7.284  0.0805  0.2383  0.0835
  892YOPE   C3A12521   9.966   0.482   7.763  0.0405  0.5023  0.0956
  892YOPE   C4A12522   9.977   0.678   8.229 -0.1340  0.3184  0.1826
  892YOPE   C1B12523   9.419   1.085   7.263  0.1342 -0.3212 -0.0495
  892YOPE   C2B12524   9.415   1.232   7.660  0.2379  0.0518  0.3198
  892YOPE   D3B12525   9.699   1.642   7.682  0.0987  0.0116  0.0772
  892YOPE   C4B12526   9.829   1.987   7.958 -0.0299 -0.2823 -0.2342
  893YOPE   NH312527   0.174  17.720   6.022  0.0918  0.2171  0.3299
  893YOPE   PO412528   0.568  17.633   6.110  0.3874  0.0367 -0.3202
  893YOPE   GL112529   0.353  17.642   6.515 -0.2007 -0.2034 -0.0585
  893YOPE   GL212530   0.241  17.318   6.603  0.0517 -0.0621 -0.1406
  893YOPE   C1A12531   0.317  17.864   6.867  0.0974 -0.0566  0.1303
  893YOPE   D2A12532   0.419  17.709   7.379  0.2691 -0.1000 -0.0268
  893YOPE   C3A12533   0.227  17.809   7.747  0.0734  0.2565  0.0359
  893YOPE   C4A12534   0.141  18.017   8.006 -0.0648 -0.1401  0.0874
  893YOPE   C1B12535  -0.020  17.410   7.018  0.2789 -0.1520  0.0498
  893YOPE   C2B12536  -0.080  17.601   7.357 -0.0595  0.0072  0.0833
  893YOPE   D3B12537  -0.300  17.733   7.690 -0.4475  0.0435 -0.0686
  893YOPE   C4B12538  -0.493  17.509   7.925  0.0554 -0.3867  0.0576
  894YOPE   NH312539   7.449   0.776   6.215 -0.1793 -0.0008 -0.3224
  894YOPE   PO412540   7.230   1.132   6.233  0.2385 -0.1437  0.0733
  894YOPE   GL112541   7.096   1.017   6.619 -0.0063  0.0294  0.2194
  894YOPE   GL212542   6.778   1.154   6.802 -0.1436 -0.0419 -0.1093
  894YOPE   C1A12543   7.145   0.750   6.956 -0.3023 -0.1476 -0.3060
  894YOPE   D2A12544   7.085   0.750   7.406 -0.2591  0.0206 -0.3541
  894YOPE   C3A12545   6.747   0.632   7.552  0.1405  0.2277  0.0703
  894YOPE   C4A12546   6.512   0.255   7.579 -0.4843 -0.0798 -0.2012
  894YOPE   C1B12547   6.698   1.104   7.268  0.2343  0.0334  0.1814
  894YOPE   C2B12548   6.464   1.130   7.627 -0.2046 -0.2810  0.1874
  894YOPE   D3B12549   6.529   1.179   8.093 -0.0621 -0.3163 -0.1498
  894YOPE   C4B12550   6.651   1.110   8.555  0.4444  0.1334  0.0302
  895YOPE   NH312551  17.662  14.387   5.914  0.0872 -0.0802 -0.0034
  895YOPE   PO412552  17.278  14.672   6.025  0.2486 -0.1828 -0.2589
  895YOPE   GL112553  17.363  14.925   6.389  0.0772 -0.0422 -0.0169
  895YOPE   GL212554  17.169  14.796   6.528  0.0072  0.0271 -0.0925
  895YOPE   C1A12555  17.384  15.290   6.795 -0.2519 -0.0828 -0.0154
  895YOPE   D2A12556  17.401  15.456   7.209 -0.0025 -0.3234  0.0485
  895YOPE   C3A12557  17.713  15.566   7.434 -0.2738 -0.4200  0.2711
  895YOPE   C4A12558  17.732  15.778   7.867 -0.2581 -0.1019 -0.2625
  895YOPE   C1B12559  17.632  14.791   6.750  0.0865 -0.0679 -0.3268
  895YOPE   C2B12560  17.958  14.728   7.086 -0.0270  0.3435  0.2098
  895YOPE   D3B12561  18.166  14.600   7.506 -0.0908 -0.1501 -0.1111
  895YOPE   C4B12562  18.166  14.350   7.811 -0.3474 -0.3498 -0.1306
  896YOPE   NH312563   9.744  13.460   6.582 -0.1588  0.1762  0.2481
  896YOPE   PO412564  10.116  13.366   6.387 -0.0345 -0.1214 -0.0565
  896YOPE   GL112565  10.160  13.449   6.853 -0.1851  0.1060 -0.2872
  896YOPE   GL212566  10.303  13.724   7.021 -0.0894 -0.0873  0.0262
  896YOPE   C1A12567   9.961  13.369   7.258 -0.0413  0.1502 -0.0097
  896YOPE   D2A12568   9.995  13.322   7.653 -0.0418 -0.1280 -0.1213
  896YOPE   C3A12569   9.664  13.219   7.906 -0.2091 -0.0602 -0.0693
  896YOPE   C4A12570   9.484  13.048   8.291 -0.0076 -0.2310 -0.1560
  896YOPE   C1B12571  10.400  13.593   7.437  0.0189  0.0981 -0.1692
  896YOPE   C2B12572  10.521  13.536   7.808 -0.1659  0.0835 -0.2911
  896YOPE   D3B12573  10.351  13.788   8.181  0.2775  0.1082 -0.0296
  896YOPE   C4B12574  10.367  13.821   8.652  0.2059  0.4028 -0.1375
  897YOPE   NH312575   8.787  17.471   6.399 -0.1149 -0.0999  0.1362
  897YOPE   PO412576   8.536  17.802   6.350 -0.1653 -0.2350 -0.3947
  897YOPE   GL112577   8.551  18.029   6.772 -0.2822  0.0950  0.2540
  897YOPE   GL212578   8.581  18.290   6.774  0.3549 -0.0938 -0.0053
  897YOPE   C1A12579   8.326  18.081   7.157 -0.2044  0.0223  0.2454
  897YOPE   D2A12580   8.331  17.867   7.531  0.3395 -0.1138 -0.0979
  897YOPE   C3A12581   8.588  17.930   7.654  0.1640  0.2691 -0.0295
  897YOPE   C4A12582   8.780  17.780   7.980 -0.0505 -0.1435  0.1455
  897YOPE   C1B12583   8.616  18.526   7.201  0.2448  0.1924 -0.1028
  897YOPE   C2B12584   8.511  18.872   7.436 -0.3936  0.1839  0.0571
  897YOPE   D3B12585   8.698  18.836   7.820 -0.5910 -0.0849  0.1560
  897YOPE   C4B12586   8.741  18.880   8.243 -0.5013  0.1909 -0.3087
  898YOPE   NH312587  11.981   0.025   6.356  0.0337  0.0287  0.1067
  898YOPE   PO412588  11.738   0.488   6.424 -0.2257  0.2815  0.1384
  898YOPE   GL112589  11.788   0.339   6.797 -0.2301 -0.1528  0.0193
  898YOPE   GL212590  12.082   0.457   6.807  0.2447  0.1670 -0.0677
  898YOPE   C1A12591  11.839   0.261   7.243  0.0112  0.0448  0.1505
  898YOPE   D2A12592  11.740   0.304   7.593 -0.2703 -0.1996  0.0533
  898YOPE   C3A12593  11.795   0.588   7.907 -0.2803 -0.2727  0.0274
  898YOPE   C4A12594  11.939   0.628   8.336  0.0778 -0.1315 -0.2061
  898YOPE   C1B12595  11.893   0.802   7.096  0.3067  0.1354  0.0435
  898YOPE   C2B12596  11.723   0.802   7.460 -0.3634  0.1497 -0.0505
  898YOPE   D3B12597  11.479   0.958   7.751 -0.4789  0.1380 -0.1254
  898YOPE   C4B12598  11.419   0.949   8.182 -0.2459  0.1664  0.0665
  899YOPE   NH312599  16.878   9.761   6.383  0.2508 -0.1339 -0.2508
  899YOPE   PO412600  16.739   9.345   6.176  0.0768  0.1607 -0.2137
  899YOPE   GL112601  16.938   9.290   6.586 -0.0096  0.0242  0.1062
  899YOPE   GL212602  17.274   9.452   6.552  0.3737  0.2756  0.1388
  899YOPE   C1A12603  16.725   9.238   7.003  0.2204 -0.0836 -0.3279
  899YOPE   D2A12604  16.424   9.525   7.175 -0.2632  0.3399  0.2779
  899YOPE   C3A12605  16.356   9.522   7.594  0.1311 -0.3028 -0.0036
  899YOPE   C4A12606  16.397   9.681   7.877 -0.2667  0.0382 -0.2179
  899YOPE   C1B12607  17.137   9.597   7.001 -0.3425  0.3499  0.0858
  899YOPE   C2B12608  17.228   9.341   7.446 -0.2606  0.3282 -0.0993
  899YOPE   D3B12609  17.413   9.414   7.794 -0.0475  0.1268  0.3422
  899YOPE   C4B12610  17.425   9.839   7.874 -0.0198 -0.0324  0.3146
  900YOPE   NH312611  13.546   5.894   6.515  0.1503 -0.0998  0.0443
  900YOPE   PO412612  13.537   5.438   6.502 -0.1308  0.0792  0.2594
  900YOPE   GL112613  13.387   5.154   6.778 -0.1335 -0.0650 -0.0827
  900YOPE   GL212614  13.253   4.859   6.685 -0.1195  0.1009 -0.0430
  900YOPE   C1A12615  13.298   5.108   7.113  0.0551  0.1020  0.2600
  900YOPE   D2A12616  13.231   5.031   7.442 -0.3355 -0.3558  0.0075
  900YOPE   C3A12617  13.204   5.336   7.840 -0.0320 -0.2690 -0.0930
  900YOPE   C4A12618  13.187   5.272   8.238 -0.0704 -0.1157  0.0488
  900YOPE   C1B12619  13.335   4.551   7.020  0.1043  0.0204  0.2225
  900YOPE   C2B12620  13.385   4.551   7.505  0.1566 -0.1803 -0.1693
  900YOPE   D3B12621  13.074   4.726   7.906  0.1612 -0.1073 -0.0281
  900YOPE   C4B12622  13.076   4.790   8.359  0.0892  0.2898 -0.0357
  901YOPE   NH312623  10.852   6.106   6.458 -0.0190  0.0692  0.3003
  901YOPE   PO412624  11.268   6.180   6.336  0.3452  0.0413 -0.1100
  901YOPE   GL112625  11.430   6.062   6.715  0.0233  0.4190 -0.2433
  901YOPE   GL212626  11.476   5.706   6.741 -0.0385  0.1078  0.2141
  901YOPE   C1A12627  11.290   5.996   7.101 -0.2616 -0.0673 -0.1124
  901YOPE   D2A12628  11.127   6.187   7.489  0.1195  0.0971 -0.1797
  901YOPE   C3A12629  11.160   5.964   7.820  0.1187 -0.1964  0.0864
  901YOPE   C4A12630  11.105   6.169   8.229 -0.0613 -0.1791  0.0132
  901YOPE   C1B12631  11.695   5.626   7.158 -0.1726 -0.0913  0.1941
  901YOPE   C2B12632  11.778   5.637   7.503  0.2445 -0.1173 -0.1591
  901YOPE   D3B12633  11.931   5.525   7.886  0.1592  0.1107  0.1507
  901YOPE   C4B12634  11.922   5.568   8.311 -0.1966 -0.0154  0.4789
  902YOPE   NH312635   6.785  12.886   5.745 -0.2936 -0.0821 -0.0003
  902YOPE   PO412636   7.132  12.645   5.863 -0.2042  0.1441 -0.1046
  902YOPE   GL112637   7.368  12.600   6.246  0.2827  0.1791 -0.0993
  902YOPE   GL212638   7.393  12.983   6.384  0.0178  0.0842 -0.0501
  902YOPE   C1A12639   7.471  12.464   6.641 -0.1741  0.1877 -0.0045
  902YOPE   D2A12640   7.413  12.384   7.118  0.1320  0.1446 -0.1692
  902YOPE   C3A12641   7.005  12.429   7.477 -0.1307  0.2134  0.1139
  902YOPE   C4A12642   6.864  12.142   7.862 -0.2075 -0.1315 -0.2377
  902YOPE   C1B12643   7.017  12.753   6.601  0.1497  0.0739 -0.2474
  902YOPE   C2B12644   6.929  12.413   6.801  0.3633 -0.0821  0.0194
  902YOPE   D3B12645   6.825  12.186   7.114 -0.4180  0.1975  0.2185
  902YOPE   C4B12646   6.602  12.134   7.452 -0.1263 -0.1087  0.0011
  903YOPE   NH312647   9.781  16.170   6.336 -0.0812 -0.0252  0.0253
  903YOPE   PO412648   9.363  16.278   6.510  0.0464 -0.1979 -0.1242
  903YOPE   GL112649   9.426  16.174   6.866  0.0394 -0.1794 -0.1414
  903YOPE   GL212650   9.682  15.962   6.928  0.0872 -0.0866 -0.0127
  903YOPE   C1A12651   9.581  16.151   7.363 -0.2244 -0.0324 -0.1799
  903YOPE   D2A12652   9.581  15.965   7.837 -0.1301  0.1497  0.0232
  903YOPE   C3A12653   9.416  15.704   8.013  0.0472  0.1037  0.0307
  903YOPE   C4A12654   9.412  15.627   8.402  0.0578  0.0786  0.0027
  903YOPE   C1B12655   9.952  15.737   7.177  0.0299  0.5207  0.0989
  903YOPE   C2B12656  10.131  15.642   7.501 -0.0741  0.0711 -0.0616
  903YOPE   D3B12657  10.188  15.460   7.834  0.0578  0.2166 -0.0321
  903YOPE   C4B12658  10.433  15.143   7.933  0.0314 -0.1657  0.1192
  904YOPE   NH312659  14.599  16.378   6.467 -0.0717  0.1392 -0.0269
  904YOPE   PO412660  14.336  16.055   6.532  0.0830  0.1686 -0.1988
  904YOPE   GL112661  14.483  16.108   6.928 -0.2324  0.3055  0.1575
  904YOPE   GL212662  14.460  16.477   6.929  0.0453  0.0306 -0.4351
  904YOPE   C1A12663  14.470  16.046   7.304 -0.1584 -0.0594  0.0060
  904YOPE   D2A12664  14.424  16.122   7.735  0.2571  0.1410  0.0578
  904YOPE   C3A12665  13.989  15.913   7.884 -0.0750  0.3385 -0.1362
  904YOPE   C4A12666  13.821  15.444   7.952  0.0612 -0.2326 -0.0087
  904YOPE   C1B12667  14.891  16.400   7.058  0.1455 -0.2546 -0.0301
  904YOPE   C2B12668  15.218  16.500   7.341  0.0437  0.1950 -0.1312
  904YOPE   D3B12669  15.185  16.600   7.760 -0.2320  0.0255 -0.0485
  904YOPE   C4B12670  15.048  16.784   8.219 -0.1066  0.0618 -0.1556
  905YOPE   NH312671   6.490  11.553   5.792  0.0598  0.1225  0.3843
  905YOPE   PO412672   6.952  11.609   5.556  0.2180  0.0274 -0.1228
  905YOPE   GL112673   6.942  11.547   6.001  0.0533 -0.2472 -0.1302
  905YOPE   GL212674   7.038  11.278   5.933 -0.0116  0.0984 -0.0704
  905YOPE   C1A12675   7.041  11.704   6.369 -0.0763 -0.0222 -0.0057
  905YOPE   D2A12676   6.778  11.863   6.690  0.0222  0.2312  0.2516
  905YOPE   C3A12677   6.448  11.780   7.051  0.0639  0.1109 -0.1412
  905YOPE   C4A12678   6.116  11.904   7.324 -0.1566  0.0137  0.2945
  905YOPE   C1B12679   7.179  11.208   6.368 -0.1294 -0.1692 -0.0326
  905YOPE   C2B12680   7.248  11.430   6.720  0.2153  0.2730 -0.0330
  905YOPE   D3B12681   7.422  11.495   7.122 -0.0892  0.1726  0.0281
  905YOPE   C4B12682   7.678  11.510   7.431 -0.0623 -0.1776 -0.2247
  906YOPE   NH312683   8.859   2.690   5.911  0.0535 -0.0370 -0.1461
  906YOPE   PO412684   9.059   2.418   6.292 -0.1144  0.0532  0.1836
  906YOPE   GL112685   8.864   2.335   6.653  0.1864 -0.0591  0.3034
  906YOPE   GL212686   8.562   2.394   6.660 -0.1078 -0.1962 -0.0078
  906YOPE   C1A12687   8.731   2.214   7.086 -0.2598 -0.0153 -0.0819
  906YOPE   D2A12688   8.592   2.463   7.339  0.0967 -0.2058  0.1425
  906YOPE   C3A12689   8.186   2.491   7.610  0.0732  0.2155  0.0362
  906YOPE   C4A12690   8.110   2.472   8.142 -0.1586 -0.0917 -0.1193
  906YOPE   C1B12691   8.522   2.726   6.940 -0.0954  0.0564 -0.1831
  906YOPE   C2B12692   8.112   2.679   7.145 -0.0316 -0.0526  0.0229
  906YOPE   D3B12693   7.798   2.620   7.371 -0.0608  0.1388  0.0619
  906YOPE   C4B12694   7.650   2.502   7.744  0.4584 -0.1891  0.0887
  907YOPE   NH312695  13.218   5.190   6.220 -0.1200 -0.0070 -0.0466
  907YOPE   PO412696  12.783   5.272   6.212  0.0355 -0.3033 -0.0398
  907YOPE   GL112697  12.694   4.959   6.609  0.0796  0.3397 -0.0804
  907YOPE   GL212698  12.365   4.828   6.722  0.1108 -0.1623 -0.1426
  907YOPE   C1A12699  12.854   4.798   7.007 -0.1054 -0.1069 -0.0709
  907YOPE   D2A12700  12.902   4.677   7.445  0.5461 -0.1283  0.5042
  907YOPE   C3A12701  12.626   4.377   7.598 -0.3312 -0.2203 -0.2217
  907YOPE   C4A12702  12.432   4.192   8.028 -0.0498 -0.0404 -0.0429
  907YOPE   C1B12703  12.383   4.913   7.132  0.1573 -0.1540  0.0589
  907YOPE   C2B12704  12.375   4.787   7.550  0.2417  0.2881  0.0206
  907YOPE   D3B12705  12.120   4.605   7.782  0.0166 -0.0384 -0.1765
  907YOPE   C4B12706  12.067   4.696   8.189  0.2701  0.1030 -0.0582
  908YOPE   NH312707   5.674   4.125   5.998  0.2140 -0.2008 -0.0842
  908YOPE   PO412708   5.928   3.753   6.031 -0.0229 -0.3215  0.1240
  908YOPE   GL112709   5.754   3.820   6.387  0.2639 -0.2893 -0.0186
  908YOPE   GL212710   5.674   3.579   6.470  0.3450  0.0508  0.1456
  908YOPE   C1A12711   5.530   4.067   6.641  0.5371  0.4110  0.0032
  908YOPE   D2A12712   5.397   4.042   7.050 -0.0087 -0.0256 -0.0817
  908YOPE   C3A12713   5.364   4.115   7.426  0.1143 -0.2166 -0.2189
  908YOPE   C4A12714   5.444   4.240   7.868 -0.3626  0.1119 -0.0986
  908YOPE   C1B12715   5.704   3.694   6.931 -0.0644 -0.2168  0.1629
  908YOPE   C2B12716   5.679   3.724   7.365 -0.3235  0.1027 -0.3892
  908YOPE   D3B12717   5.938   3.562   7.733 -0.0154  0.0086 -0.1082
  908YOPE   C4B12718   6.276   3.519   8.031  0.1588 -0.0861 -0.0381
  909YOPE   NH312719   6.432   3.643   5.955  0.2864  0.0337  0.2385
  909YOPE   PO412720   6.644   3.260   6.183 -0.0326 -0.1322 -0.0506
  909YOPE   GL112721   6.804   3.145   6.522 -0.0404 -0.3393 -0.0876
  909YOPE   GL212722   7.049   2.951   6.723 -0.1041 -0.2401  0.0670
  909YOPE   C1A12723   6.568   3.318   6.917  0.2906 -0.0283  0.1023
  909YOPE   D2A12724   6.761   3.513   7.203 -0.0986  0.1702 -0.1678
  909YOPE   C3A12725   6.898   3.908   7.298  0.0115  0.4033 -0.0626
  909YOPE   C4A12726   7.224   4.098   7.364 -0.0189 -0.0038  0.0829
  909YOPE   C1B12727   7.122   3.134   7.165 -0.2079  0.2941  0.1790
  909YOPE   C2B12728   6.904   3.130   7.528 -0.0784 -0.0206 -0.0172
  909YOPE   D3B12729   6.816   3.362   7.868 -0.1292 -0.2111 -0.0317
  909YOPE   C4B12730   6.734   3.461   8.308  0.0346 -0.2220 -0.0880
  910YOPE   NH312731   0.686   2.319   5.957  0.1335 -0.1416 -0.0509
  910YOPE   PO412732   0.976   2.742   6.038  0.1753 -0.0558 -0.0647
  910YOPE   GL112733   0.852   3.007   6.366 -0.1764 -0.0783 -0.1591
  910YOPE   GL212734   0.868   3.360   6.410  0.1360  0.1435  0.0829
  910YOPE   C1A12735   0.637   3.165   6.868 -0.1137  0.2133 -0.0074
  910YOPE   D2A12736   0.438   3.447   7.231  0.0817 -0.0239  0.0238
  910YOPE   C3A12737   0.358   3.272   7.602  0.0323  0.1111  0.2294
  910YOPE   C4A12738   0.039   3.240   7.857  0.0298 -0.0700  0.0374
  910YOPE   C1B12739   0.998   3.464   6.783  0.2165  0.1463 -0.1996
  910YOPE   C2B12740   1.111   3.307   7.160  0.0146  0.1322 -0.4021
  910YOPE   D3B12741   1.330   3.272   7.531  0.3408  0.1668  0.0132
  910YOPE   C4B12742   1.315   3.194   7.996 -0.0643  0.2284  0.0319
  911YOPE   NH312743   0.044   6.740   6.017  0.3862 -0.0553  0.1441
  911YOPE   PO412744   0.113   7.074   5.587  0.1284  0.1393 -0.0805
  911YOPE   GL112745   0.420   7.149   5.906  0.0516  0.1646 -0.1157
  911YOPE   GL212746   0.447   6.962   6.234 -0.1386  0.1380 -0.3311
  911YOPE   C1A12747   0.863   7.191   6.166 -0.1959 -0.2450 -0.0636
  911YOPE   D2A12748   0.990   7.468   6.471  0.1229  0.0112 -0.0967
  911YOPE   C3A12749   1.203   7.443   6.874 -0.0449 -0.0636 -0.0028
  911YOPE   C4A12750   1.255   7.255   7.163 -0.0847 -0.1701 -0.1979
  911YOPE   C1B12751   0.740   7.064   6.667 -0.1066  0.0559  0.0559
  911YOPE   C2B12752   0.909   6.977   7.025 -0.4826 -0.1614  0.0134
  911YOPE   D3B12753   0.926   7.008   7.472 -0.1333 -0.1927 -0.0779
  911YOPE   C4B12754   0.782   6.993   7.849 -0.2131 -0.0020 -0.0642
  912YOPE   NH312755  14.442  11.280   6.181 -0.1657 -0.0672 -0.1148
  912YOPE   PO412756  14.291  11.601   6.272 -0.0979  0.0639 -0.1176
  912YOPE   GL112757  14.287  11.648   6.650  0.2027 -0.0058 -0.2141
  912YOPE   GL212758  14.395  11.344   6.812 -0.2194  0.2068 -0.0848
  912YOPE   C1A12759  14.017  11.707   6.969 -0.0921  0.0191  0.0956
  912YOPE   D2A12760  13.888  11.611   7.290  0.2432  0.1378  0.3320
  912YOPE   C3A12761  13.983  11.594   7.597  0.0265  0.0398 -0.1881
  912YOPE   C4A12762  14.135  11.769   7.953 -0.1044  0.2121 -0.0146
  912YOPE   C1B12763  14.399  11.450   7.216  0.1098 -0.1683  0.0547
  912YOPE   C2B12764  14.481  11.400   7.615 -0.0856 -0.0572 -0.0401
  912YOPE   D3B12765  14.610  11.525   7.969 -0.0026 -0.1336 -0.0748
  912YOPE   C4B12766  14.729  11.508   8.465  0.2694 -0.0585 -0.2214
  913YOPE   NH312767  15.588   2.535   6.127 -0.1488 -0.4047  0.1414
  913YOPE   PO412768  16.080   2.639   6.052 -0.0394 -0.0168 -0.2245
  913YOPE   GL112769  15.959   2.594   6.488  0.3933 -0.2174  0.1421
  913YOPE   GL212770  16.226   2.531   6.605  0.0529  0.3491 -0.0139
  913YOPE   C1A12771  15.666   2.442   6.894  0.3203 -0.0198 -0.0463
  913YOPE   D2A12772  15.464   2.748   7.083 -0.0312  0.2494  0.0298
  913YOPE   C3A12773  15.403   2.735   7.545 -0.0249  0.0384 -0.1078
  913YOPE   C4A12774  15.312   2.900   7.955 -0.1788  0.1032  0.1343
  913YOPE   C1B12775  16.019   2.882   6.905 -0.2673 -0.1670 -0.0458
  913YOPE   C2B12776  15.944   3.055   7.362  0.1057 -0.3344 -0.0176
  913YOPE   D3B12777  16.146   3.450   7.691 -0.0771  0.0583  0.0405
  913YOPE   C4B12778  16.238   3.825   7.957 -0.1892 -0.0068 -0.0442
  914YOPE   NH312779   7.091  15.931   5.940  0.0438 -0.1597  0.0509
  914YOPE   PO412780   6.867  15.539   6.032 -0.1759 -0.4307 -0.1093
  914YOPE   GL112781   6.892  15.802   6.367  0.3475 -0.1525 -0.0047
  914YOPE   GL212782   7.265  16.008   6.489  0.1862  0.3349  0.4590
  914YOPE   C1A12783   6.829  15.652   6.729 -0.0333 -0.1710 -0.2421
  914YOPE   D2A12784   6.697  15.401   6.987  0.0739 -0.2447 -0.0363
  914YOPE   C3A12785   6.770  15.334   7.396  0.1214  0.0101 -0.3295
  914YOPE   C4A12786   6.996  15.268   7.829  0.2633 -0.0672 -0.1562
  914YOPE   C1B12787   7.135  16.399   6.708 -0.1462  0.0338  0.4596
  914YOPE   C2B12788   6.931  16.565   7.056  0.0851 -0.0639 -0.1647
  914YOPE   D3B12789   6.724  16.884   7.187  0.0957  0.0950 -0.2145
  914YOPE   C4B12790   6.482  17.148   7.425  0.0365 -0.0107  0.3057
  915YOPE   NH312791  15.392  14.073   6.189 -0.0289  0.1744 -0.0435
  915YOPE   PO412792  15.054  13.826   6.430  0.0566  0.3867  0.0133
  915YOPE   GL112793  15.228  13.898   6.743 -0.1900 -0.1154  0.1664
  915YOPE   GL212794  15.201  14.236   6.715  0.0929 -0.0588 -0.0078
  915YOPE   C1A12795  15.235  13.546   7.008 -0.0218 -0.1202 -0.0368
  915YOPE   D2A12796  14.907  13.455   7.313 -0.0344 -0.0512  0.1237
  915YOPE   C3A12797  14.736  13.058   7.320 -0.1706  0.0663 -0.0893
  915YOPE   C4A12798  14.742  12.769   7.054  0.1148 -0.0058 -0.0182
  915YOPE   C1B12799  15.465  14.158   7.082  0.0032 -0.1333  0.2017
  915YOPE   C2B12800  15.603  14.346   7.445  0.2049  0.2768 -0.4982
  915YOPE   D3B12801  15.464  14.631   7.779  0.2714 -0.0701  0.0580
  915YOPE   C4B12802  15.223  14.887   7.986 -0.3272 -0.2128  0.1217
  916YOPE   NH312803   9.053   3.454   6.421 -0.4070 -0.3085  0.0088
  916YOPE   PO412804   9.530   3.545   6.326  0.0206 -0.1548 -0.2128
  916YOPE   GL112805   9.419   3.732   6.732 -0.0402  0.1045 -0.2092
  916YOPE   GL212806   9.759   3.911   6.838 -0.1078  0.0418 -0.1060
  916YOPE   C1A12807   9.285   4.019   7.154  0.0785  0.0296  0.0582
  916YOPE   D2A12808   9.059   4.041   7.561  0.0965  0.3097  0.4486
  916YOPE   C3A12809   8.629   3.886   7.625 -0.0960  0.0017 -0.2376
  916YOPE   C4A12810   8.300   3.593   7.889  0.2126  0.2258  0.0262
  916YOPE   C1B12811   9.769   4.150   7.204 -0.0108 -0.2692  0.0005
  916YOPE   C2B12812   9.661   4.351   7.594 -0.2499  0.2120  0.0734
  916YOPE   D3B12813   9.272   4.240   7.948  0.2438 -0.0372 -0.2485
  916YOPE   C4B12814   8.767   4.082   8.056 -0.1866 -0.2266 -0.0803
  917YOPE   NH312815   4.540   8.324   5.426 -0.1786  0.0644  0.1159
  917YOPE   PO412816   4.937   8.476   5.592  0.0071 -0.1712  0.0865
  917YOPE   GL112817   4.848   8.544   5.952 -0.1872 -0.0331 -0.0562
  917YOPE   GL212818   5.057   8.262   6.103 -0.1526 -0.0187  0.2255
  917YOPE   C1A12819   4.894   8.537   6.464  0.2176 -0.0705 -0.1304
  917YOPE   D2A12820   4.827   8.318   6.728 -0.0206  0.0730 -0.1231
  917YOPE   C3A12821   4.898   8.366   7.111  0.1602  0.0137 -0.0149
  917YOPE   C4A12822   4.726   8.538   7.499  0.0560 -0.5261 -0.2615
  917YOPE   C1B12823   4.847   7.943   6.268 -0.2019 -0.0105  0.0391
  917YOPE   C2B12824   4.659   7.858   6.678  0.1501  0.2979 -0.1551
  917YOPE   D3B12825   4.662   7.920   7.093  0.0431  0.0685 -0.1735
  917YOPE   C4B12826   4.822   7.991   7.478 -0.0387 -0.1284 -0.2814
  918YOPE   NH312827   1.445   4.640   5.947 -0.1312 -0.1238  0.3271
  918YOPE   PO412828   1.792   4.173   5.829 -0.2044 -0.1249 -0.1124
  918YOPE   GL112829   1.801   3.905   6.211 -0.0044 -0.1219  0.0273
  918YOPE   GL212830   1.526   3.857   6.257  0.1275  0.2001 -0.1970
  918YOPE   C1A12831   1.903   3.979   6.664 -0.1363  0.2904  0.1177
  918YOPE   D2A12832   1.959   3.830   7.090 -0.2069 -0.1262  0.0256
  918YOPE   C3A12833   1.827   4.012   7.451  0.2085  0.0414 -0.2949
  918YOPE   C4A12834   1.689   4.284   7.762  0.0366 -0.0922 -0.1389
  918YOPE   C1B12835   1.408   3.816   6.602 -0.1738 -0.1502 -0.0446
  918YOPE   C2B12836   1.663   3.516   6.854  0.1012 -0.1320 -0.0485
  918YOPE   D3B12837   1.615   3.114   7.050  0.1006 -0.0971  0.3018
  918YOPE   C4B12838   1.494   2.846   7.409  0.1107 -0.1728  0.0745
  919YOPE   NH312839   0.507   5.655   5.624  0.2442 -0.1003  0.0599
  919YOPE   PO412840   0.837   5.357   5.436  0.0438 -0.0140 -0.0930
  919YOPE   GL112841   0.935   5.588   5.887 -0.2344 -0.0865  0.2820
  919YOPE   GL212842   1.236   5.598   6.089 -0.2592 -0.1805 -0.4131
  919YOPE   C1A12843   0.830   5.551   6.347  0.0676  0.3191  0.2251
  919YOPE   D2A12844   0.692   5.407   6.685 -0.0104 -0.2073  0.1320
  919YOPE   C3A12845   0.934   5.448   7.142 -0.4157  0.1509  0.2466
  919YOPE   C4A12846   1.146   5.189   7.440 -0.1332  0.2560  0.1321
  919YOPE   C1B12847   1.429   5.388   6.537  0.1431 -0.1686 -0.1654
  919YOPE   C2B12848   1.341   5.268   6.879  0.0413 -0.0356 -0.0001
  919YOPE   D3B12849   1.027   5.001   7.002  0.2931 -0.1141  0.0986
  919YOPE   C4B12850   0.712   4.744   6.775  0.0999 -0.0145  0.2211
  920YOPE   NH312851   8.972   6.205   6.194 -0.0080  0.0669  0.2315
  920YOPE   PO412852   9.020   5.738   6.098 -0.0201 -0.1226 -0.3010
  920YOPE   GL112853   8.853   5.881   6.570  0.2715 -0.3787 -0.2291
  920YOPE   GL212854   9.167   6.029   6.638 -0.5203 -0.1490 -0.2193
  920YOPE   C1A12855   8.845   5.809   7.016  0.0984 -0.1150 -0.1225
  920YOPE   D2A12856   8.763   5.617   7.446  0.0082  0.2274 -0.0879
  920YOPE   C3A12857   8.878   5.750   7.865 -0.1394  0.0943 -0.2248
  920YOPE   C4A12858   8.937   5.906   8.261 -0.0547  0.2855 -0.0089
  920YOPE   C1B12859   9.312   6.145   7.079  0.3187  0.0236  0.0974
  920YOPE   C2B12860   9.121   6.072   7.410  0.1742 -0.2739 -0.0900
  920YOPE   D3B12861   9.091   6.320   7.792 -0.1048 -0.0652 -0.1581
  920YOPE   C4B12862   8.695   6.384   8.120  0.2116  0.0062  0.1680
  921YOPE   NH312863   3.091   4.052   5.707  0.0739  0.2381 -0.2329
  921YOPE   PO412864   3.254   4.436   5.866 -0.0916  0.1782 -0.0057
  921YOPE   GL112865   3.405   4.582   6.291 -0.0124 -0.1036 -0.1191
  921YOPE   GL212866   3.686   4.763   6.461  0.2433 -0.0101 -0.0912
  921YOPE   C1A12867   3.284   4.628   6.649  0.0923  0.0011  0.0527
  921YOPE   D2A12868   3.356   4.564   7.050 -0.1523 -0.1070 -0.2677
  921YOPE   C3A12869   3.426   4.655   7.539  0.1225  0.0882  0.0494
  921YOPE   C4A12870   3.534   4.386   7.807  0.0049  0.2273 -0.0386
  921YOPE   C1B12871   3.587   5.092   6.821  0.0518 -0.0775 -0.0581
  921YOPE   C2B12872   3.335   5.033   7.216 -0.0160 -0.0004  0.0404
  921YOPE   D3B12873   3.133   5.112   7.625 -0.2545  0.1283  0.1717
  921YOPE   C4B12874   2.768   4.957   7.764 -0.1568  0.0855 -0.1041
  922YOPE   NH312875   9.687   8.524   6.100  0.2423  0.2675  0.2608
  922YOPE   PO412876   9.771   8.796   6.406  0.1262 -0.4444  0.1060
  922YOPE   GL112877   9.856   9.099   6.738  0.0192 -0.0856 -0.0137
  922YOPE   GL212878  10.155   9.053   6.606 -0.1843 -0.1441 -0.0789
  922YOPE   C1A12879   9.860   9.218   7.193  0.2178 -0.1970 -0.1679
  922YOPE   D2A12880   9.684   9.513   7.529  0.1425 -0.1614 -0.0408
  922YOPE   C3A12881   9.586   9.552   7.978 -0.1468 -0.2387 -0.0426
  922YOPE   C4A12882   9.740   9.244   8.385  0.1965 -0.1091  0.2095
  922YOPE   C1B12883  10.160   8.850   7.034 -0.0002 -0.0109 -0.2202
  922YOPE   C2B12884  10.150   8.933   7.481  0.0225  0.1215  0.0857
  922YOPE   D3B12885  10.128   8.721   7.856  0.0078 -0.2166  0.0478
  922YOPE   C4B12886  10.047   8.700   8.269  0.0243 -0.0044 -0.3061
  923YOPE   NH312887   0.793   9.516   5.802  0.0074  0.0240 -0.1644
  923YOPE   PO412888   0.524   9.792   5.610 -0.0986  0.0877 -0.2296
  923YOPE   GL112889   0.499   9.904   6.062  0.0285 -0.0560 -0.1801
  923YOPE   GL212890   0.811   9.990   6.122  0.1392 -0.0582 -0.1812
  923YOPE   C1A12891   0.278   9.680   6.358  0.0336 -0.1882  0.2209
  923YOPE   D2A12892   0.287   9.450   6.737 -0.3097  0.1994  0.1543
  923YOPE   C3A12893   0.268   9.382   7.138  0.1089 -0.1786  0.2862
  923YOPE   C4A12894   0.173   9.173   7.436 -0.2025 -0.2294 -0.0640
  923YOPE   C1B12895   1.099   9.945   6.459  0.1752  0.2176 -0.2867
  923YOPE   C2B12896   1.028   9.920   6.870 -0.0205  0.0409 -0.0952
  923YOPE   D3B12897   1.057  10.164   7.378 -0.2862  0.1046  0.4045
  923YOPE   C4B12898   1.524  10.202   7.637 -0.0384 -0.0650 -0.1852
  924YOPE   NH312899   3.408   6.664   5.290  0.0275 -0.1086  0.3129
  924YOPE   PO412900   3.890   6.628   5.222  0.0693 -0.4522 -0.0183
  924YOPE   GL112901   3.730   6.867   5.581  0.1172  0.1340  0.1556
  924YOPE   GL212902   3.499   6.649   5.748 -0.1300 -0.1036  0.1516
  924YOPE   C1A12903   3.854   7.063   5.948 -0.0146 -0.0334 -0.0095
  924YOPE   D2A12904   4.156   7.312   5.962  0.3073  0.0348 -0.2855
  924YOPE   C3A12905   4.053   7.705   5.959  0.2177 -0.2007  0.0140
  924YOPE   C4A12906   3.989   8.067   5.838 -0.0952  0.0138  0.1536
  924YOPE   C1B12907   3.398   6.791   6.110  0.1548 -0.1859 -0.0696
  924YOPE   C2B12908   3.440   7.001   6.558 -0.2071 -0.0045 -0.1966
  924YOPE   D3B12909   3.178   7.087   6.964 -0.0591  0.1172 -0.1537
  924YOPE   C4B12910   3.035   7.231   7.377  0.1608 -0.1660 -0.4741
  925YOPE   NH312911   7.228   4.217   5.885 -0.0982 -0.0327 -0.1014
  925YOPE   PO412912   6.846   4.314   5.712 -0.1978  0.3033 -0.2896
  925YOPE   GL112913   6.775   4.180   6.192 -0.0865  0.1854  0.0202
  925YOPE   GL212914   7.103   3.988   6.331  0.1597  0.2676 -0.0706
  925YOPE   C1A12915   6.576   4.221   6.568  0.0218 -0.1001  0.1585
  925YOPE   D2A12916   6.393   4.475   6.892  0.2328  0.1437 -0.1388
  925YOPE   C3A12917   6.407   4.231   7.244 -0.0473  0.0030  0.0286
  925YOPE   C4A12918   6.273   4.405   7.697  0.0954  0.4908  0.1635
  925YOPE   C1B12919   7.079   4.232   6.740  0.0628  0.0952 -0.1570
  925YOPE   C2B12920   6.879   4.406   7.081  0.0368 -0.2590 -0.0705
  925YOPE   D3B12921   6.818   4.395   7.526  0.2903  0.0982 -0.1058
  925YOPE   C4B12922   7.133   4.206   7.815  0.0663  0.5148  0.1720
  926YOPE   NH312923   2.088  16.407   5.657  0.0563  0.1334  0.0649
  926YOPE   PO412924   2.190  16.805   5.898 -0.2168 -0.1011 -0.0183
  926YOPE   GL112925   2.071  16.797   6.391  0.2019  0.0740 -0.0403
  926YOPE   GL212926   1.731  16.746   6.410  0.3141 -0.0133  0.2580
  926YOPE   C1A12927   2.026  16.462   6.704 -0.1274  0.1383  0.0450
  926YOPE   D2A12928   1.930  16.425   7.157  0.4125 -0.1590 -0.0588
  926YOPE   C3A12929   2.030  16.106   7.342 -0.0379  0.1375 -0.2707
  926YOPE   C4A12930   2.301  15.836   7.451 -0.2353 -0.1191 -0.1369
  926YOPE   C1B12931   1.587  16.777   6.793 -0.0550  0.3274 -0.0408
  926YOPE   C2B12932   1.529  16.788   7.271 -0.1456 -0.4075 -0.0942
  926YOPE   D3B12933   1.615  16.903   7.713  0.1160 -0.1506  0.0008
  926YOPE   C4B12934   1.577  16.760   8.110 -0.0125 -0.2145  0.1876
  927YOPE   NH312935  12.035   9.111   5.791  0.0596 -0.0395 -0.0753
  927YOPE   PO412936  12.024   8.859   6.156  0.1873 -0.1800  0.1386
  927YOPE   GL112937  11.956   8.866   6.603  0.5180 -0.1502  0.1328
  927YOPE   GL212938  12.263   8.751   6.757 -0.0917  0.1174 -0.0401
  927YOPE   C1A12939  11.781   8.935   7.116  0.3053  0.1573  0.2003
  927YOPE   D2A12940  11.727   8.946   7.591  0.1110  0.0675  0.0373
  927YOPE   C3A12941  11.511   8.669   7.827 -0.0610  0.3621 -0.1849
  927YOPE   C4A12942  11.568   8.747   8.332  0.1413 -0.2442  0.1449
  927YOPE   C1B12943  12.280   8.706   7.251  0.0395  0.2784  0.0512
  927YOPE   C2B12944  11.977   8.513   7.573  0.1206 -0.0297 -0.0567
  927YOPE   D3B12945  12.017   8.397   7.952  0.0997  0.0727  0.1435
  927YOPE   C4B12946  12.059   8.058   8.118 -0.1875 -0.2035 -0.2156
  928YOPE   NH312947   3.778   1.192   5.617  0.1760  0.2087 -0.1598
  928YOPE   PO412948   3.709   0.759   5.758 -0.2557  0.0737  0.2284
  928YOPE   GL112949   3.699   0.618   6.190 -0.1912 -0.1799  0.2652
  928YOPE   GL212950   3.461   0.733   6.349  0.2065  0.1795  0.0741
  928YOPE   C1A12951   4.047   0.572   6.505 -0.1665  0.1499  0.0794
  928YOPE   D2A12952   4.270   0.209   6.626  0.0340  0.0797  0.1094
  928YOPE   C3A12953   4.236  -0.248   6.705  0.0286 -0.2152 -0.0154
  928YOPE   C4A12954   4.101  -0.614   6.797 -0.2465  0.1009  0.0391
  928YOPE   C1B12955   3.698   0.952   6.618  0.0059 -0.1705 -0.0918
  928YOPE   C2B12956   3.593   0.912   6.958  0.1734 -0.2426  0.1729
  928YOPE   D3B12957   3.355   1.104   7.267  0.3013  0.3543 -0.2349
  928YOPE   C4B12958   3.113   1.154   7.602  0.0180  0.1172 -0.0338
  929YOPE   NH312959  12.797  15.823   6.330 -0.1253 -0.2213  0.2001
  929YOPE   PO412960  12.377  15.859   6.155  0.0353  0.2893  0.0115
  929YOPE   GL112961  12.380  15.858   6.602  0.1466  0.1815 -0.0840
  929YOPE   GL212962  12.609  15.548   6.833  0.0839 -0.0949  0.0501
  929YOPE   C1A12963  12.437  15.925   7.096 -0.0239  0.0619  0.1288
  929YOPE   D2A12964  12.366  15.665   7.494 -0.0973  0.0538 -0.2205
  929YOPE   C3A12965  12.615  15.741   7.868 -0.2860  0.1820 -0.1978
  929YOPE   C4A12966  12.901  15.910   8.093  0.2040  0.0874  0.1794
  929YOPE   C1B12967  12.569  15.305   7.177  0.0781 -0.2691  0.2363
  929YOPE   C2B12968  12.294  15.219   7.588  0.1567 -0.0162  0.0663
  929YOPE   D3B12969  12.045  15.523   7.874 -0.0815  0.1578  0.2685
  929YOPE   C4B12970  12.027  15.413   8.254  0.0830  0.0870  0.3095
  930YOPE   NH312971   6.824   2.058   6.241  0.1543  0.4014 -0.0725
  930YOPE   PO412972   6.412   2.063   6.107  0.0788 -0.0412  0.1149
  930YOPE   GL112973   6.409   2.102   6.507  0.2912  0.1709  0.3232
  930YOPE   GL212974   6.077   2.264   6.513 -0.0792 -0.0430 -0.0358
  930YOPE   C1A12975   6.404   2.475   6.779  0.0164  0.2597 -0.0062
  930YOPE   D2A12976   6.516   2.853   6.811 -0.2278  0.0238 -0.1115
  930YOPE   C3A12977   6.517   2.965   7.263  0.0525  0.2239  0.1554
  930YOPE   C4A12978   6.338   3.349   7.498 -0.4906  0.3877  0.0890
  930YOPE   C1B12979   5.668   2.370   6.675  0.0391  0.1343  0.2925
  930YOPE   C2B12980   5.494   2.741   6.902  0.1958 -0.0652  0.2626
  930YOPE   D3B12981   5.439   2.708   7.342  0.2804  0.0722 -0.0911
  930YOPE   C4B12982   5.342   2.451   7.670  0.0819 -0.0371 -0.2037
  931YOPE   NH312983  13.116   9.645   6.424 -0.1032 -0.0156  0.0679
  931YOPE   PO412984  13.118  10.102   6.403 -0.0149 -0.3383  0.0007
  931YOPE   GL112985  13.208   9.986   6.827 -0.1922  0.1254 -0.0571
  931YOPE   GL212986  13.452   9.729   6.788 -0.0609  0.0384 -0.1561
  931YOPE   C1A12987  13.267   9.988   7.227  0.1497 -0.0823 -0.1702
  931YOPE   D2A12988  13.305  10.134   7.611  0.0525 -0.0762 -0.0534
  931YOPE   C3A12989  13.310   9.791   7.996  0.2810  0.0199  0.1894
  931YOPE   C4A12990  13.462   9.469   8.225  0.1634 -0.1444 -0.1599
  931YOPE   C1B12991  13.322   9.491   7.169 -0.2246  0.0731  0.0446
  931YOPE   C2B12992  13.245   9.090   7.338  0.2265  0.3122 -0.2751
  931YOPE   D3B12993  13.383   9.016   7.780  0.1263 -0.1521  0.3086
  931YOPE   C4B12994  13.490   8.911   8.186  0.0926 -0.0146 -0.0723
  932YOPE   NH312995  15.934   9.086   5.948 -0.1852  0.1252  0.0082
  932YOPE   PO412996  16.298   9.158   6.083 -0.2026 -0.1646  0.2778
  932YOPE   GL112997  16.261   9.063   6.440  0.2789 -0.1685  0.1005
  932YOPE   GL212998  16.594   8.905   6.525 -0.0500  0.0213  0.1106
  932YOPE   C1A12999  16.262   9.117   6.889 -0.0725 -0.1062 -0.1351
  932YOPE   D2A13000  16.073   9.121   7.291  0.1304 -0.0057  0.1773
  932YOPE   C3A13001  16.081   9.106   7.684 -0.0412  0.1001 -0.3892
  932YOPE   C4A13002  15.730   9.099   7.875  0.0687  0.1986 -0.2607
  932YOPE   C1B13003  16.676   8.701   6.934  0.3976  0.0252  0.2872
  932YOPE   C2B13004  16.546   8.777   7.283  0.0165  0.0754 -0.2293
  932YOPE   D3B13005  16.658   9.109   7.528 -0.2020 -0.1279  0.0512
  932YOPE   C4B13006  16.972   9.132   7.814 -0.0544  0.4553 -0.2755
  933YOPE   NH313007   6.034  14.010   5.840  0.1668  0.3404  0.2196
  933YOPE   PO413008   6.110  13.567   5.668 -0.1066  0.0661 -0.0630
  933YOPE   GL113009   6.288  13.538   6.067  0.1312  0.3562  0.1062
  933YOPE   GL213010   6.596  13.375   5.983  0.0153 -0.0826 -0.4234
  933YOPE   C1A13011   6.021  13.501   6.499 -0.0174 -0.3561 -0.0123
  933YOPE   D2A13012   5.648  13.598   6.914  0.2813 -0.1665  0.0556
  933YOPE   C3A13013   5.243  13.557   7.053 -0.0727  0.3157  0.1482
  933YOPE   C4A13014   4.857  13.460   6.897  0.0124 -0.0834  0.1893
  933YOPE   C1B13015   6.491  13.342   6.448  0.3030  0.0431  0.2537
  933YOPE   C2B13016   6.378  13.273   6.831  0.1020 -0.3892  0.0396
  933YOPE   D3B13017   6.459  13.164   7.217 -0.1298  0.0300  0.1389
  933YOPE   C4B13018   6.530  13.256   7.624 -0.1560  0.1325  0.0759
  934YOPE   NH313019   2.794   8.969   5.474  0.1422  0.2443  0.3354
  934YOPE   PO413020   2.829   9.323   5.444 -0.1098  0.1283  0.0894
  934YOPE   GL113021   2.693   9.269   5.869  0.1171  0.2452  0.0280
  934YOPE   GL213022   2.891   9.596   6.075  0.3368  0.1950  0.1087
  934YOPE   C1A13023   2.423   9.326   6.150  0.1406 -0.2962 -0.2082
  934YOPE   D2A13024   2.292   9.046   6.509  0.1531 -0.1942 -0.2677
  934YOPE   C3A13025   2.525   8.775   6.905  0.3160 -0.1319  0.0029
  934YOPE   C4A13026   2.628   8.515   7.366  0.1582  0.1073  0.2128
  934YOPE   C1B13027   2.791   9.220   6.456  0.1759  0.0013 -0.0119
  934YOPE   C2B13028   2.887   9.157   6.818  0.0295 -0.0069  0.1570
  934YOPE   D3B13029   3.139   9.128   7.170 -0.1351  0.1246 -0.2308
  934YOPE   C4B13030   3.166   8.941   7.530 -0.0260 -0.0539  0.0093
  935YOPE   NH313031  12.698  13.563   6.593 -0.2245 -0.0570 -0.0341
  935YOPE   PO413032  12.315  13.282   6.685  0.1786  0.1491  0.1023
  935YOPE   GL113033  12.330  13.008   7.016 -0.3725  0.2533 -0.1527
  935YOPE   GL213034  11.927  13.104   7.014  0.2476  0.0167  0.0467
  935YOPE   C1A13035  12.276  13.018   7.471 -0.0179 -0.0758  0.1920
  935YOPE   D2A13036  12.135  13.232   7.793  0.0579 -0.2547 -0.1113
  935YOPE   C3A13037  12.137  13.578   8.135 -0.1513 -0.1387  0.1498
  935YOPE   C4A13038  12.278  14.016   8.303  0.1508 -0.1723  0.1895
  935YOPE   C1B13039  11.765  13.150   7.409 -0.0470 -0.1176  0.0459
  935YOPE   C2B13040  11.402  13.121   7.625  0.0685 -0.1582  0.1260
  935YOPE   D3B13041  11.382  12.961   8.105  0.0661 -0.1775 -0.0556
  935YOPE   C4B13042  11.477  12.637   8.401 -0.3920  0.3754 -0.0303
  936YOPE   NH313043   8.662   8.305   6.104 -0.2708  0.0410 -0.2311
  936YOPE   PO413044   8.317   8.105   5.920 -0.1815  0.1660 -0.1042
  936YOPE   GL113045   8.202   7.978   6.284 -0.0602  0.0793 -0.0122
  936YOPE   GL213046   8.545   7.939   6.442  0.0309  0.0402 -0.1103
  936YOPE   C1A13047   8.239   8.046   6.833  0.0640  0.1332  0.0227
  936YOPE   D2A13048   8.097   8.373   7.226 -0.0332 -0.1687 -0.0290
  936YOPE   C3A13049   8.219   8.144   7.602  0.1488 -0.1865 -0.1857
  936YOPE   C4A13050   8.066   7.856   7.955  0.1581  0.0940  0.0104
  936YOPE   C1B13051   8.301   7.566   6.603 -0.1504  0.0193  0.0913
  936YOPE   C2B13052   7.850   7.380   6.663 -0.3037 -0.1171 -0.2657
  936YOPE   D3B13053   7.493   7.136   6.794  0.0282 -0.0687 -0.0065
  936YOPE   C4B13054   7.423   6.793   6.712  0.2092 -0.0580  0.0566
  937YOPE   NH313055   9.020  16.610   6.329  0.0394 -0.2008  0.0442
  937YOPE   PO413056   9.127  17.091   6.342  0.0411  0.1297 -0.2680
  937YOPE   GL113057   9.143  17.272   6.774 -0.5613 -0.1317  0.0492
  937YOPE   GL213058   8.882  17.249   6.976 -0.1527  0.2815 -0.1648
  937YOPE   C1A13059   9.378  17.133   7.146 -0.1391 -0.1449 -0.0169
  937YOPE   D2A13060   9.549  16.630   7.155 -0.1827 -0.1617  0.1622
  937YOPE   C3A13061   9.925  16.641   7.311  0.2707  0.1568  0.2072
  937YOPE   C4A13062  10.197  16.705   6.894  0.0090  0.1134  0.2827
  937YOPE   C1B13063   8.950  16.874   7.242  0.2196  0.0336  0.1367
  937YOPE   C2B13064   9.307  16.720   7.584 -0.0414  0.2794  0.0030
  937YOPE   D3B13065   9.625  16.875   7.788  0.3701  0.2299  0.4306
  937YOPE   C4B13066   9.730  17.191   8.007 -0.3329  0.2621 -0.0316
  938YOPE   NH313067  10.953   8.854   6.050 -0.0640  0.1718 -0.3522
  938YOPE   PO413068  10.870   9.176   6.065 -0.1793 -0.0629 -0.0935
  938YOPE   GL113069  10.703   9.021   6.544 -0.1131  0.3076 -0.0758
  938YOPE   GL213070  10.579   8.839   6.767 -0.4335 -0.1995 -0.1245
  938YOPE   C1A13071  10.966   9.180   6.829  0.0845  0.2731  0.1303
  938YOPE   D2A13072  10.977   9.454   7.151  0.2160 -0.3587 -0.1984
  938YOPE   C3A13073  10.873   9.373   7.609  0.0097  0.0312 -0.0235
  938YOPE   C4A13074  10.729   9.296   8.054 -0.2095 -0.2042 -0.0411
  938YOPE   C1B13075  10.720   8.944   7.231  0.1112  0.1376  0.0673
  938YOPE   C2B13076  10.599   8.938   7.655 -0.3114  0.0509 -0.0802
  938YOPE   D3B13077  10.556   8.816   8.092 -0.1140 -0.0205  0.1807
  938YOPE   C4B13078  10.498   8.674   8.522  0.0696  0.0237 -0.0721
  939YOPE   NH313079  15.476  13.517   6.420 -0.1685  0.2185 -0.0954
  939YOPE   PO413080  15.764  13.857   6.495  0.3448 -0.0021 -0.4258
  939YOPE   GL113081  15.836  13.647   6.773  0.1746  0.0857  0.2866
  939YOPE   GL213082  16.171  13.554   6.909 -0.2511 -0.1198  0.0435
  939YOPE   C1A13083  15.721  13.746   7.194 -0.0034  0.1405 -0.1072
  939YOPE   D2A13084  15.612  13.838   7.616  0.2070  0.1678  0.0447
  939YOPE   C3A13085  15.485  14.084   8.057 -0.0291  0.0671  0.1878
  939YOPE   C4A13086  15.733  14.198   8.429  0.4364  0.0138  0.0681
  939YOPE   C1B13087  16.149  13.552   7.408  0.0478  0.1885  0.0948
  939YOPE   C2B13088  15.980  13.435   7.753  0.1106 -0.3236 -0.0779
  939YOPE   D3B13089  16.000  13.355   8.181  0.0748 -0.4160  0.0526
  939YOPE   C4B13090  16.128  13.197   8.612 -0.0593 -0.4006  0.1870
  940YOPE   NH313091  16.281   6.858   6.084  0.0862 -0.0470  0.1068
  940YOPE   PO413092  16.089   7.359   6.126  0.4174  0.0611 -0.3120
  940YOPE   GL113093  16.213   7.172   6.476 -0.1106  0.0535 -0.0080
  940YOPE   GL213094  16.523   7.056   6.504 -0.1288  0.1334  0.1384
  940YOPE   C1A13095  16.258   7.291   6.902  0.1715 -0.1671 -0.1060
  940YOPE   D2A13096  16.316   7.250   7.336 -0.4158  0.0304  0.1658
  940YOPE   C3A13097  15.995   7.278   7.620  0.1481 -0.0472  0.0723
  940YOPE   C4A13098  15.559   7.341   7.704 -0.2617 -0.0447 -0.2245
  940YOPE   C1B13099  16.768   7.011   6.903 -0.2382 -0.0464  0.0537
  940YOPE   C2B13100  16.773   6.907   7.263  0.0785  0.1330  0.3376
  940YOPE   D3B13101  16.639   6.972   7.635  0.0205 -0.0309  0.0210
  940YOPE   C4B13102  16.354   6.957   7.959 -0.1675 -0.0376 -0.0414
  941YOPE   NH313103  11.143   8.146   6.364 -0.0734 -0.0952  0.3232
  941YOPE   PO413104  11.025   8.568   6.480 -0.1958 -0.1647 -0.2938
  941YOPE   GL113105  11.187   8.741   6.795  0.1311 -0.0635 -0.0488
  941YOPE   GL213106  11.468   8.958   6.753  0.0767  0.2224  0.0584
  941YOPE   C1A13107  11.189   8.933   7.183 -0.2509 -0.0973  0.1255
  941YOPE   D2A13108  11.213   8.986   7.592  0.0242  0.2418  0.0416
  941YOPE   C3A13109  11.064   8.904   7.999 -0.1496 -0.0147  0.4015
  941YOPE   C4A13110  11.035   8.894   8.481 -0.0929  0.0443 -0.3131
  941YOPE   C1B13111  11.454   9.301   7.010  0.1180 -0.0908 -0.3142
  941YOPE   C2B13112  11.406   9.393   7.471 -0.0475 -0.2065 -0.1886
  941YOPE   D3B13113  11.316   9.292   7.975  0.0077  0.0836  0.3440
  941YOPE   C4B13114  11.134   9.651   8.193 -0.1823 -0.0301  0.0302
  942POPC   NC313115   2.509  16.931   6.233 -0.2565  0.0192 -0.2560
  942POPC   PO413116   2.914  16.722   6.181  0.0496 -0.1073 -0.3570
  942POPC   GL113117   2.975  16.446   6.470  0.1119  0.0958  0.1574
  942POPC   GL213118   3.300  16.495   6.654 -0.2456  0.2849  0.2207
  942POPC   C1A13119   2.754  16.172   6.736  0.1456  0.0151  0.4471
  942POPC   D2A13120   2.340  16.135   6.941  0.1117  0.2105 -0.2456
  942POPC   C3A13121   2.266  15.798   6.891 -0.1608 -0.0058 -0.2821
  942POPC   C4A13122   2.404  15.446   7.029  0.1189  0.0001 -0.1520
  942POPC   C1B13123   3.283  16.262   7.019 -0.2777  0.4953  0.0402
  942POPC   C2B13124   3.520  16.394   7.401 -0.0393 -0.1621  0.0475
  942POPC   C3B13125   3.524  16.486   7.879 -0.2421  0.0557 -0.0266
  942POPC   C4B13126   3.631  16.722   8.209  0.1338 -0.2747  0.1388
  943POPC   NC313127  12.339  16.366   6.265  0.4078 -0.0899  0.2169
  943POPC   PO413128  11.862  16.528   6.222  0.2149 -0.1344  0.0567
  943POPC   GL113129  11.931  16.561   6.634 -0.1091  0.3361 -0.2076
  943POPC   GL213130  12.183  16.477   6.745 -0.1591  0.2946 -0.0169
  943POPC   C1A13131  11.785  16.524   7.140 -0.0531 -0.1339 -0.0179
  943POPC   D2A13132  11.754  16.565   7.652  0.0150  0.2403  0.1947
  943POPC   C3A13133  12.019  16.906   7.879  0.0646 -0.1273  0.1451
  943POPC   C4A13134  12.159  17.007   8.329  0.2249 -0.2349  0.1386
  943POPC   C1B13135  12.409  16.407   7.159 -0.2658 -0.0091  0.0890
  943POPC   C2B13136  12.680  16.617   7.407 -0.1444  0.2284  0.1666
  943POPC   C3B13137  12.996  16.820   7.656  0.0692  0.1593  0.4778
  943POPC   C4B13138  13.369  16.743   7.905 -0.3072  0.4453  0.1077
  944POPC   NC313139   8.715   1.945   6.357 -0.2980 -0.0213 -0.0785
  944POPC   PO413140   8.875   1.516   6.154  0.0148  0.0055  0.1040
  944POPC   GL113141   9.046   1.548   6.594 -0.0197  0.0944 -0.1395
  944POPC   GL213142   8.829   1.749   6.769 -0.1926 -0.2492 -0.0206
  944POPC   C1A13143   9.197   1.473   7.018  0.2673  0.0748  0.1550
  944POPC   D2A13144   9.288   1.698   7.402  0.2037  0.0744  0.0553
  944POPC   C3A13145   9.232   1.701   7.951  0.0660 -0.0826  0.1253
  944POPC   C4A13146   9.255   1.772   8.433 -0.1522 -0.1968  0.1871
  944POPC   C1B13147   8.839   1.761   7.205  0.1377  0.0892 -0.3226
  944POPC   C2B13148   8.779   1.731   7.668  0.1736  0.0053  0.2066
  944POPC   C3B13149   8.741   1.738   8.166 -0.0296 -0.1191 -0.0648
  944POPC   C4B13150   8.902   1.362   8.491  0.1126  0.1586 -0.2257
  945POPC   NC313151   1.504  10.758   5.863  0.2440 -0.2054 -0.1597
  945POPC   PO413152   1.242  10.390   5.705 -0.1919 -0.3318  0.2839
  945POPC   GL113153   1.104  10.429   6.015 -0.0441 -0.0368  0.2805
  945POPC   GL213154   1.039  10.736   6.090  0.0226 -0.4112  0.0014
  945POPC   C1A13155   1.273  10.433   6.425 -0.0962  0.1291 -0.2184
  945POPC   D2A13156   1.498  10.197   6.755 -0.0198  0.1654 -0.2959
  945POPC   C3A13157   1.800  10.489   7.071 -0.0180  0.3700  0.0122
  945POPC   C4A13158   2.171  10.390   7.284 -0.0217 -0.2742 -0.2998
  945POPC   C1B13159   1.083  10.875   6.531 -0.1527 -0.3396  0.1202
  945POPC   C2B13160   1.052  10.987   6.880 -0.0981  0.1316 -0.3678
  945POPC   C3B13161   1.102  11.095   7.258 -0.2146 -0.5046 -0.0825
  945POPC   C4B13162   1.097  11.198   7.656  0.1758 -0.0215  0.3511
  946POPC   NC313163  17.304  11.559   5.772 -0.3769 -0.1219  0.0136
  946POPC   PO413164  17.325  11.142   5.773  0.2065 -0.2630 -0.0294
  946POPC   GL113165  17.424  11.268   6.215  0.2886  0.1123  0.2211
  946POPC   GL213166  17.673  11.506   6.268  0.0299  0.0275  0.1794
  946POPC   C1A13167  17.058  11.163   6.555  0.1385  0.1765 -0.0563
  946POPC   D2A13168  16.813  10.807   6.686 -0.2573 -0.0506  0.0988
  946POPC   C3A13169  16.597  10.775   7.090  0.0410  0.3837 -0.1887
  946POPC   C4A13170  16.384  11.029   7.345  0.0622  0.2647 -0.0358
  946POPC   C1B13171  17.675  11.289   6.576  0.1558 -0.0588 -0.0643
  946POPC   C2B13172  17.806  11.174   6.942  0.0119  0.0954 -0.1617
  946POPC   C3B13173  17.772  11.261   7.397  0.0629  0.0389 -0.0778
  946POPC   C4B13174  17.653  11.219   7.856  0.2197 -0.2305 -0.0041
  947POPC   NC313175   0.021   1.106   5.378 -0.0250 -0.0310  0.0278
  947POPC   PO413176  -0.224   1.355   5.750 -0.2730 -0.4365 -0.0902
  947POPC   GL113177   0.026   1.250   6.134 -0.1583 -0.0378 -0.0573
  947POPC   GL213178   0.034   1.559   6.312 -0.0559  0.1671 -0.0947
  947POPC   C1A13179   0.040   1.051   6.618 -0.0247 -0.2409 -0.0659
  947POPC   D2A13180  -0.014   1.085   7.045  0.2575  0.0184 -0.1676
  947POPC   C3A13181   0.097   1.074   7.442 -0.1577  0.0452 -0.0897
  947POPC   C4A13182   0.032   1.086   7.838  0.1295 -0.1436  0.0574
  947POPC   C1B13183  -0.260   1.474   6.670  0.0317 -0.0135  0.0467
  947POPC   C2B13184  -0.461   1.420   7.105 -0.2490 -0.2232 -0.0694
  947POPC   C3B13185  -0.387   1.183   7.482 -0.4365  0.0758 -0.3377
  947POPC   C4B13186  -0.468   1.085   7.918 -0.1405 -0.3561 -0.0610
  948POPC   NC313187  10.310  17.464   6.044 -0.0432 -0.1297  0.1003
  948POPC   PO413188   9.955  17.407   6.299 -0.0469 -0.1559 -0.0039
  948POPC   GL113189   9.895  17.408   6.807 -0.3822  0.1251  0.1698
  948POPC   GL213190   9.540  17.639   6.815 -0.1681  0.3294 -0.1541
  948POPC   C1A13191   9.902  17.083   7.025  0.0310  0.0143  0.1283
  948POPC   D2A13192   9.873  17.106   7.445  0.2326 -0.3010 -0.2583
  948POPC   C3A13193  10.085  17.471   7.593 -0.1372 -0.3207 -0.1518
  948POPC   C4A13194  10.063  17.980   7.586  0.0590  0.4161 -0.0137
  948POPC   C1B13195   9.177  17.611   7.166 -0.1629 -0.1622  0.1466
  948POPC   C2B13196   9.120  17.840   7.632  0.0201  0.1148  0.1055
  948POPC   C3B13197   9.287  17.975   8.048  0.0242 -0.2216  0.0480
  948POPC   C4B13198   9.316  18.099   8.431  0.0415 -0.2418  0.2138
  949POPC   NC313199  13.957  14.062   5.803 -0.0689  0.0699 -0.0685
  949POPC   PO413200  13.886  14.292   6.254 -0.0318 -0.1496 -0.4320
  949POPC   GL113201  14.083  14.259   6.688 -0.3261 -0.1302  0.0484
  949POPC   GL213202  14.195  14.500   6.824 -0.0487  0.0226 -0.0508
  949POPC   C1A13203  13.856  14.320   7.141 -0.0512  0.1559  0.1882
  949POPC   D2A13204  14.051  14.303   7.544  0.0744 -0.0383  0.1610
  949POPC   C3A13205  14.225  14.687   7.673  0.1541  0.0166  0.0999
  949POPC   C4A13206  14.611  14.856   7.759 -0.0473 -0.2492  0.0366
  949POPC   C1B13207  14.440  14.512   7.185  0.1491  0.0599 -0.1111
  949POPC   C2B13208  14.618  14.429   7.578  0.2591  0.3839 -0.1764
  949POPC   C3B13209  14.498  14.355   8.025 -0.1189  0.1092  0.2713
  949POPC   C4B13210  14.571  14.545   8.449  0.0145 -0.0762  0.4563
  950POPC   NC313211  12.632  10.335   6.320  0.1082  0.2226 -0.0054
  950POPC   PO413212  12.758  10.699   6.515 -0.2103 -0.1321 -0.2018
  950POPC   GL113213  12.918  10.790   6.815  0.0848 -0.2043 -0.4733
  950POPC   GL213214  12.782  11.110   6.939 -0.0377 -0.0143 -0.0917
  950POPC   C1A13215  12.964  10.910   7.291 -0.3303  0.0184  0.0170
  950POPC   D2A13216  13.097  11.094   7.787 -0.3259 -0.0711  0.3521
  950POPC   C3A13217  13.388  10.959   8.169  0.0015 -0.0827  0.2874
  950POPC   C4A13218  13.626  11.026   8.475 -0.3494 -0.2592 -0.2353
  950POPC   C1B13219  12.378  11.080   7.013 -0.0463 -0.0183 -0.2530
  950POPC   C2B13220  12.124  10.779   7.162 -0.3294  0.0594  0.2633
  950POPC   C3B13221  12.173  10.654   7.651  0.2004 -0.0996 -0.1711
  950POPC   C4B13222  12.125  10.467   8.036 -0.0008 -0.1904  0.0767
  951POPC   NC313223  14.821   2.865   5.806 -0.0754  0.1483  0.1260
  951POPC   PO413224  14.772   2.386   5.881 -0.0517 -0.1227  0.0062
  951POPC   GL113225  14.467   2.655   6.110  0.1555  0.0841  0.0541
  951POPC   GL213226  14.508   2.555   6.324 -0.1933  0.0949  0.1951
  951POPC   C1A13227  14.033   2.770   6.321  0.3213  0.1606 -0.0155
  951POPC   D2A13228  13.831   2.541   6.669  0.2188  0.0581  0.2531
  951POPC   C3A13229  13.836   2.082   6.573 -0.3248 -0.0724  0.1865
  951POPC   C4A13230  14.085   1.586   6.634 -0.3807  0.3279 -0.0938
  951POPC   C1B13231  14.326   2.479   6.720 -0.2393 -0.0488  0.3453
  951POPC   C2B13232  14.334   2.588   7.193 -0.0458 -0.4906 -0.2551
  951POPC   C3B13233  14.175   2.686   7.603 -0.0152 -0.1264  0.2209
  951POPC   C4B13234  14.051   2.494   7.965  0.0522  0.2947 -0.0803
  952POPC   NC313235  17.730  15.816   5.800 -0.0461  0.1689 -0.0470
  952POPC   PO413236  17.601  15.850   6.203  0.3108  0.0175 -0.2426
  952POPC   GL113237  17.387  16.081   6.517 -0.1043  0.0022 -0.0477
  952POPC   GL213238  17.298  15.871   6.670  0.3999  0.0569 -0.0361
  952POPC   C1A13239  17.244  16.394   6.945 -0.0685 -0.1123  0.1983
  952POPC   D2A13240  17.278  16.384   7.469 -0.0802  0.2060  0.4479
  952POPC   C3A13241  17.298  16.222   7.825  0.2716 -0.4694 -0.0396
  952POPC   C4A13242  17.100  15.839   8.001 -0.1339  0.0304 -0.3270
  952POPC   C1B13243  17.492  15.942   7.039 -0.2610 -0.0843 -0.0523
  952POPC   C2B13244  17.718  16.135   7.397 -0.2290  0.1722 -0.1211
  952POPC   C3B13245  17.838  16.284   7.805 -0.0675 -0.0955 -0.0207
  952POPC   C4B13246  17.747  16.334   8.305 -0.2963  0.0433  0.0278
  953POPC   NC313247  10.935  10.174   6.287 -0.1664 -0.1712  0.1464
  953POPC   PO413248  10.526  10.318   6.393 -0.0925  0.1770 -0.1477
  953POPC   GL113249  10.798  10.518   6.615  0.1574 -0.4400  0.0554
  953POPC   GL213250  10.927  10.744   6.634  0.2280  0.3793  0.0306
  953POPC   C1A13251  10.836  10.337   7.010  0.1528 -0.0767  0.0010
  953POPC   D2A13252  10.816  10.373   7.501 -0.0956 -0.1022 -0.0903
  953POPC   C3A13253  11.136  10.386   7.835 -0.1200  0.3225 -0.2519
  953POPC   C4A13254  11.169  10.504   8.285  0.0669 -0.1176  0.1158
  953POPC   C1B13255  10.735  10.910   6.930 -0.1389 -0.4508  0.1722
  953POPC   C2B13256  10.602  10.940   7.354 -0.0868  0.0831 -0.1727
  953POPC   C3B13257  10.324  10.848   7.794  0.0093  0.2776 -0.2601
  953POPC   C4B13258  10.205  10.767   8.216 -0.1504  0.2139  0.1588
  954POPC   NC313259   9.328   1.310   6.257 -0.2502 -0.0888 -0.1665
  954POPC   PO413260   9.877   1.235   6.147 -0.1654 -0.2020  0.1913
  954POPC   GL113261   9.836   1.110   6.595  0.2172 -0.1064  0.2067
  954POPC   GL213262  10.088   1.085   6.861 -0.2753  0.0880 -0.0923
  954POPC   C1A13263   9.684   1.378   6.927 -0.2854  0.2532 -0.1471
  954POPC   D2A13264   9.844   1.633   7.193  0.4604  0.0839 -0.0234
  954POPC   C3A13265   9.649   2.096   7.412 -0.0237 -0.1325  0.4294
  954POPC   C4A13266   9.425   2.277   7.728  0.2732  0.1214  0.0398
  954POPC   C1B13267   9.923   1.115   7.261 -0.0761  0.0404 -0.0149
  954POPC   C2B13268   9.828   0.935   7.591  0.1585 -0.0222 -0.1686
  954POPC   C3B13269   9.760   1.061   7.980 -0.0777 -0.1763 -0.0096
  954POPC   C4B13270   9.470   1.339   8.238 -0.3463 -0.4096  0.1543
  955POPC   NC313271   3.663   9.855   5.515 -0.0312 -0.0251  0.0967
  955POPC   PO413272   4.110   9.681   5.512 -0.0655  0.1064 -0.1396
  955POPC   GL113273   4.270   9.323   5.713 -0.0944  0.1809 -0.2160
  955POPC   GL213274   4.052   9.063   5.756 -0.0196  0.1660  0.1084
  955POPC   C1A13275   4.614   9.175   5.981 -0.0028  0.0116 -0.1549
  955POPC   D2A13276   4.933   8.977   6.247 -0.0882  0.1673 -0.4619
  955POPC   C3A13277   5.053   9.004   6.721  0.3203 -0.0524  0.0196
  955POPC   C4A13278   5.022   8.873   7.128  0.0315  0.2719  0.1347
  955POPC   C1B13279   4.184   9.115   6.211 -0.2985  0.3225  0.1883
  955POPC   C2B13280   4.575   9.177   6.502 -0.2560 -0.0831  0.2861
  955POPC   C3B13281   4.624   9.209   6.961 -0.3905 -0.1289  0.3675
  955POPC   C4B13282   4.502   9.366   7.246  0.1389 -0.2532 -0.3218
  956POPC   NC313283  14.083  16.466   6.314  0.1943 -0.2042 -0.0423
  956POPC   PO413284  13.786  16.790   6.237  0.1584  0.4283  0.0963
  956POPC   GL113285  13.751  16.848   6.601 -0.0439 -0.2721 -0.0613
  956POPC   GL213286  13.471  17.017   6.579 -0.0896  0.0846  0.3737
  956POPC   C1A13287  13.928  16.779   7.014 -0.0046  0.1044  0.0915
  956POPC   D2A13288  14.145  16.860   7.409  0.0256 -0.1641  0.0721
  956POPC   C3A13289  14.509  16.518   7.419  0.0032 -0.2521 -0.0576
  956POPC   C4A13290  14.835  16.335   7.586 -0.0307 -0.2347 -0.4595
  956POPC   C1B13291  13.469  17.122   7.027  0.0217 -0.0709 -0.1354
  956POPC   C2B13292  13.559  16.823   7.357 -0.2234 -0.1307  0.1432
  956POPC   C3B13293  13.309  16.437   7.447  0.0512  0.2393 -0.0889
  956POPC   C4B13294  13.284  16.042   7.669  0.0867 -0.0163 -0.0763
  957POPC   NC313295   3.109   9.658   5.584 -0.2252 -0.0725 -0.0804
  957POPC   PO413296   3.202  10.090   5.715 -0.1595  0.1850  0.3035
  957POPC   GL113297   3.336   9.820   6.093 -0.0472  0.0268  0.1565
  957POPC   GL213298   3.481   9.584   5.955 -0.3568  0.3703  0.2116
  957POPC   C1A13299   3.295   9.783   6.470 -0.0645  0.0742 -0.0083
  957POPC   D2A13300   2.943   9.759   6.653 -0.1226 -0.1304 -0.1302
  957POPC   C3A13301   3.009   9.641   7.112 -0.0240  0.3408  0.0416
  957POPC   C4A13302   2.887   9.389   7.519  0.2445  0.4496  0.1100
  957POPC   C1B13303   3.748   9.400   6.330 -0.0024  0.0858 -0.3360
  957POPC   C2B13304   3.457   9.413   6.758  0.1710 -0.2442 -0.0161
  957POPC   C3B13305   3.487   9.613   7.092 -0.1516  0.0138  0.1006
  957POPC   C4B13306   3.278   9.807   7.486 -0.0251  0.3246  0.0113
  958POPC   NC313307   3.491  14.017   5.827  0.2792 -0.1694 -0.0238
  958POPC   PO413308   3.269  13.567   5.818 -0.0927  0.1738 -0.0558
  958POPC   GL113309   3.237  13.767   6.219  0.0669 -0.0455 -0.3261
  958POPC   GL213310   3.055  14.000   6.356  0.1807  0.1146 -0.1246
  958POPC   C1A13311   3.283  13.824   6.727  0.0785  0.0718  0.0986
  958POPC   D2A13312   3.408  14.122   6.984  0.0751 -0.2524  0.4655
  958POPC   C3A13313   3.254  14.247   7.383  0.1029  0.3279  0.0980
  958POPC   C4A13314   3.164  14.379   7.771  0.0956 -0.2939  0.1210
  958POPC   C1B13315   3.154  14.322   6.594  0.0476  0.1378  0.1959
  958POPC   C2B13316   3.323  14.623   6.806 -0.3557  0.0742 -0.1735
  958POPC   C3B13317   3.448  14.645   7.195 -0.1516 -0.1716  0.1523
  958POPC   C4B13318   3.612  14.590   7.586  0.2911  0.2603  0.1857
  959POPC   NC313319   3.066   5.733   5.643  0.2231 -0.0478  0.2551
  959POPC   PO413320   3.234   6.166   5.458  0.0816 -0.1055 -0.3879
  959POPC   GL113321   3.348   6.107   5.911 -0.1884  0.1766  0.0858
  959POPC   GL213322   3.154   6.336   6.035  0.1354  0.2613 -0.1635
  959POPC   C1A13323   3.415   6.019   6.341  0.3703  0.0593  0.1756
  959POPC   D2A13324   3.267   6.035   6.737  0.0937 -0.2475 -0.0496
  959POPC   C3A13325   3.400   5.781   7.036 -0.0209  0.1663 -0.1009
  959POPC   C4A13326   3.540   5.528   7.385  0.0154 -0.1314  0.0253
  959POPC   C1B13327   3.175   6.505   6.510  0.3666 -0.0591 -0.2241
  959POPC   C2B13328   3.261   6.537   6.889  0.1492  0.0460 -0.2095
  959POPC   C3B13329   3.415   6.807   7.358  0.1267 -0.0180 -0.0373
  959POPC   C4B13330   3.754   6.968   7.545  0.1351 -0.0612 -0.0303
  960POPC   NC313331   5.743  11.765   5.302  0.1021 -0.1626 -0.1615
  960POPC   PO413332   5.447  11.852   5.603  0.1760  0.0933 -0.0276
  960POPC   GL113333   5.416  11.778   5.990 -0.1270 -0.0729  0.2263
  960POPC   GL213334   5.671  11.752   6.138  0.2257  0.0296  0.0109
  960POPC   C1A13335   5.239  11.745   6.390  0.3064 -0.0454 -0.0839
  960POPC   D2A13336   5.357  11.782   6.846  0.1266  0.0653  0.2001
  960POPC   C3A13337   5.684  11.520   7.127 -0.1814  0.0698 -0.1455
  960POPC   C4A13338   5.661  11.172   7.425 -0.1283 -0.6564  0.1284
  960POPC   C1B13339   5.771  11.573   6.528  0.0315 -0.0535  0.1392
  960POPC   C2B13340   6.120  11.445   6.873  0.2068 -0.3855 -0.0955
  960POPC   C3B13341   6.129  11.410   7.306 -0.1757  0.1706  0.0261
  960POPC   C4B13342   6.079  11.259   7.729  0.0221  0.2389 -0.1506
  961POPC   NC313343   4.631   1.692   5.796  0.0063 -0.0732  0.2938
  961POPC   PO413344   4.375   1.986   5.721 -0.3087 -0.1781  0.0604
  961POPC   GL113345   4.364   1.938   6.197 -0.3653  0.1155 -0.2054
  961POPC   GL213346   4.748   1.822   6.296 -0.0170 -0.1014  0.0076
  961POPC   C1A13347   4.485   2.106   6.644  0.2120 -0.0585 -0.0417
  961POPC   D2A13348   4.423   2.066   7.072 -0.0641  0.2773  0.0176
  961POPC   C3A13349   4.678   1.984   7.293 -0.0550 -0.0363 -0.0382
  961POPC   C4A13350   4.796   1.777   7.701 -0.1265  0.0862 -0.1301
  961POPC   C1B13351   4.969   1.816   6.716  0.1693 -0.1901  0.1325
  961POPC   C2B13352   5.103   1.739   7.167 -0.1048  0.1128 -0.1431
  961POPC   C3B13353   5.203   1.944   7.523 -0.3159 -0.4414  0.0057
  961POPC   C4B13354   5.533   1.885   7.839  0.2512 -0.1409  0.2480
  962POPC   NC313355   2.259   7.034   5.515  0.1276  0.0329 -0.1096
  962POPC   PO413356   2.266   7.457   5.556 -0.0879 -0.3127  0.1983
  962POPC   GL113357   2.268   7.272   6.004  0.1588  0.2022 -0.1735
  962POPC   GL213358   2.322   6.984   6.077 -0.0847 -0.4680  0.4686
  962POPC   C1A13359   2.380   7.456   6.390  0.0042  0.6104 -0.1165
  962POPC   D2A13360   2.266   7.488   6.834  0.0541  0.1705 -0.1842
  962POPC   C3A13361   2.565   7.803   7.122 -0.1263 -0.2577 -0.3245
  962POPC   C4A13362   2.846   8.011   7.520  0.3947 -0.1976 -0.1068
  962POPC   C1B13363   2.724   7.050   6.185  0.0915 -0.0304  0.1286
  962POPC   C2B13364   2.961   6.912   6.527 -0.1894  0.0950  0.1707
  962POPC   C3B13365   2.805   6.786   6.936 -0.1365  0.3200  0.1482
  962POPC   C4B13366   2.982   6.626   7.349 -0.0915  0.0839 -0.0851
  963POPC   NC313367  13.433  14.189   6.372 -0.1618  0.0746 -0.1093
  963POPC   PO413368  13.303  14.635   6.336 -0.1796 -0.3621 -0.0637
  963POPC   GL113369  13.062  14.476   6.733 -0.0981 -0.0407  0.1178
  963POPC   GL213370  13.187  14.236   6.783 -0.2707 -0.1056 -0.3143
  963POPC   C1A13371  12.810  14.287   7.100 -0.0490 -0.1118 -0.0795
  963POPC   D2A13372  12.705  14.393   7.560 -0.2417  0.1613 -0.2110
  963POPC   C3A13373  12.860  14.371   8.037  0.1141 -0.4613  0.1713
  963POPC   C4A13374  13.014  14.554   8.378 -0.2079  0.0438 -0.2451
  963POPC   C1B13375  13.260  14.021   7.222 -0.1754  0.0887  0.2003
  963POPC   C2B13376  13.468  13.991   7.489  0.1680  0.0757 -0.0530
  963POPC   C3B13377  13.652  14.410   7.824 -0.0557  0.0333  0.0896
  963POPC   C4B13378  13.492  14.595   8.264 -0.0602  0.0420  0.1797
  964POPC   NC313379   3.987  16.745   5.602  0.0674 -0.1935  0.0333
  964POPC   PO413380   4.102  16.606   6.098  0.1766 -0.1924  0.3698
  964POPC   GL113381   4.087  16.696   6.498  0.0819 -0.1733  0.1023
  964POPC   GL213382   3.832  16.460   6.515 -0.1826  0.0565  0.0967
  964POPC   C1A13383   4.242  16.817   6.793  0.0261  0.0416  0.1806
  964POPC   D2A13384   4.493  16.679   7.199 -0.0564 -0.0991 -0.1849
  964POPC   C3A13385   4.342  16.795   7.538 -0.1945  0.1935  0.2260
  964POPC   C4A13386   4.300  16.837   8.029 -0.0550  0.0640  0.2382
  964POPC   C1B13387   3.736  16.617   6.967  0.0087  0.0270  0.1478
  964POPC   C2B13388   3.975  16.812   7.210  0.3511  0.1319  0.3179
  964POPC   C3B13389   4.016  17.218   7.372 -0.1608 -0.0001  0.0806
  964POPC   C4B13390   4.278  17.319   7.733  0.3973  0.0835  0.0635
  965POPC   NC313391  11.459  12.864   5.964  0.2224 -0.2181  0.1285
  965POPC   PO413392  11.288  12.607   6.275  0.1619 -0.1672 -0.6571
  965POPC   GL113393  11.171  12.588   6.734  0.1071 -0.3492 -0.1188
  965POPC   GL213394  10.867  12.331   6.786 -0.3361 -0.0342 -0.0241
  965POPC   C1A13395  10.888  12.781   7.020 -0.1544 -0.1824  0.2069
  965POPC   D2A13396  11.095  12.786   7.403  0.1520  0.0673 -0.0628
  965POPC   C3A13397  10.945  12.796   7.802 -0.1987 -0.3837  0.0525
  965POPC   C4A13398  10.944  12.726   8.281  0.2855  0.2772  0.3648
  965POPC   C1B13399  10.946  12.344   7.211 -0.0425  0.0629  0.0243
  965POPC   C2B13400  10.981  12.236   7.621 -0.1408  0.1373 -0.0567
  965POPC   C3B13401  11.122  12.143   8.041  0.0049  0.1007  0.2056
  965POPC   C4B13402  11.066  12.294   8.393 -0.2381 -0.0064  0.1288
  966POPC   NC313403  16.875  14.411   6.366  0.0323 -0.0256 -0.0089
  966POPC   PO413404  17.378  14.298   6.360 -0.0105  0.4198 -0.1852
  966POPC   GL113405  17.386  14.378   6.774  0.2320  0.2028  0.1737
  966POPC   GL213406  17.099  14.451   6.846 -0.1613  0.2859  0.1255
  966POPC   C1A13407  17.673  14.393   7.168  0.2651  0.1610 -0.0784
  966POPC   D2A13408  17.688  14.579   7.538  0.2781 -0.1467  0.1814
  966POPC   C3A13409  17.645  14.390   7.905 -0.0125 -0.0266 -0.1291
  966POPC   C4A13410  17.551  14.230   8.310  0.1215  0.0488  0.2148
  966POPC   C1B13411  17.038  14.417   7.304 -0.2156  0.1430 -0.3499
  966POPC   C2B13412  17.139  14.441   7.661  0.0140 -0.1716 -0.0747
  966POPC   C3B13413  17.141  14.335   8.027 -0.0524  0.1531  0.0011
  966POPC   C4B13414  17.002  14.302   8.422  0.0895 -0.2512  0.3080
  967POPC   NC313415  11.195   0.416   6.266  0.2099  0.1100  0.0817
  967POPC   PO413416  10.926   0.687   6.322 -0.0901 -0.0772  0.1235
  967POPC   GL113417  11.143   0.727   6.726 -0.0353 -0.0568 -0.1121
  967POPC   GL213418  11.396   0.626   6.712  0.0045  0.0199  0.2765
  967POPC   C1A13419  11.153   0.992   6.987  0.0539 -0.1652  0.0108
  967POPC   D2A13420  11.273   1.147   7.383  0.0099  0.2619  0.1338
  967POPC   C3A13421  11.241   1.626   7.573  0.1183  0.0133  0.0666
  967POPC   C4A13422  11.126   2.030   7.808 -0.1877 -0.1054  0.0563
  967POPC   C1B13423  11.392   0.581   7.172  0.1097  0.3417  0.0108
  967POPC   C2B13424  11.249   0.614   7.525  0.2049 -0.1243  0.0037
  967POPC   C3B13425  11.299   0.488   7.890 -0.2632 -0.2312 -0.0165
  967POPC   C4B13426  11.039   0.478   8.207 -0.0149  0.2262 -0.1153
  968POPC   NC313427   4.025   1.591   5.915 -0.2273  0.2005  0.2222
  968POPC   PO413428   4.365   1.294   5.843 -0.1440  0.0299 -0.1531
  968POPC   GL113429   4.432   1.456   6.204  0.0990  0.1283  0.3478
  968POPC   GL213430   4.767   1.317   6.323 -0.1985  0.0800 -0.0947
  968POPC   C1A13431   4.426   1.597   6.592  0.0121  0.3463  0.0512
  968POPC   D2A13432   4.274   1.514   7.023 -0.2221  0.1297  0.0435
  968POPC   C3A13433   4.483   1.517   7.363  0.0791  0.0341  0.0213
  968POPC   C4A13434   4.350   1.255   7.720 -0.0052 -0.0827  0.3160
  968POPC   C1B13435   4.725   1.222   6.775  0.0042  0.0616  0.1891
  968POPC   C2B13436   4.483   1.079   7.199  0.0126 -0.0058 -0.0655
  968POPC   C3B13437   4.682   0.799   7.497 -0.1108 -0.2287  0.3307
  968POPC   C4B13438   4.551   0.337   7.683 -0.2209 -0.1210 -0.1072
  969POPC   NC313439   5.801  12.111   5.800 -0.1197  0.3786 -0.0553
  969POPC   PO413440   6.195  12.042   5.828 -0.0127 -0.0389  0.0272
  969POPC   GL113441   6.136  12.165   6.213  0.1717 -0.0321  0.2492
  969POPC   GL213442   6.289  12.470   6.280  0.1131  0.0988  0.1767
  969POPC   C1A13443   5.879  12.113   6.513 -0.1957  0.1800  0.1746
  969POPC   D2A13444   5.845  11.898   6.852 -0.0438  0.1926 -0.1881
  969POPC   C3A13445   5.611  12.058   7.228 -0.0212  0.3823 -0.0575
  969POPC   C4A13446   5.722  12.230   7.611 -0.1848 -0.3709 -0.0095
  969POPC   C1B13447   6.600  12.375   6.444 -0.0525 -0.2827  0.1479
  969POPC   C2B13448   6.975  12.195   6.365 -0.3382  0.0749 -0.1505
  969POPC   C3B13449   7.370  12.049   6.236  0.0044 -0.0703  0.0863
  969POPC   C4B13450   7.524  11.660   6.359  0.1844 -0.2473  0.1355
  970POPC   NC313451   4.672  16.103   6.125  0.0342 -0.0733 -0.1298
  970POPC   PO413452   4.822  16.550   6.073  0.0463  0.0135  0.1871
  970POPC   GL113453   4.996  16.825   6.439 -0.1907 -0.2361  0.2920
  970POPC   GL213454   4.862  16.712   6.599  0.0005  0.1753  0.2126
  970POPC   C1A13455   5.139  17.250   6.683 -0.1227 -0.2108  0.0566
  970POPC   D2A13456   5.363  17.409   7.029 -0.0153 -0.2036 -0.0378
  970POPC   C3A13457   5.141  17.208   7.474 -0.0735  0.0161  0.5035
  970POPC   C4A13458   4.825  16.936   7.612 -0.1741 -0.3536  0.1665
  970POPC   C1B13459   4.877  16.408   6.932  0.1068  0.1596  0.0231
  970POPC   C2B13460   4.751  16.242   7.367 -0.2981 -0.1073  0.2843
  970POPC   C3B13461   4.489  16.366   7.755 -0.1552  0.0004 -0.1577
  970POPC   C4B13462   4.383  16.354   8.206  0.2643  0.5131 -0.3710
  971POPC   NC313463  15.969   1.644   6.020 -0.1075  0.1687  0.0089
  971POPC   PO413464  16.047   1.253   6.070  0.0006 -0.1786 -0.1248
  971POPC   GL113465  15.907   1.360   6.439  0.1560 -0.0671  0.0573
  971POPC   GL213466  15.902   1.176   6.820  0.1867  0.0957 -0.1267
  971POPC   C1A13467  15.999   1.644   6.687 -0.3339 -0.1402  0.1920
  971POPC   D2A13468  16.110   2.021   6.693 -0.2775 -0.1870  0.1410
  971POPC   C3A13469  16.085   2.258   7.023  0.0234 -0.0640  0.0840
  971POPC   C4A13470  15.980   2.569   7.305  0.5056  0.0531 -0.1100
  971POPC   C1B13471  16.405   1.328   6.694  0.1480  0.0884 -0.3703
  971POPC   C2B13472  16.724   1.361   7.051  0.0540  0.0901 -0.0918
  971POPC   C3B13473  17.032   1.220   7.241  0.1374 -0.1862  0.1765
  971POPC   C4B13474  17.150   1.309   7.561  0.0749 -0.1147  0.0507
  972POPC   NC313475   3.958  14.693   5.595 -0.0529 -0.3220 -0.0618
  972POPC   PO413476   3.902  14.368   5.846 -0.3119 -0.4265 -0.0679
  972POPC   GL113477   3.654  14.619   6.107 -0.2203  0.1767 -0.0856
  972POPC   GL213478   3.366  14.360   6.176 -0.1398  0.2433 -0.2051
  972POPC   C1A13479   3.467  14.808   6.348  0.0997 -0.0497 -0.2663
  972POPC   D2A13480   3.241  15.113   6.637 -0.0342  0.0961 -0.1791
  972POPC   C3A13481   3.112  14.999   7.121  0.1218  0.1293 -0.1032
  972POPC   C4A13482   3.114  14.871   7.502 -0.1077  0.1446 -0.0023
  972POPC   C1B13483   3.683  14.344   6.571 -0.1498 -0.1586  0.0813
  972POPC   C2B13484   3.916  14.206   6.862 -0.1256 -0.0474 -0.0677
  972POPC   C3B13485   3.941  14.417   7.275 -0.2168  0.0336 -0.3439
  972POPC   C4B13486   4.021  14.838   7.481 -0.0726 -0.0778 -0.1031
  973POPC   NC313487   6.092   2.453   6.052 -0.0109  0.0724 -0.2509
  973POPC   PO413488   5.833   2.777   5.903  0.1791 -0.0017  0.0152
  973POPC   GL113489   5.705   2.760   6.354 -0.0193  0.2230  0.0024
  973POPC   GL213490   5.534   3.035   6.491 -0.1284 -0.0772  0.0643
  973POPC   C1A13491   6.011   2.733   6.653  0.0865  0.1566  0.0138
  973POPC   D2A13492   5.919   2.595   7.084 -0.1179 -0.0206  0.0821
  973POPC   C3A13493   6.273   2.478   7.403 -0.0511  0.2298  0.0615
  973POPC   C4A13494   6.360   2.085   7.391 -0.0283  0.3896  0.0737
  973POPC   C1B13495   5.364   3.241   6.781  0.1742 -0.0162  0.0564
  973POPC   C2B13496   5.418   3.186   7.243  0.0234  0.0731  0.3273
  973POPC   C3B13497   5.560   3.241   7.616 -0.1459  0.1080  0.1917
  973POPC   C4B13498   5.515   2.966   8.010  0.1437  0.0076 -0.0595
  974POPC   NC313499  12.063  13.786   6.101  0.1889 -0.0942 -0.0487
  974POPC   PO413500  12.255  13.769   6.563 -0.3104 -0.1257  0.0907
  974POPC   GL113501  12.286  13.960   6.960 -0.0068 -0.0006 -0.1696
  974POPC   GL213502  12.476  13.722   7.075  0.3126 -0.2068  0.0957
  974POPC   C1A13503  12.368  14.255   7.277 -0.1596  0.1845  0.2873
  974POPC   D2A13504  12.142  14.296   7.625  0.0890 -0.4387 -0.1425
  974POPC   C3A13505  12.007  14.163   7.949  0.2066 -0.0271  0.1322
  974POPC   C4A13506  11.655  13.842   8.143 -0.3140  0.0706 -0.0213
  974POPC   C1B13507  12.785  13.865   7.425 -0.0934  0.0429 -0.1319
  974POPC   C2B13508  13.032  13.992   7.720 -0.0578  0.1630  0.0232
  974POPC   C3B13509  13.332  14.046   7.952  0.2449 -0.0230 -0.1763
  974POPC   C4B13510  13.579  14.057   8.321 -0.0648  0.0389  0.2883
  975POPC   NC313511   9.914   4.753   6.327 -0.3909 -0.2430 -0.0261
  975POPC   PO413512  10.452   4.779   6.345 -0.2191 -0.0704  0.0633
  975POPC   GL113513  10.549   5.115   6.760 -0.0752  0.0692 -0.1040
  975POPC   GL213514  10.307   5.047   6.950  0.3740 -0.0558 -0.0591
  975POPC   C1A13515  10.744   5.363   7.083 -0.1829  0.0856 -0.1013
  975POPC   D2A13516  10.781   5.225   7.459 -0.1632 -0.2491  0.0741
  975POPC   C3A13517  10.851   4.779   7.614  0.2405 -0.0093  0.1433
  975POPC   C4A13518  10.768   4.563   7.993 -0.2562 -0.0321  0.0607
  975POPC   C1B13519  10.301   5.114   7.308 -0.0164 -0.0242 -0.3167
  975POPC   C2B13520  10.426   4.979   7.692  0.2410 -0.0692 -0.1439
  975POPC   C3B13521  10.631   5.131   8.069 -0.2412 -0.0292  0.0701
  975POPC   C4B13522  10.945   5.347   8.033  0.3923  0.0848  0.3519
  976POPC   NC313523   6.699   1.182   5.823  0.1249 -0.1540  0.0588
  976POPC   PO413524   6.313   1.164   5.956 -0.0039  0.1185  0.1941
  976POPC   GL113525   6.197   1.237   6.329 -0.0409  0.2146 -0.0098
  976POPC   GL213526   6.052   0.961   6.433  0.1003 -0.2078  0.2037
  976POPC   C1A13527   6.255   1.354   6.754  0.1175 -0.1779  0.5149
  976POPC   D2A13528   6.279   1.369   7.117 -0.0023  0.3437  0.0155
  976POPC   C3A13529   5.987   1.452   7.378 -0.0588  0.0852 -0.1846
  976POPC   C4A13530   5.901   1.738   7.527  0.1052  0.1711  0.1276
  976POPC   C1B13531   5.635   0.889   6.488  0.0412 -0.0310  0.2792
  976POPC   C2B13532   5.383   1.016   6.809 -0.0995  0.1390 -0.0483
  976POPC   C3B13533   5.081   1.240   7.103  0.2274  0.3684  0.1236
  976POPC   C4B13534   4.910   1.358   7.488 -0.2346  0.1499 -0.1075
  977POPC   NC313535   1.908   2.719   5.752  0.3081 -0.0797  0.2172
  977POPC   PO413536   2.270   2.429   5.849  0.0846  0.2736  0.0246
  977POPC   GL113537   2.535   2.226   6.148  0.0440 -0.0548 -0.0638
  977POPC   GL213538   2.648   1.937   6.128  0.2279 -0.2398 -0.0585
  977POPC   C1A13539   2.535   2.082   6.612  0.1790 -0.1829 -0.2910
  977POPC   D2A13540   2.604   2.131   7.095 -0.1356  0.1355  0.3445
  977POPC   C3A13541   2.588   1.817   7.376  0.0561 -0.1951  0.0692
  977POPC   C4A13542   2.640   1.439   7.630 -0.2016  0.2721 -0.1277
  977POPC   C1B13543   2.442   1.603   6.374 -0.1952 -0.1571  0.1909
  977POPC   C2B13544   2.302   1.455   6.682  0.1651  0.2888  0.5759
  977POPC   C3B13545   1.907   1.160   6.875  0.2577 -0.1256 -0.0265
  977POPC   C4B13546   1.479   1.107   7.156  0.4236  0.3095  0.0009
  978POPC   NC313547   1.482   5.886   5.776  0.1251  0.1346  0.2741
  978POPC   PO413548   1.899   5.770   5.656 -0.4332  0.1179 -0.1061
  978POPC   GL113549   1.808   5.828   6.111  0.0599  0.1141 -0.2566
  978POPC   GL213550   1.589   6.075   6.191 -0.0540 -0.1849 -0.0459
  978POPC   C1A13551   1.897   5.568   6.328 -0.2267 -0.4390  0.0410
  978POPC   D2A13552   2.133   5.363   6.553 -0.0454  0.1909  0.0632
  978POPC   C3A13553   2.442   5.219   6.868  0.1178 -0.1831  0.0810
  978POPC   C4A13554   2.663   5.243   7.305 -0.0578  0.2696  0.0282
  978POPC   C1B13555   1.715   5.941   6.562 -0.2304 -0.2091  0.0343
  978POPC   C2B13556   1.799   5.650   6.899 -0.1539 -0.1875 -0.0718
  978POPC   C3B13557   2.210   5.487   7.159  0.0585  0.2461  0.1484
  978POPC   C4B13558   2.360   5.648   7.560  0.0164  0.2336  0.0929
  979POPC   NC313559  10.787   4.741   5.868 -0.1231 -0.3330 -0.1623
  979POPC   PO413560  10.929   4.514   6.234 -0.0097  0.1034 -0.0039
  979POPC   GL113561  10.872   4.654   6.738  0.0011  0.1209 -0.0728
  979POPC   GL213562  11.023   4.965   6.835 -0.3824  0.1985  0.1962
  979POPC   C1A13563  10.637   4.734   7.154 -0.3892 -0.4121  0.0929
  979POPC   D2A13564  10.494   4.399   7.352 -0.1128  0.1249 -0.0815
  979POPC   C3A13565  10.325   4.514   7.757  0.1703 -0.2064  0.0500
  979POPC   C4A13566  10.259   4.765   8.138 -0.2638 -0.1381  0.0340
  979POPC   C1B13567  11.179   4.864   7.267  0.2071  0.1937 -0.0795
  979POPC   C2B13568  11.265   5.066   7.659 -0.0936  0.1377  0.1842
  979POPC   C3B13569  11.226   4.850   8.034 -0.0270  0.1432  0.4063
  979POPC   C4B13570  11.025   4.968   8.400 -0.1584 -0.1706  0.1277
  980POPC   NC313571  13.868   8.408   6.132 -0.2676 -0.0953  0.1509
  980POPC   PO413572  13.560   8.735   6.308 -0.0624  0.2140 -0.2033
  980POPC   GL113573  13.415   8.780   6.679 -0.0395 -0.0425 -0.2368
  980POPC   GL213574  13.611   8.767   7.006  0.3001 -0.0659  0.0527
  980POPC   C1A13575  13.131   8.648   7.047 -0.0882 -0.2301  0.2046
  980POPC   D2A13576  13.171   8.597   7.488 -0.0823  0.0225  0.1691
  980POPC   C3A13577  13.444   8.445   7.815 -0.1387 -0.3383  0.2432
  980POPC   C4A13578  13.722   8.355   8.228 -0.2533  0.3174  0.1063
  980POPC   C1B13579  13.647   8.621   7.369  0.0653 -0.1335  0.1196
  980POPC   C2B13580  13.870   8.707   7.775 -0.2262 -0.0432 -0.3568
  980POPC   C3B13581  14.073   8.898   8.168  0.2444  0.1629  0.0157
  980POPC   C4B13582  14.246   9.279   8.382 -0.2192  0.1375 -0.2939
  981POPC   NC313583  16.688   8.799   6.040 -0.0842 -0.2634  0.0707
  981POPC   PO413584  17.004   8.690   6.283 -0.0139 -0.0362 -0.0371
  981POPC   GL113585  17.307   8.858   6.579  0.4832 -0.2923 -0.0742
  981POPC   GL213586  17.549   9.005   6.549 -0.1309 -0.0449  0.0139
  981POPC   C1A13587  17.259   9.115   6.927 -0.1338 -0.0065 -0.1138
  981POPC   D2A13588  17.064   8.903   7.312 -0.1889  0.3620 -0.1061
  981POPC   C3A13589  17.274   8.651   7.548  0.1144  0.3007 -0.0262
  981POPC   C4A13590  17.154   8.234   7.817  0.4517  0.2618 -0.4288
  981POPC   C1B13591  17.763   9.304   6.843 -0.1985  0.1498  0.3638
  981POPC   C2B13592  17.708   9.402   7.207  0.2348  0.3321 -0.3106
  981POPC   C3B13593  17.961   9.595   7.609  0.0541 -0.1505 -0.0014
  981POPC   C4B13594  17.916   9.842   7.989  0.0864 -0.0595 -0.0308
  982YOPC   NC313595   4.309   9.250   5.200  0.0257 -0.0501  0.5304
  982YOPC   PO413596   4.633   9.463   5.414  0.1891 -0.3018 -0.2027
  982YOPC   GL113597   4.556   9.686   5.867 -0.4545 -0.1324 -0.1078
  982YOPC   GL213598   4.401   9.996   5.964  0.0287 -0.2319 -0.0355
  982YOPC   C1A13599   4.491   9.627   6.245 -0.3243  0.0402  0.3266
  982YOPC   D2A13600   4.202   9.592   6.521 -0.0640  0.0897  0.0697
  982YOPC   C3A13601   3.993   9.215   6.684 -0.0779 -0.1338 -0.1081
  982YOPC   C4A13602   4.014   8.755   6.764 -0.1122 -0.1324 -0.0846
  982YOPC   C1B13603   4.358  10.109   6.431 -0.1337  0.0484 -0.1479
  982YOPC   C2B13604   4.243  10.236   6.871  0.0053 -0.1134  0.1513
  982YOPC   D3B13605   3.988  10.542   7.014  0.0383 -0.1113 -0.1380
  982YOPC   C4B13606   3.973  10.446   7.487 -0.0983  0.0879 -0.0338
  983YOPC   NC313607   5.257  13.847   5.820  0.0745  0.0283  0.1185
  983YOPC   PO413608   5.658  13.670   6.016 -0.2231 -0.0942  0.1242
  983YOPC   GL113609   5.322  13.649   6.378  0.2675 -0.2274  0.1783
  983YOPC   GL213610   5.258  13.387   6.509 -0.1226 -0.1378  0.2537
  983YOPC   C1A13611   5.173  13.883   6.712 -0.1226 -0.0493  0.2493
  983YOPC   D2A13612   5.161  14.041   7.031  0.0189 -0.2031  0.3354
  983YOPC   C3A13613   5.162  13.860   7.470 -0.2767 -0.1026  0.0341
  983YOPC   C4A13614   5.185  14.062   7.854  0.3407 -0.0147  0.0717
  983YOPC   C1B13615   5.660  13.115   6.628 -0.1449 -0.0287  0.1341
  983YOPC   C2B13616   5.895  13.030   6.968 -0.1112  0.1115 -0.0761
  983YOPC   D3B13617   6.117  12.915   7.420 -0.2768  0.1744  0.0255
  983YOPC   C4B13618   6.172  12.950   7.875 -0.1256 -0.0133 -0.0755
  984YOPC   NC313619   1.843   9.723   5.669  0.2341  0.0302  0.1158
  984YOPC   PO413620   1.959   9.280   5.704  0.0517  0.1132 -0.0934
  984YOPC   GL113621   1.965   9.114   6.132  0.0003 -0.1006 -0.3299
  984YOPC   GL213622   1.597   9.081   6.231  0.3003 -0.1870  0.1113
  984YOPC   C1A13623   2.029   8.681   6.271  0.0500  0.1204 -0.3431
  984YOPC   D2A13624   2.296   8.453   6.533  0.0600 -0.3188 -0.0717
  984YOPC   C3A13625   2.517   8.263   6.848  0.1254  0.0403  0.1900
  984YOPC   C4A13626   2.888   8.165   7.015  0.0996 -0.0485  0.0615
  984YOPC   C1B13627   1.737   8.917   6.574  0.0850  0.1526  0.4097
  984YOPC   C2B13628   2.035   8.766   6.826  0.2994  0.0250  0.2019
  984YOPC   D3B13629   2.074   8.425   7.107 -0.0521  0.3117  0.2631
  984YOPC   C4B13630   2.317   8.162   7.299 -0.0605  0.0700  0.2552
  985YOPC   NC313631  14.471  10.481   6.002  0.0303  0.0316  0.1997
  985YOPC   PO413632  14.405  10.276   6.310 -0.1139 -0.1639  0.0154
  985YOPC   GL113633  14.350  10.054   6.616  0.0892  0.4774  0.0186
  985YOPC   GL213634  14.615   9.871   6.807 -0.1460 -0.2824  0.0977
  985YOPC   C1A13635  14.153  10.100   6.992  0.2214 -0.0164 -0.2194
  985YOPC   D2A13636  14.231  10.122   7.472 -0.3522 -0.1153 -0.2107
  985YOPC   C3A13637  13.957  10.100   7.833  0.2924 -0.0542  0.1608
  985YOPC   C4A13638  13.644  10.254   7.919 -0.0852 -0.1986 -0.3053
  985YOPC   C1B13639  14.924  10.153   6.750 -0.3075  0.4511  0.0034
  985YOPC   C2B13640  15.046  10.582   6.859  0.1121 -0.0778  0.2764
  985YOPC   D3B13641  15.018  10.860   7.225 -0.0270 -0.4338 -0.1751
  985YOPC   C4B13642  15.082  10.797   7.588 -0.2018 -0.3079  0.0846
  986YOPC   NC313643  12.809   5.521   5.748 -0.0690 -0.1671 -0.1692
  986YOPC   PO413644  13.190   5.715   5.976 -0.0920 -0.2810  0.2707
  986YOPC   GL113645  13.068   5.632   6.442 -0.0647 -0.0772  0.0959
  986YOPC   GL213646  13.036   5.839   6.642 -0.2666 -0.0427  0.0148
  986YOPC   C1A13647  12.962   5.397   6.783 -0.2899  0.1159 -0.1422
  986YOPC   D2A13648  12.664   5.273   7.007  0.1422 -0.1482 -0.0698
  986YOPC   C3A13649  12.685   5.170   7.453 -0.0039 -0.0808  0.2889
  986YOPC   C4A13650  12.783   5.073   7.843 -0.2740 -0.0525 -0.0762
  986YOPC   C1B13651  12.947   5.828   7.043  0.0458 -0.0458  0.1420
  986YOPC   C2B13652  13.021   5.578   7.309 -0.2539 -0.0594 -0.3929
  986YOPC   D3B13653  12.795   5.621   7.632  0.1742 -0.1315 -0.0700
  986YOPC   C4B13654  12.785   5.506   8.112 -0.3950 -0.1857  0.0540
  987YOPC   NC313655   7.997  16.502   6.208 -0.0797  0.0288  0.1791
  987YOPC   PO413656   8.518  16.354   6.361 -0.0048  0.4071 -0.0318
  987YOPC   GL113657   8.578  16.459   6.741  0.2156 -0.0505 -0.1292
  987YOPC   GL213658   8.915  16.352   6.829 -0.1580  0.1825  0.1949
  987YOPC   C1A13659   8.430  16.811   7.005 -0.1768 -0.0325  0.2190
  987YOPC   D2A13660   8.319  17.213   7.241  0.1404  0.0718  0.3441
  987YOPC   C3A13661   8.378  17.282   7.558 -0.3055 -0.3586  0.3399
  987YOPC   C4A13662   8.352  17.492   7.846  0.2036 -0.1266 -0.0719
  987YOPC   C1B13663   9.063  16.454   7.067 -0.4322 -0.2166  0.3143
  987YOPC   C2B13664   8.893  16.375   7.532 -0.1686  0.0470 -0.2038
  987YOPC   D3B13665   8.799  16.529   7.913 -0.1006 -0.3812 -0.2110
  987YOPC   C4B13666   8.895  16.642   8.392 -0.0716  0.0291  0.1383
  988YOPC   NC313667  11.797   9.278   6.313 -0.1357  0.0973  0.0471
  988YOPC   PO413668  12.187   9.548   6.357 -0.3063  0.0290  0.1316
  988YOPC   GL113669  12.134   9.368   6.756  0.1656 -0.0772 -0.0158
  988YOPC   GL213670  11.824   9.459   6.814 -0.1780  0.0549  0.0897
  988YOPC   C1A13671  12.290   9.207   7.092  0.0686  0.0515 -0.2727
  988YOPC   D2A13672  12.174   9.162   7.480  0.1246  0.2020  0.0306
  988YOPC   C3A13673  12.264   8.908   7.820 -0.1973 -0.2770  0.0163
  988YOPC   C4A13674  12.524   8.633   7.963  0.1388 -0.0943 -0.0730
  988YOPC   C1B13675  11.864   9.442   7.207 -0.2882 -0.1050  0.0253
  988YOPC   C2B13676  11.808   9.816   7.405 -0.2403 -0.0924  0.0763
  988YOPC   D3B13677  11.862   9.570   7.799 -0.1407  0.0661  0.0913
  988YOPC   C4B13678  11.659   9.563   8.215 -0.0893  0.0936  0.3182
  989YOPC   NC313679  10.544   3.413   6.484  0.0454 -0.1303 -0.1369
  989YOPC   PO413680  10.755   3.012   6.399  0.1403  0.2407  0.0143
  989YOPC   GL113681  10.801   3.065   6.828  0.0570 -0.3411 -0.1289
  989YOPC   GL213682  10.729   3.299   6.909 -0.1199 -0.0398 -0.2047
  989YOPC   C1A13683  10.876   2.815   7.180 -0.3587 -0.0484 -0.3242
  989YOPC   D2A13684  11.147   2.596   7.568 -0.1599 -0.5000  0.0547
  989YOPC   C3A13685  11.238   2.804   7.973 -0.0678  0.1678  0.0167
  989YOPC   C4A13686  11.517   3.191   8.269  0.1771 -0.1633  0.0416
  989YOPC   C1B13687  10.674   3.286   7.349 -0.2385 -0.2941  0.1915
  989YOPC   C2B13688  10.810   2.927   7.647  0.0826 -0.0488  0.0520
  989YOPC   D3B13689  10.680   2.860   8.063 -0.0747  0.2815 -0.6745
  989YOPC   C4B13690  10.713   3.124   8.436 -0.1860 -0.0530  0.0757
  990YOPC   NC313691   9.587  14.935   6.347  0.0303  0.1850  0.0144
  990YOPC   PO413692   9.991  15.048   6.566  0.1912 -0.0411  0.4649
  990YOPC   GL113693   9.639  15.149   6.783 -0.4360  0.1202  0.1391
  990YOPC   GL213694   9.509  15.482   6.936 -0.2311  0.0899  0.3173
  990YOPC   C1A13695   9.507  14.890   7.118 -0.1882 -0.2293 -0.0270
  990YOPC   D2A13696   9.383  14.657   7.519  0.3050 -0.0759 -0.0887
  990YOPC   C3A13697   9.478  14.238   7.729 -0.0108  0.0348 -0.0876
  990YOPC   C4A13698   9.576  13.835   7.908 -0.1498  0.0356  0.2468
  990YOPC   C1B13699   9.559  15.373   7.253  0.3474  0.0095  0.0090
  990YOPC   C2B13700   9.705  15.457   7.653 -0.1551 -0.0007 -0.0119
  990YOPC   D3B13701   9.875  15.459   8.171 -0.1438 -0.4062  0.0225
  990YOPC   C4B13702  10.034  15.266   8.437 -0.2698  0.1408 -0.0668
  991YOPC   NC313703  13.506   3.592   6.045  0.0701 -0.1395  0.1032
  991YOPC   PO413704  13.920   3.489   6.012 -0.1530 -0.1955  0.0604
  991YOPC   GL113705  13.828   3.613   6.457  0.0549 -0.2496  0.1964
  991YOPC   GL213706  13.812   4.000   6.477 -0.0125 -0.1992  0.0688
  991YOPC   C1A13707  14.073   3.641   6.796 -0.1850 -0.1100  0.1512
  991YOPC   D2A13708  13.924   3.911   7.135  0.0710 -0.0244 -0.1345
  991YOPC   C3A13709  14.019   4.076   7.632 -0.0701  0.1259  0.0054
  991YOPC   C4A13710  14.171   4.074   8.007 -0.2840 -0.2696 -0.2407
  991YOPC   C1B13711  14.087   4.291   6.794  0.1609 -0.1370 -0.0017
  991YOPC   C2B13712  14.520   4.531   6.910 -0.1217 -0.1203 -0.0745
  991YOPC   D3B13713  14.645   4.736   7.379 -0.4540  0.2584 -0.0627
  991YOPC   C4B13714  14.879   4.542   7.718 -0.0140  0.0938 -0.1084
  992YOPC   NC313715  16.594   5.917   5.884  0.1217 -0.1016 -0.0908
  992YOPC   PO413716  16.174   5.987   5.987 -0.0790  0.1267 -0.2715
  992YOPC   GL113717  16.381   5.743   6.359  0.0456 -0.3100  0.1465
  992YOPC   GL213718  16.488   5.573   6.461 -0.2983 -0.0414  0.3743
  992YOPC   C1A13719  16.647   6.029   6.792 -0.2867  0.2591 -0.3613
  992YOPC   D2A13720  16.761   5.983   7.200 -0.0830 -0.0876  0.1970
  992YOPC   C3A13721  16.490   5.815   7.626 -0.3636  0.1304 -0.2337
  992YOPC   C4A13722  16.453   5.568   7.988 -0.0527 -0.0355 -0.3970
  992YOPC   C1B13723  16.353   5.468   6.829  0.0353 -0.1471  0.0164
  992YOPC   C2B13724  16.123   5.374   7.169 -0.1508 -0.0725 -0.0277
  992YOPC   D3B13725  16.202   5.217   7.561 -0.0168  0.2494 -0.0313
  992YOPC   C4B13726  16.474   5.093   7.870 -0.1804  0.0629  0.0804
  993YOPC   NC313727  14.109   7.229   6.426  0.1111 -0.2460 -0.0502
  993YOPC   PO413728  14.473   7.105   6.525 -0.0268  0.1245  0.0472
  993YOPC   GL113729  14.569   7.230   6.898 -0.1668 -0.0249 -0.0688
  993YOPC   GL213730  14.289   7.477   6.936 -0.1603 -0.0579  0.2399
  993YOPC   C1A13731  14.491   7.225   7.354  0.1423  0.0161 -0.0826
  993YOPC   D2A13732  14.474   7.277   7.761 -0.1216  0.0663  0.1679
  993YOPC   C3A13733  14.828   7.108   8.039  0.0805 -0.0365 -0.0741
  993YOPC   C4A13734  15.268   7.070   8.030  0.4057  0.0075 -0.3364
  993YOPC   C1B13735  13.935   7.512   7.141 -0.3974  0.0407 -0.0973
  993YOPC   C2B13736  13.579   7.748   7.003  0.0984 -0.0170  0.2357
  993YOPC   D3B13737  13.172   7.764   7.217 -0.0569  0.1089 -0.0207
  993YOPC   C4B13738  13.108   7.640   7.687 -0.3281 -0.1329 -0.1023
  994YOPC   NC313739   7.534  13.406   6.168 -0.3249 -0.0252  0.3003
  994YOPC   PO413740   7.133  13.218   5.984  0.3423 -0.0067 -0.1374
  994YOPC   GL113741   6.989  13.252   6.497  0.0360  0.0929 -0.2908
  994YOPC   GL213742   7.156  13.571   6.525  0.1596  0.3472 -0.1712
  994YOPC   C1A13743   6.866  13.185   6.899  0.4852 -0.0376  0.1395
  994YOPC   D2A13744   6.926  13.213   7.327 -0.0581  0.1267  0.1796
  994YOPC   C3A13745   6.818  13.612   7.511  0.0746 -0.1650 -0.1030
  994YOPC   C4A13746   6.837  13.967   7.545 -0.2292  0.0720 -0.1087
  994YOPC   C1B13747   7.122  13.622   7.026 -0.2204 -0.0198 -0.1628
  994YOPC   C2B13748   7.286  13.783   7.554 -0.1700 -0.0160 -0.3793
  994YOPC   D3B13749   7.186  14.136   7.865  0.1930 -0.3175 -0.1641
  994YOPC   C4B13750   6.995  14.430   8.152 -0.1546  0.0728  0.0400
  995YOPC   NC313751   2.444  14.279   5.841 -0.2446  0.0277 -0.0917
  995YOPC   PO413752   2.016  14.268   5.837 -0.1063 -0.0333  0.0683
  995YOPC   GL113753   1.955  14.093   6.241 -0.1311  0.0811  0.0112
  995YOPC   GL213754   1.735  14.366   6.311 -0.1511 -0.0691  0.3610
  995YOPC   C1A13755   2.044  13.949   6.660 -0.0862  0.2688 -0.0221
  995YOPC   D2A13756   2.212  13.842   7.008 -0.2501  0.0207 -0.0087
  995YOPC   C3A13757   2.028  13.997   7.462  0.1285 -0.1238 -0.0607
  995YOPC   C4A13758   1.671  14.258   7.630  0.0284 -0.1303 -0.1283
  995YOPC   C1B13759   1.961  14.513   6.664 -0.1626  0.3947 -0.2331
  995YOPC   C2B13760   1.856  14.395   7.068  0.2334 -0.2493 -0.0003
  995YOPC   D3B13761   2.102  14.538   7.407 -0.1108  0.1098 -0.1410
  995YOPC   C4B13762   1.970  14.806   7.863  0.0055  0.2303 -0.0798
  996YOPC   NC313763   7.378   7.850   5.424  0.2111 -0.0635  0.0413
  996YOPC   PO413764   7.200   7.656   5.662 -0.0647 -0.1525 -0.0394
  996YOPC   GL113765   7.189   7.935   5.978 -0.0797 -0.0851 -0.0709
  996YOPC   GL213766   7.244   7.708   6.156 -0.1487 -0.0141 -0.2284
  996YOPC   C1A13767   7.234   8.106   6.444  0.1032 -0.0385 -0.0399
  996YOPC   D2A13768   7.326   8.114   6.865  0.1245 -0.0153 -0.1195
  996YOPC   C3A13769   7.039   8.189   7.115 -0.1520 -0.1690  0.2004
  996YOPC   C4A13770   6.747   8.218   7.320 -0.1281  0.1984 -0.0008
  996YOPC   C1B13771   7.345   7.582   6.543 -0.1193 -0.0352 -0.1148
  996YOPC   C2B13772   7.291   7.674   7.057  0.1003  0.1338 -0.0464
  996YOPC   D3B13773   7.119   7.267   7.180 -0.0998  0.0936 -0.0667
  996YOPC   C4B13774   6.737   6.997   7.280 -0.0379  0.1012 -0.0001
  997YOPC   NC313775   4.072  17.194   6.206 -0.0221 -0.0700 -0.1496
  997YOPC   PO413776   3.971  17.631   6.100  0.1671 -0.0803  0.0090
  997YOPC   GL113777   3.807  17.831   6.467  0.0798 -0.0990 -0.0372
  997YOPC   GL213778   3.601  18.123   6.468  0.1753  0.0532  0.0052
  997YOPC   C1A13779   3.897  17.972   6.950 -0.1014 -0.2421 -0.0623
  997YOPC   D2A13780   3.941  18.028   7.409 -0.0882  0.0889 -0.0357
  997YOPC   C3A13781   3.882  17.608   7.646 -0.0626 -0.3706 -0.0882
  997YOPC   C4A13782   3.614  17.314   7.664 -0.3363 -0.2118 -0.1027
  997YOPC   C1B13783   3.587  18.425   6.685  0.1261 -0.0623  0.1049
  997YOPC   C2B13784   3.929  18.478   7.030  0.0358  0.3424 -0.0762
  997YOPC   D3B13785   4.132  18.899   6.942 -0.0902  0.1157 -0.2958
  997YOPC   C4B13786   4.313  19.034   6.587  0.3363  0.2475 -0.1439
  998YOPC   NC313787   0.743   1.349   5.583 -0.0818  0.3320  0.2255
  998YOPC   PO413788   0.979   1.344   6.036  0.1487  0.2234 -0.2587
  998YOPC   GL113789   0.915   1.545   6.460 -0.3053  0.2618 -0.0665
  998YOPC   GL213790   0.752   1.354   6.748 -0.2552 -0.0690 -0.3049
  998YOPC   C1A13791   0.942   2.012   6.707  0.0548 -0.2671  0.1897
  998YOPC   D2A13792   0.849   2.341   7.024 -0.2264  0.0081  0.0225
  998YOPC   C3A13793   1.059   2.350   7.526 -0.1061 -0.1502 -0.2056
  998YOPC   C4A13794   1.410   2.476   7.742 -0.0848 -0.1423 -0.1311
  998YOPC   C1B13795   0.763   1.660   7.004  0.0435  0.0361 -0.0791
  998YOPC   C2B13796   0.879   1.930   7.292 -0.2529  0.1044 -0.0837
  998YOPC   D3B13797   0.799   1.737   7.688 -0.0029  0.0760 -0.2337
  998YOPC   C4B13798   0.533   1.862   8.096 -0.2554  0.1537  0.3769
  999YOPC   NC313799  11.102  15.378   6.326  0.1235  0.0256 -0.1117
  999YOPC   PO413800  11.141  14.845   6.295  0.1269 -0.5928  0.5468
  999YOPC   GL113801  11.369  14.926   6.674  0.0929 -0.0457 -0.4198
  999YOPC   GL213802  11.675  14.855   6.687 -0.0151 -0.1671 -0.2455
  999YOPC   C1A13803  11.285  14.843   7.020  0.0991 -0.1927  0.0743
  999YOPC   D2A13804  11.167  14.705   7.441  0.0440 -0.0349  0.1311
  999YOPC   C3A13805  10.785  14.777   7.678 -0.1088  0.1994  0.1157
  999YOPC   C4A13806  10.336  14.751   7.444  0.0027 -0.1032 -0.1211
  999YOPC   C1B13807  11.785  14.929   7.084 -0.0761 -0.1444 -0.1115
  999YOPC   C2B13808  11.634  14.980   7.372 -0.2339  0.0190 -0.4168
  999YOPC   D3B13809  11.709  15.260   7.702  0.0199  0.3773 -0.3504
  999YOPC   C4B13810  11.440  15.463   7.908 -0.0324 -0.0339  0.0357
 1000YOPC   NC313811   1.512   2.170   5.579  0.0448 -0.0508 -0.2293
 1000YOPC   PO413812   1.099   2.208   5.664  0.0025 -0.2995 -0.0655
 1000YOPC   GL113813   1.283   2.335   5.999  0.0292 -0.1384  0.0762
 1000YOPC   GL213814   1.078   2.345   6.297  0.0232  0.0447  0.0085
 1000YOPC   C1A13815   1.501   2.614   6.383  0.2085 -0.0439 -0.1017
 1000YOPC   D2A13816   1.679   2.712   6.710  0.0023 -0.0528  0.3441
 1000YOPC   C3A13817   1.974   3.036   6.721  0.2056  0.1344  0.0333
 1000YOPC   C4A13818   2.085   3.343   7.023 -0.0645  0.2186  0.0062
 1000YOPC   C1B13819   1.284   2.353   6.709  0.0136 -0.0796  0.1146
 1000YOPC   C2B13820   1.387   2.483   7.116  0.0031  0.1242  0.0128
 1000YOPC   D3B13821   1.850   2.486   7.199  0.0559  0.1046  0.1196
 1000YOPC   C4B13822   2.203   2.493   6.878 -0.3979  0.1953 -0.1535
 1001YOPC   NC313823  11.024   7.998   5.906  0.0155 -0.0654  0.1789
 1001YOPC   PO413824  11.092   7.655   6.171  0.1714 -0.4487  0.0162
 1001YOPC   GL113825  10.943   7.741   6.574 -0.0670  0.0530  0.0800
 1001YOPC   GL213826  11.152   7.569   6.821  0.5989 -0.0644 -0.0188
 1001YOPC   C1A13827  10.645   7.921   6.796 -0.1323 -0.3505 -0.1649
 1001YOPC   D2A13828  10.239   7.940   7.007  0.3229  0.2995  0.0261
 1001YOPC   C3A13829  10.223   7.936   7.565 -0.1132  0.0466  0.2266
 1001YOPC   C4A13830  10.260   7.648   7.892  0.1748  0.1953 -0.0004
 1001YOPC   C1B13831  10.896   7.621   7.117 -0.0675  0.0674 -0.1005
 1001YOPC   C2B13832  10.663   7.969   7.287  0.1605 -0.4040 -0.1149
 1001YOPC   D3B13833  10.713   7.986   7.742  0.0257  0.0498  0.1168
 1001YOPC   C4B13834  10.656   7.888   8.179 -0.2801  0.0418  0.1427
 1002YOPC   NC313835   8.117  13.973   6.028 -0.1822 -0.1095  0.0797
 1002YOPC   PO413836   7.927  13.754   6.316  0.1163 -0.2977  0.4118
 1002YOPC   GL113837   7.694  13.727   6.731 -0.1731  0.1065  0.0310
 1002YOPC   GL213838   7.596  13.383   6.666 -0.2160  0.0433  0.0467
 1002YOPC   C1A13839   7.566  13.674   7.142 -0.3168 -0.1815  0.1628
 1002YOPC   D2A13840   7.806  13.576   7.554  0.1400 -0.2255 -0.1560
 1002YOPC   C3A13841   7.739  13.640   7.995 -0.2183  0.2292  0.0657
 1002YOPC   C4A13842   7.396  13.793   8.197  0.2623  0.3181 -0.1179
 1002YOPC   C1B13843   7.314  13.056   6.877 -0.0426  0.1833 -0.0728
 1002YOPC   C2B13844   7.148  12.764   7.168  0.0519 -0.0232 -0.0471
 1002YOPC   D3B13845   7.376  12.807   7.556  0.3492  0.1527 -0.0536
 1002YOPC   C4B13846   7.384  12.732   8.014 -0.1643 -0.0681 -0.1527
 1003YOPC   NC313847  10.568   4.226   6.467 -0.0965  0.2870 -0.0001
 1003YOPC   PO413848  10.470   3.868   6.256  0.2314  0.1444 -0.0299
 1003YOPC   GL113849  10.357   3.802   6.756 -0.0638  0.1843  0.0934
 1003YOPC   GL213850  10.261   4.093   6.937 -0.2891  0.1498 -0.0700
 1003YOPC   C1A13851  10.615   3.794   7.175  0.0789  0.1171  0.2146
 1003YOPC   D2A13852  10.639   3.713   7.552  0.3997  0.1914  0.1996
 1003YOPC   C3A13853  10.625   4.089   7.797  0.1129  0.0642 -0.0511
 1003YOPC   C4A13854  10.768   4.014   8.215  0.0362  0.0334  0.0310
 1003YOPC   C1B13855  10.131   3.867   7.318  0.1371 -0.0187 -0.1215
 1003YOPC   C2B13856  10.187   3.856   7.829  0.1204 -0.0496  0.0352
 1003YOPC   D3B13857  10.194   4.195   8.169 -0.1923 -0.0958  0.2383
 1003YOPC   C4B13858   9.985   4.239   8.500  0.1733 -0.0060 -0.2075
 1004YOPC   NC313859   6.519   4.658   5.769 -0.0997  0.1488  0.0373
 1004YOPC   PO413860   6.302   4.246   5.878 -0.2325  0.1351  0.0586
 1004YOPC   GL113861   6.101   4.253   6.275  0.3405  0.0728 -0.1853
 1004YOPC   GL213862   6.236   4.028   6.338  0.0543  0.2493  0.1322
 1004YOPC   C1A13863   5.945   4.446   6.594  0.0688 -0.0657 -0.0111
 1004YOPC   D2A13864   5.645   4.468   6.858 -0.2189 -0.2876 -0.3382
 1004YOPC   C3A13865   5.385   4.535   7.138  0.3222  0.2789 -0.1302
 1004YOPC   C4A13866   5.115   4.602   7.393 -0.1590  0.2186 -0.4154
 1004YOPC   C1B13867   6.072   4.005   6.718 -0.0286 -0.1784 -0.0791
 1004YOPC   C2B13868   5.916   4.124   7.097  0.3502  0.2399 -0.1305
 1004YOPC   D3B13869   5.924   4.096   7.596  0.0847  0.1418 -0.1513
 1004YOPC   C4B13870   6.116   3.964   7.980  0.3380  0.2529  0.2206
 1005YOPC   NC313871   2.067   3.684   5.789 -0.1577  0.2293 -0.1488
 1005YOPC   PO413872   2.272   4.005   6.041  0.0762 -0.1163 -0.2549
 1005YOPC   GL113873   2.084   4.270   6.309 -0.2352  0.0689  0.0235
 1005YOPC   GL213874   1.670   4.339   6.275 -0.0142  0.2000 -0.2711
 1005YOPC   C1A13875   1.965   4.461   6.732  0.1486  0.1551  0.1173
 1005YOPC   D2A13876   1.513   4.704   6.919 -0.2190  0.0021  0.0588
 1005YOPC   C3A13877   1.256   4.846   6.564 -0.0991  0.1809 -0.0454
 1005YOPC   C4A13878   1.018   5.087   6.377  0.0013  0.1380  0.1425
 1005YOPC   C1B13879   1.504   4.280   6.660  0.0922  0.0292  0.0251
 1005YOPC   C2B13880   1.600   4.150   7.013 -0.2707 -0.0027  0.0549
 1005YOPC   D3B13881   1.790   4.495   7.297  0.0801 -0.1027 -0.1031
 1005YOPC   C4B13882   2.046   4.590   7.589 -0.0348 -0.0510  0.2322
 1006YOPC   NC313883   4.090  13.297   5.636 -0.0882 -0.3812 -0.0500
 1006YOPC   PO413884   3.840  12.958   5.682 -0.2335 -0.0731  0.0103
 1006YOPC   GL113885   3.856  13.003   5.990 -0.3458 -0.2068  0.1372
 1006YOPC   GL213886   3.569  13.011   6.190  0.0300 -0.0430 -0.1070
 1006YOPC   C1A13887   4.013  13.280   6.388 -0.0013 -0.2178 -0.4338
 1006YOPC   D2A13888   4.104  13.195   6.824  0.3283 -0.5688 -0.3365
 1006YOPC   C3A13889   4.368  13.269   7.074 -0.1083  0.0647 -0.1876
 1006YOPC   C4A13890   4.454  13.165   7.440 -0.0338 -0.3058  0.0220
 1006YOPC   C1B13891   3.599  12.991   6.575  0.1271 -0.0142 -0.1005
 1006YOPC   C2B13892   3.552  13.057   7.014  0.3206 -0.2025 -0.0257
 1006YOPC   D3B13893   3.465  13.010   7.429  0.3853 -0.3081  0.1191
 1006YOPC   C4B13894   3.578  13.367   7.734  0.2548 -0.0071 -0.0599
 1007YOPC   NC313895  15.728   8.182   6.029 -0.2662  0.1274  0.3728
 1007YOPC   PO413896  15.403   8.114   6.242 -0.1161  0.0586  0.1690
 1007YOPC   GL113897  15.535   7.876   6.532  0.0213 -0.0842 -0.0797
 1007YOPC   GL213898  15.282   7.536   6.560  0.0906 -0.1850  0.0540
 1007YOPC   C1A13899  15.735   7.892   6.819 -0.0917  0.1792 -0.1044
 1007YOPC   D2A13900  16.139   7.806   6.913  0.4369 -0.1769 -0.1174
 1007YOPC   C3A13901  16.364   7.805   7.278  0.0243  0.2862 -0.2724
 1007YOPC   C4A13902  16.286   7.646   7.719  0.0207  0.1385  0.3701
 1007YOPC   C1B13903  15.177   7.300   6.893 -0.0971 -0.2247 -0.1364
 1007YOPC   C2B13904  15.266   7.294   7.325 -0.0471 -0.1830 -0.1251
 1007YOPC   D3B13905  15.040   7.408   7.704 -0.1621 -0.2202  0.1391
 1007YOPC   C4B13906  15.179   7.719   8.096  0.0201  0.2194  0.1044
 1008YOPC   NC313907  15.299  10.530   6.058  0.1031 -0.0646  0.1759
 1008YOPC   PO413908  15.351  10.137   6.288 -0.3355 -0.3864 -0.2107
 1008YOPC   GL113909  15.339   9.872   6.648  0.0495  0.0307 -0.0534
 1008YOPC   GL213910  15.629   9.788   6.633  0.0834  0.0143 -0.1439
 1008YOPC   C1A13911  15.351  10.047   7.087  0.0466  0.3628 -0.1619
 1008YOPC   D2A13912  15.125   9.937   7.487  0.0083  0.1962 -0.3282
 1008YOPC   C3A13913  15.320   9.546   7.670 -0.3200  0.1584 -0.1165
 1008YOPC   C4A13914  15.205   9.174   7.955  0.0952  0.1514  0.3392
 1008YOPC   C1B13915  15.456   9.385   6.751  0.0064 -0.2063  0.2464
 1008YOPC   C2B13916  15.219   9.032   6.680 -0.0732  0.2349  0.0628
 1008YOPC   D3B13917  15.400   8.651   6.671 -0.2030 -0.0442 -0.0938
 1008YOPC   C4B13918  15.692   8.411   6.887  0.0655 -0.0380  0.2921
 1009YOPC   NC313919   2.632   2.534   5.555 -0.0500  0.2066  0.3990
 1009YOPC   PO413920   2.969   2.244   5.518 -0.1032  0.4471  0.1412
 1009YOPC   GL113921   3.037   2.249   5.933 -0.0916 -0.3669  0.0162
 1009YOPC   GL213922   3.177   2.581   5.985  0.0581 -0.2770 -0.1401
 1009YOPC   C1A13923   2.956   2.346   6.338  0.0010 -0.1790 -0.1609
 1009YOPC   D2A13924   3.006   2.319   6.753 -0.1904  0.3544  0.1402
 1009YOPC   C3A13925   3.082   2.478   7.149 -0.0825  0.3447 -0.2112
 1009YOPC   C4A13926   3.216   2.895   7.403 -0.0270  0.0441 -0.0349
 1009YOPC   C1B13927   3.211   2.887   6.350  0.0278 -0.0299  0.3515
 1009YOPC   C2B13928   3.069   2.885   6.791 -0.1588  0.1882  0.0983
 1009YOPC   D3B13929   2.904   3.150   7.056 -0.3104  0.4220 -0.4657
 1009YOPC   C4B13930   2.679   3.321   7.443 -0.0030  0.4259  0.0255
 1010YOPC   NC313931  11.786   6.889   6.375 -0.1111  0.0679  0.1679
 1010YOPC   PO413932  11.914   7.261   6.633  0.1290 -0.1113  0.2645
 1010YOPC   GL113933  12.194   7.311   6.927  0.1250  0.0284 -0.0933
 1010YOPC   GL213934  12.296   6.985   6.762 -0.1016 -0.1593 -0.2189
 1010YOPC   C1A13935  12.255   7.218   7.293  0.2461 -0.2357 -0.0489
 1010YOPC   D2A13936  12.109   7.077   7.661 -0.2923  0.1092 -0.2117
 1010YOPC   C3A13937  12.313   7.064   7.947 -0.0773 -0.1000 -0.0987
 1010YOPC   C4A13938  12.414   7.015   8.325 -0.1279  0.0131 -0.2661
 1010YOPC   C1B13939  12.110   6.744   7.152 -0.0329 -0.0459 -0.0559
 1010YOPC   C2B13940  12.152   6.493   7.504 -0.1899  0.1815  0.1351
 1010YOPC   D3B13941  12.011   6.615   7.882  0.1884 -0.0335  0.0372
 1010YOPC   C4B13942  11.812   6.492   8.238 -0.1982  0.0440  0.0364
 1011YOPC   NC313943  10.372   1.197   6.012  0.1347 -0.0251 -0.0426
 1011YOPC   PO413944  10.639   1.628   6.245 -0.2372 -0.1109 -0.0741
 1011YOPC   GL113945  10.761   1.627   6.689 -0.0059  0.0646  0.0313
 1011YOPC   GL213946  10.951   1.422   6.725  0.0805 -0.4905 -0.2478
 1011YOPC   C1A13947  10.654   1.774   7.096  0.2785  0.1956 -0.2021
 1011YOPC   D2A13948  10.799   1.830   7.412  0.1974  0.0909  0.0289
 1011YOPC   C3A13949  10.719   1.679   7.839  0.0943 -0.0032  0.4124
 1011YOPC   C4A13950  10.642   1.544   8.281  0.1126  0.0778 -0.3553
 1011YOPC   C1B13951  11.213   1.523   7.084  0.0071  0.5123  0.1535
 1011YOPC   C2B13952  11.617   1.731   7.199 -0.3913 -0.1361  0.0484
 1011YOPC   D3B13953  11.841   2.141   7.139 -0.0183 -0.1307 -0.1275
 1011YOPC   C4B13954  12.027   2.470   7.054  0.1628  0.4105 -0.2251
 1012YOPC   NC313955   8.604  14.401   6.322  0.1996 -0.0558  0.0714
 1012YOPC   PO413956   8.971  14.627   6.448 -0.2935  0.1661  0.3315
 1012YOPC   GL113957   9.271  14.618   6.747  0.0419 -0.1908 -0.0466
 1012YOPC   GL213958   9.520  14.514   6.714  0.1695  0.0260 -0.0103
 1012YOPC   C1A13959   9.134  14.461   7.161 -0.1383 -0.1792 -0.0415
 1012YOPC   D2A13960   8.938  14.395   7.544  0.2261 -0.0663 -0.1758
 1012YOPC   C3A13961   8.944  14.671   7.903  0.1085  0.0225 -0.1620
 1012YOPC   C4A13962   8.952  15.000   8.151 -0.2206  0.2288 -0.4245
 1012YOPC   C1B13963   9.644  14.317   7.144  0.2673 -0.0013 -0.1181
 1012YOPC   C2B13964   9.896  14.494   7.505 -0.1480 -0.1571 -0.1346
 1012YOPC   D3B13965   9.999  14.440   7.834 -0.3289 -0.1789  0.3944
 1012YOPC   C4B13966  10.352  14.644   7.951  0.0887  0.1219 -0.0187
 1013YOPC   NC313967  12.246   2.930   5.842  0.2335 -0.2582  0.1278
 1013YOPC   PO413968  12.342   3.335   6.116 -0.1056 -0.1612  0.0214
 1013YOPC   GL113969  12.339   3.430   6.516 -0.2359 -0.1353 -0.2961
 1013YOPC   GL213970  12.055   3.301   6.591  0.2173  0.0112  0.0882
 1013YOPC   C1A13971  12.331   3.629   6.884  0.2334  0.0719 -0.1460
 1013YOPC   D2A13972  12.031   3.831   7.174 -0.0664  0.1280  0.1964
 1013YOPC   C3A13973  11.788   4.137   6.962  0.0308 -0.0865 -0.0441
 1013YOPC   C4A13974  11.405   4.451   6.969 -0.0020 -0.0216  0.0081
 1013YOPC   C1B13975  12.128   3.317   7.137 -0.2241 -0.0288  0.1994
 1013YOPC   C2B13976  12.448   3.414   7.280  0.1088 -0.0722  0.0729
 1013YOPC   D3B13977  12.634   3.377   7.667  0.0742 -0.1903  0.0510
 1013YOPC   C4B13978  12.950   3.313   7.939 -0.2442 -0.0758  0.0127
 1014YOPC   NC313979   5.994   8.667   5.611 -0.0551  0.0255 -0.0355
 1014YOPC   PO413980   5.868   8.326   5.796  0.1253  0.0493 -0.1143
 1014YOPC   GL113981   6.028   8.097   6.136  0.0480 -0.1025  0.0231
 1014YOPC   GL213982   6.219   8.292   6.346 -0.1079  0.1324 -0.1284
 1014YOPC   C1A13983   5.914   7.866   6.555  0.0112  0.2282  0.4021
 1014YOPC   D2A13984   5.750   7.746   6.973 -0.1042 -0.0934  0.0115
 1014YOPC   C3A13985   5.852   7.383   7.166 -0.2366  0.0269  0.1160
 1014YOPC   C4A13986   5.990   7.049   7.531 -0.1210  0.1790 -0.2481
 1014YOPC   C1B13987   6.359   8.583   6.574 -0.1268 -0.0183 -0.1187
 1014YOPC   C2B13988   6.085   8.853   6.856 -0.0487  0.0164 -0.1565
 1014YOPC   D3B13989   5.864   8.693   7.199  0.3906  0.0655  0.0265
 1014YOPC   C4B13990   5.540   8.733   7.510  0.1078 -0.0721  0.2175
 1015YOPC   NC313991   5.150   1.983   5.991 -0.0783 -0.2332 -0.0359
 1015YOPC   PO413992   5.153   1.599   6.008  0.0002 -0.2380 -0.1175
 1015YOPC   GL113993   5.527   1.632   6.216  0.0714 -0.4684 -0.0867
 1015YOPC   GL213994   5.749   1.336   6.173 -0.3682  0.2994  0.0990
 1015YOPC   C1A13995   5.572   1.852   6.629  0.0939 -0.0793  0.3395
 1015YOPC   D2A13996   5.485   2.038   6.992 -0.0914 -0.0937  0.0628
 1015YOPC   C3A13997   5.579   2.250   7.217 -0.0316  0.1705 -0.0725
 1015YOPC   C4A13998   5.775   2.263   7.578 -0.1912  0.0123  0.1165
 1015YOPC   C1B13999   5.737   1.374   6.594 -0.1375  0.1974  0.0318
 1015YOPC   C2B14000   5.881   1.038   6.900  0.0081 -0.2714 -0.2343
 1015YOPC   D3B14001   5.558   1.087   7.267 -0.0990  0.0253  0.1464
 1015YOPC   C4B14002   5.415   1.459   7.526 -0.0896  0.0066  0.1578
 1016YOPC   NC314003   2.567  12.382   5.731 -0.1423 -0.2874  0.1047
 1016YOPC   PO414004   2.139  12.375   5.889 -0.0935  0.0533  0.1993
 1016YOPC   GL114005   1.992  12.524   6.242  0.1024 -0.1350 -0.0681
 1016YOPC   GL214006   1.785  12.449   6.448 -0.2910  0.1522 -0.2709
 1016YOPC   C1A14007   2.289  12.825   6.476  0.1189  0.1140 -0.1755
 1016YOPC   D2A14008   2.257  13.286   6.705  0.0037  0.0376  0.1409
 1016YOPC   C3A14009   1.876  13.457   6.499  0.3499 -0.0029 -0.0163
 1016YOPC   C4A14010   1.610  13.767   6.306  0.1639 -0.0783 -0.0395
 1016YOPC   C1B14011   1.710  12.368   6.808 -0.0824  0.0134 -0.1400
 1016YOPC   C2B14012   1.523  12.338   7.237  0.0096  0.3163 -0.1223
 1016YOPC   D3B14013   1.263  12.162   7.500  0.0405  0.2522  0.0537
 1016YOPC   C4B14014   1.342  12.094   7.937 -0.3591  0.1429  0.3273
 1017YOPC   NC314015   3.148   8.515   5.366 -0.1814 -0.1565  0.0538
 1017YOPC   PO414016   3.492   8.839   5.164 -0.1417  0.1745 -0.2721
 1017YOPC   GL114017   3.613   8.766   5.563 -0.2479  0.3237 -0.0711
 1017YOPC   GL214018   3.665   8.455   5.473  0.1894  0.0423  0.2664
 1017YOPC   C1A14019   3.563   8.942   5.947  0.1195 -0.3850  0.0371
 1017YOPC   D2A14020   3.642   8.930   6.439 -0.0719  0.2004 -0.0508
 1017YOPC   C3A14021   3.232   8.881   6.642 -0.0366  0.5816 -0.0415
 1017YOPC   C4A14022   3.013   8.691   7.010  0.0310 -0.0904  0.0176
 1017YOPC   C1B14023   3.579   8.400   5.897 -0.4570 -0.0134  0.4200
 1017YOPC   C2B14024   3.332   8.570   6.182  0.4820 -0.1949 -0.0555
 1017YOPC   D3B14025   3.047   8.990   6.093 -0.1220  0.0509  0.0769
 1017YOPC   C4B14026   3.290   9.295   6.289 -0.1538 -0.0464 -0.3530
 1018YOPC   NC314027   7.199  15.189   6.036 -0.1111  0.2561  0.1525
 1018YOPC   PO414028   7.618  15.186   6.001 -0.0341 -0.2378 -0.0971
 1018YOPC   GL114029   7.512  15.090   6.429 -0.1469  0.2952  0.0608
 1018YOPC   GL214030   7.813  15.116   6.739  0.1233 -0.0252 -0.3166
 1018YOPC   C1A14031   7.270  14.978   6.790 -0.1287  0.2029 -0.1279
 1018YOPC   D2A14032   7.029  15.017   7.156  0.0119 -0.1325  0.2509
 1018YOPC   C3A14033   7.030  14.825   7.444 -0.0938  0.0660  0.3505
 1018YOPC   C4A14034   6.838  14.453   7.636  0.0225  0.2368  0.0025
 1018YOPC   C1B14035   7.680  15.257   7.173 -0.2543 -0.0350  0.2763
 1018YOPC   C2B14036   7.329  15.246   7.468  0.0313 -0.2738  0.0774
 1018YOPC   D3B14037   7.543  15.331   7.823  0.0931  0.0273 -0.2500
 1018YOPC   C4B14038   7.781  15.304   8.187  0.1234 -0.0658 -0.1955
 1019YOPC   NC314039   0.569  15.174   5.870  0.1302  0.1518 -0.1248
 1019YOPC   PO414040   0.557  15.628   6.044 -0.1480 -0.0902 -0.0711
 1019YOPC   GL114041   0.566  15.797   6.480  0.0346  0.1579  0.3320
 1019YOPC   GL214042   0.277  15.977   6.523  0.0221 -0.1022 -0.1692
 1019YOPC   C1A14043   0.573  15.798   6.938  0.1463 -0.1767 -0.2128
 1019YOPC   D2A14044   0.705  15.850   7.411 -0.1155  0.2179  0.2045
 1019YOPC   C3A14045   0.655  15.636   7.764  0.3287 -0.3059  0.0393
 1019YOPC   C4A14046   1.017  15.581   8.120 -0.0992 -0.0019 -0.0435
 1019YOPC   C1B14047   0.078  15.788   7.009 -0.0403  0.1126  0.0344
 1019YOPC   C2B14048   0.316  15.528   7.318  0.2728 -0.3130  0.0693
 1019YOPC   D3B14049   0.252  15.387   7.751 -0.0752 -0.0584  0.0306
 1019YOPC   C4B14050   0.197  15.601   8.175 -0.0391  0.0319  0.0171
 1020YOPC   NC314051   3.191   0.863   5.525 -0.0649  0.0493  0.1053
 1020YOPC   PO414052   3.157   0.608   5.831 -0.3757  0.3211 -0.0611
 1020YOPC   GL114053   2.973   0.816   6.196  0.2191  0.2504  0.0151
 1020YOPC   GL214054   2.721   0.727   6.407 -0.0630 -0.1245  0.0705
 1020YOPC   C1A14055   3.142   0.827   6.722  0.0255 -0.2203 -0.0768
 1020YOPC   D2A14056   2.951   0.701   7.117 -0.0663  0.3154 -0.1322
 1020YOPC   C3A14057   3.191   0.604   7.455 -0.0138  0.0853  0.0946
 1020YOPC   C4A14058   3.274   0.245   7.644 -0.0458 -0.1415 -0.1922
 1020YOPC   C1B14059   2.539   0.651   6.834 -0.0077  0.0451  0.2308
 1020YOPC   C2B14060   2.311   0.699   7.206  0.1015  0.1270 -0.2880
 1020YOPC   D3B14061   2.282   1.070   7.219  0.0585  0.0836 -0.0139
 1020YOPC   C4B14062   2.331   1.465   7.194 -0.0294  0.0804 -0.2024
 1021YOPC   NC314063  12.354   5.268   6.474 -0.0315  0.1032  0.1849
 1021YOPC   PO414064  11.903   5.412   6.543 -0.0697 -0.2264 -0.0662
 1021YOPC   GL114065  11.848   5.162   6.866 -0.2309 -0.0007 -0.0082
 1021YOPC   GL214066  11.717   4.844   6.823 -0.3733 -0.0753  0.1686
 1021YOPC   C1A14067  11.662   5.144   7.288 -0.0605 -0.1615  0.1302
 1021YOPC   D2A14068  11.881   5.040   7.640  0.0876  0.2071  0.0239
 1021YOPC   C3A14069  11.697   5.050   8.005  0.0596  0.0059  0.0186
 1021YOPC   C4A14070  11.935   5.078   8.455 -0.2911  0.1708 -0.0039
 1021YOPC   C1B14071  11.816   4.681   7.223 -0.1543  0.1467 -0.0023
 1021YOPC   C2B14072  11.567   4.695   7.542 -0.0692 -0.0857  0.1840
 1021YOPC   D3B14073  11.667   4.407   7.916  0.1604 -0.0758  0.0475
 1021YOPC   C4B14074  11.739   4.218   8.246 -0.0377  0.2005 -0.0539
 1022YOPC   NC314075   2.371   4.300   5.656 -0.0836  0.0767  0.4475
 1022YOPC   PO414076   2.754   4.498   5.646 -0.0090  0.2941  0.1504
 1022YOPC   GL114077   2.752   4.323   6.045  0.0183  0.0462 -0.2973
 1022YOPC   GL214078   2.977   4.213   6.201 -0.2730 -0.0051 -0.0369
 1022YOPC   C1A14079   2.756   4.561   6.425 -0.0475  0.0112 -0.2833
 1022YOPC   D2A14080   2.864   4.459   6.918 -0.0841 -0.0605  0.2462
 1022YOPC   C3A14081   3.065   4.050   7.103  0.0227 -0.2534 -0.0078
 1022YOPC   C4A14082   3.314   4.143   7.407  0.2256 -0.2493  0.0120
 1022YOPC   C1B14083   3.138   4.140   6.547  0.0665 -0.0823 -0.0193
 1022YOPC   C2B14084   3.430   4.166   6.726 -0.2267 -0.1088 -0.0685
 1022YOPC   D3B14085   3.782   4.252   6.559 -0.0915 -0.0589  0.0608
 1022YOPC   C4B14086   4.119   4.105   6.701 -0.0582  0.0687 -0.1792
 1023YOPC   NC314087  14.284   4.516   5.969  0.0175 -0.1298  0.3788
 1023YOPC   PO414088  14.250   4.931   6.200 -0.0631 -0.0274  0.0565
 1023YOPC   GL114089  14.386   5.053   6.535  0.0253 -0.0288 -0.1751
 1023YOPC   GL214090  14.762   5.100   6.542 -0.0522  0.1669  0.1925
 1023YOPC   C1A14091  14.239   5.037   7.026 -0.2884 -0.2260 -0.0576
 1023YOPC   D2A14092  14.184   4.808   7.346  0.0648  0.1928  0.1929
 1023YOPC   C3A14093  14.171   4.916   7.769  0.0471 -0.2039  0.0018
 1023YOPC   C4A14094  14.578   4.793   8.151 -0.0429 -0.0922  0.0806
 1023YOPC   C1B14095  14.770   5.159   7.041  0.0265  0.2300 -0.1142
 1023YOPC   C2B14096  14.783   5.224   7.431 -0.0117  0.1054  0.2086
 1023YOPC   D3B14097  15.019   5.076   7.808 -0.0040 -0.3423  0.0170
 1023YOPC   C4B14098  15.446   5.069   7.952 -0.1850  0.0545 -0.2131
 1024YOPC   NC314099   9.457   0.050   6.485 -0.0334 -0.0436 -0.3067
 1024YOPC   PO414100   9.011  -0.091   6.583  0.1000  0.0437 -0.2342
 1024YOPC   GL114101   9.147   0.118   6.898 -0.1033 -0.1497  0.0403
 1024YOPC   GL214102   9.431   0.333   6.892 -0.2948  0.0282 -0.4233
 1024YOPC   C1A14103   8.988   0.198   7.217 -0.1009  0.0443  0.1273
 1024YOPC   D2A14104   8.800   0.437   7.648 -0.1750  0.0463  0.0592
 1024YOPC   C3A14105   9.046   0.449   8.083  0.1273 -0.1484  0.0081
 1024YOPC   C4A14106   9.018   0.602   8.499  0.1010  0.3348 -0.0359
 1024YOPC   C1B14107   9.484   0.126   7.240 -0.0162 -0.3357  0.3495
 1024YOPC   C2B14108   9.517   0.142   7.614  0.0508 -0.1908 -0.0039
 1024YOPC   D3B14109   9.675  -0.203   7.835  0.0673  0.1453 -0.2605
 1024YOPC   C4B14110   9.976  -0.367   8.116 -0.0854  0.1396 -0.1098
 1025YOPC   NC314111   4.949   9.810   5.604 -0.1306 -0.2061 -0.0149
 1025YOPC   PO414112   5.424   9.980   5.737  0.0409  0.0229  0.3973
 1025YOPC   GL114113   5.509   9.932   6.154 -0.1342  0.3019  0.0598
 1025YOPC   GL214114   5.633   9.619   6.243 -0.2075  0.1668 -0.0691
 1025YOPC   C1A14115   5.574  10.051   6.506 -0.1186  0.3840  0.1862
 1025YOPC   D2A14116   5.163  10.071   6.818 -0.3981  0.2173 -0.1808
 1025YOPC   C3A14117   5.240  10.117   7.214  0.1334 -0.2229 -0.0632
 1025YOPC   C4A14118   4.970  10.190   7.553 -0.0718  0.1981 -0.1743
 1025YOPC   C1B14119   5.779   9.598   6.656  0.7123 -0.1195 -0.2014
 1025YOPC   C2B14120   5.864   9.535   7.078 -0.3784 -0.0508 -0.1367
 1025YOPC   D3B14121   5.926   9.192   7.177 -0.2326 -0.3190 -0.0734
 1025YOPC   C4B14122   5.996   9.079   7.585  0.0584 -0.0556 -0.1514
 1026YOPC   NC314123   5.162  16.311   6.381 -0.3681 -0.1890 -0.1811
 1026YOPC   PO414124   5.159  15.958   6.235  0.1699  0.1909  0.0063
 1026YOPC   GL114125   4.815  15.987   6.611 -0.0625  0.1682 -0.0854
 1026YOPC   GL214126   4.528  15.836   6.616  0.1276  0.2903  0.1595
 1026YOPC   C1A14127   4.883  15.882   7.019  0.0946  0.0913  0.2855
 1026YOPC   D2A14128   4.496  15.822   7.374  0.0484  0.4249 -0.1272
 1026YOPC   C3A14129   4.419  15.862   7.727  0.2989  0.0523 -0.0682
 1026YOPC   C4A14130   4.433  15.880   8.075  0.0034  0.2632  0.1949
 1026YOPC   C1B14131   4.690  15.367   6.773  0.5407 -0.2232  0.1709
 1026YOPC   C2B14132   4.593  14.897   6.994 -0.0868 -0.2315 -0.0169
 1026YOPC   D3B14133   4.180  14.799   6.998 -0.0736  0.0058  0.0708
 1026YOPC   C4B14134   3.788  14.838   6.763  0.1319 -0.2430  0.3015
 1027YOPC   NC314135   9.344   9.593   6.018 -0.0710 -0.0304  0.0096
 1027YOPC   PO414136   9.721   9.676   6.249 -0.0996  0.1398  0.0846
 1027YOPC   GL114137   9.422   9.749   6.568  0.1378 -0.0821 -0.0067
 1027YOPC   GL214138   9.175   9.603   6.638  0.0420 -0.1637 -0.0177
 1027YOPC   C1A14139   9.626   9.698   6.971  0.0894 -0.0275 -0.0320
 1027YOPC   D2A14140   9.950   9.949   7.251  0.2279 -0.1819 -0.2579
 1027YOPC   C3A14141  10.270   9.921   7.579  0.1901 -0.2356  0.0144
 1027YOPC   C4A14142  10.578   9.785   7.886 -0.1435 -0.0177 -0.0793
 1027YOPC   C1B14143   8.876   9.350   6.987  0.2132  0.2491 -0.1386
 1027YOPC   C2B14144   8.641   9.509   7.314 -0.0122  0.0930  0.3954
 1027YOPC   D3B14145   8.826   9.431   7.688 -0.0588 -0.2230  0.0320
 1027YOPC   C4B14146   9.008   9.509   8.077 -0.1778  0.1925 -0.2675
 1028YOPC   NC314147   7.663  11.506   5.196 -0.0047  0.0032  0.0822
 1028YOPC   PO414148   7.400  11.817   5.397 -0.1838 -0.1585  0.0354
 1028YOPC   GL114149   7.685  12.036   5.813 -0.0128 -0.0077  0.3530
 1028YOPC   GL214150   7.741  12.399   5.908 -0.1589 -0.0113  0.1938
 1028YOPC   C1A14151   7.952  11.773   6.089 -0.0858  0.0029 -0.2011
 1028YOPC   D2A14152   8.380  11.525   6.063 -0.2399  0.0350  0.1592
 1028YOPC   C3A14153   8.558  11.170   6.330 -0.1705 -0.0046  0.1091
 1028YOPC   C4A14154   8.641  10.731   6.416 -0.2495  0.0331 -0.4147
 1028YOPC   C1B14155   7.879  12.582   6.316 -0.2095  0.0278  0.2674
 1028YOPC   C2B14156   8.078  12.473   6.682  0.1853 -0.0384  0.2383
 1028YOPC   D3B14157   7.896  12.331   6.957 -0.4024  0.1102 -0.0106
 1028YOPC   C4B14158   7.794  11.951   7.072  0.0720 -0.1066 -0.1870
 1029YOPC   NC314159  12.790   0.288   6.328  0.1065 -0.0622  0.0432
 1029YOPC   PO414160  13.043   0.587   6.126 -0.3144  0.0297 -0.1375
 1029YOPC   GL114161  13.203   0.536   6.515  0.2307  0.3525 -0.0454
 1029YOPC   GL214162  13.065   0.754   6.642 -0.2203  0.3558 -0.1120
 1029YOPC   C1A14163  13.289   0.414   6.979 -0.1710 -0.0013  0.1687
 1029YOPC   D2A14164  13.231   0.569   7.458 -0.2785 -0.0021 -0.1183
 1029YOPC   C3A14165  13.387   0.487   7.871  0.2348  0.3733 -0.2939
 1029YOPC   C4A14166  13.335   0.598   8.289  0.0409 -0.2347  0.0666
 1029YOPC   C1B14167  12.889   0.677   7.094 -0.1863  0.1190 -0.1835
 1029YOPC   C2B14168  12.661   0.851   7.498 -0.1075  0.0755 -0.2403
 1029YOPC   D3B14169  12.878   0.723   7.894  0.0566 -0.1199  0.0780
 1029YOPC   C4B14170  12.820   0.497   8.222  0.0184  0.2226  0.2446
 1030YOPC   NC314171  16.580  17.927   5.826  0.2144 -0.0314 -0.0923
 1030YOPC   PO414172  16.976  18.141   6.057  0.0749 -0.0634  0.1878
 1030YOPC   GL114173  17.020  17.988   6.461 -0.0701  0.3361  0.2732
 1030YOPC   GL214174  17.194  17.960   6.697 -0.0705 -0.0880  0.0302
 1030YOPC   C1A14175  16.716  17.843   6.807  0.0798 -0.1040  0.0525
 1030YOPC   D2A14176  16.466  17.550   6.969 -0.1487 -0.4419  0.0122
 1030YOPC   C3A14177  16.405  17.444   7.382 -0.2459  0.0002 -0.2768
 1030YOPC   C4A14178  16.390  17.448   7.888  0.0015 -0.0412  0.0046
 1030YOPC   C1B14179  17.112  17.919   7.082  0.1539  0.1162 -0.0778
 1030YOPC   C2B14180  16.827  17.694   7.338 -0.0100  0.1011  0.3435
 1030YOPC   D3B14181  16.893  17.527   7.771  0.2312  0.2015 -0.0600
 1030YOPC   C4B14182  16.802  17.554   8.296  0.2554 -0.1012  0.2358
 1031YOPC   NC314183   1.567   8.916   5.793 -0.1548 -0.1233  0.0474
 1031YOPC   PO414184   1.463   9.451   5.806 -0.0826  0.1033 -0.0763
 1031YOPC   GL114185   1.733   9.600   6.143 -0.0112 -0.0075  0.0120
 1031YOPC   GL214186   1.940   9.900   6.379 -0.1683  0.0353 -0.2660
 1031YOPC   C1A14187   1.883   9.425   6.492  0.2717  0.0918 -0.1348
 1031YOPC   D2A14188   1.874   9.258   6.916 -0.0462 -0.1343 -0.1353
 1031YOPC   C3A14189   1.992   9.419   7.233  0.0530 -0.0458 -0.2094
 1031YOPC   C4A14190   2.311   9.316   7.618 -0.3122 -0.2884 -0.0429
 1031YOPC   C1B14191   1.806   9.780   6.849 -0.0912 -0.0927  0.1138
 1031YOPC   C2B14192   1.612   9.966   7.197  0.3663 -0.0920  0.0047
 1031YOPC   D3B14193   1.577   9.636   7.557 -0.2134  0.0887  0.3802
 1031YOPC   C4B14194   1.506   9.283   7.522  0.1048  0.1683  0.0719
 1032YOPC   NC314195   0.873   8.049   5.747 -0.0361 -0.2709 -0.3937
 1032YOPC   PO414196   0.444   7.987   5.824  0.3936  0.1638 -0.0662
 1032YOPC   GL114197   0.680   8.122   6.179 -0.0314 -0.0026 -0.2334
 1032YOPC   GL214198   0.429   8.208   6.421  0.1250  0.1445  0.1328
 1032YOPC   C1A14199   0.944   8.386   6.379  0.3710  0.0006 -0.2165
 1032YOPC   D2A14200   1.154   8.514   6.725  0.0172  0.1948  0.1717
 1032YOPC   C3A14201   0.964   8.460   7.069  0.0648  0.1723 -0.0365
 1032YOPC   C4A14202   1.098   8.548   7.469  0.1625  0.0165  0.0693
 1032YOPC   C1B14203   0.632   8.156   6.830  0.0299  0.0526  0.1767
 1032YOPC   C2B14204   0.510   8.240   7.266 -0.0522  0.0312 -0.0089
 1032YOPC   D3B14205   0.481   7.893   7.532  0.1765  0.1190  0.0697
 1032YOPC   C4B14206   0.248   7.716   7.921 -0.1903 -0.1625  0.0756
 1033YOPC   NC314207  15.498   3.792   5.756 -0.0252  0.3807  0.1080
 1033YOPC   PO414208  15.739   4.035   5.655  0.1460  0.0313 -0.2212
 1033YOPC   GL114209  15.888   4.191   6.105 -0.1148 -0.2488 -0.0539
 1033YOPC   GL214210  15.859   4.515   6.108 -0.1515 -0.0652 -0.0303
 1033YOPC   C1A14211  16.040   4.133   6.559  0.0273  0.0146  0.0145
 1033YOPC   D2A14212  15.930   4.225   7.077 -0.0119  0.3172  0.1645
 1033YOPC   C3A14213  16.259   4.378   7.425  0.1132 -0.1143 -0.0769
 1033YOPC   C4A14214  16.275   4.579   7.793  0.0703  0.5420  0.1063
 1033YOPC   C1B14215  16.208   4.620   6.441 -0.1926  0.0817 -0.2683
 1033YOPC   C2B14216  16.324   4.539   6.828  0.1853 -0.2292  0.0429
 1033YOPC   D3B14217  16.769   4.583   6.930 -0.0380 -0.2173  0.1099
 1033YOPC   C4B14218  17.087   4.930   6.743 -0.0725 -0.4159 -0.1594
 1034YOPC   NC314219   3.952  15.492   5.877  0.0148 -0.1048  0.0179
 1034YOPC   PO414220   3.786  15.785   6.158 -0.0323 -0.1755 -0.2592
 1034YOPC   GL114221   3.963  15.841   6.645 -0.0042  0.2138  0.0621
 1034YOPC   GL214222   3.753  16.092   6.839 -0.0121 -0.1411  0.2232
 1034YOPC   C1A14223   4.074  15.731   7.082  0.1306 -0.2235  0.1433
 1034YOPC   D2A14224   3.916  15.850   7.567  0.0822  0.1000 -0.1140
 1034YOPC   C3A14225   3.689  15.534   7.689  0.0635  0.1457  0.0866
 1034YOPC   C4A14226   3.352  15.511   7.932 -0.0295 -0.0414 -0.0251
 1034YOPC   C1B14227   3.575  15.851   7.216 -0.3557  0.2723 -0.2527
 1034YOPC   C2B14228   3.137  15.888   7.323 -0.0034 -0.0805 -0.1453
 1034YOPC   D3B14229   3.086  16.224   7.575 -0.0139 -0.0469 -0.2916
 1034YOPC   C4B14230   3.001  16.358   7.977  0.0427 -0.2717  0.2231
 1035YOPC   NC314231  10.235   0.357   6.382 -0.2326 -0.1823 -0.0519
 1035YOPC   PO414232  10.037  -0.010   6.426 -0.1795  0.1162 -0.1363
 1035YOPC   GL114233  10.368   0.121   6.800 -0.1107 -0.1833  0.1583
 1035YOPC   GL214234  10.399  -0.168   6.851  0.1589 -0.3325  0.2269
 1035YOPC   C1A14235  10.641   0.108   7.187 -0.0389 -0.0208  0.2594
 1035YOPC   D2A14236  10.804   0.346   7.509  0.1452 -0.0953 -0.3090
 1035YOPC   C3A14237  10.840   0.186   7.801 -0.2089  0.0315  0.0286
 1035YOPC   C4A14238  10.792   0.019   8.348  0.0312  0.1274 -0.0354
 1035YOPC   C1B14239  10.130  -0.244   7.099  0.0099 -0.1689  0.2285
 1035YOPC   C2B14240   9.705  -0.344   7.328  0.0405 -0.0523  0.4276
 1035YOPC   D3B14241   9.343  -0.601   7.605  0.1229  0.4505  0.0991
 1035YOPC   C4B14242   9.291  -0.465   8.060  0.3418  0.1449 -0.4069
 1036YOPC   NC314243   5.558  14.637   5.902  0.1029  0.3519 -0.0987
 1036YOPC   PO414244   5.213  14.887   5.720 -0.0587  0.0507 -0.3730
 1036YOPC   GL114245   5.123  14.786   6.171  0.0179 -0.0017  0.1892
 1036YOPC   GL214246   4.865  14.853   6.486  0.1467 -0.0453 -0.1972
 1036YOPC   C1A14247   5.387  14.677   6.499  0.1432  0.0651 -0.1647
 1036YOPC   D2A14248   5.325  14.617   6.979  0.2264 -0.3738  0.0271
 1036YOPC   C3A14249   5.404  14.780   7.403 -0.4054 -0.0450  0.2110
 1036YOPC   C4A14250   5.646  14.884   7.754 -0.3748  0.4136  0.0024
 1036YOPC   C1B14251   5.052  15.062   6.861  0.1729  0.0573 -0.0375
 1036YOPC   C2B14252   4.976  14.958   7.249 -0.3064 -0.1319  0.0961
 1036YOPC   D3B14253   5.110  15.191   7.613  0.1518  0.1853  0.1113
 1036YOPC   C4B14254   5.313  15.494   7.781  0.0265 -0.0333  0.1610
 1037YOPC   NC314255  11.326  11.559   6.370  0.2252  0.0852 -0.0387
 1037YOPC   PO414256  11.145  11.096   6.383 -0.0634 -0.2012  0.1993
 1037YOPC   GL114257  11.098  11.221   6.719  0.4469  0.1582 -0.2608
 1037YOPC   GL214258  11.033  11.518   6.764  0.2091  0.0441 -0.0310
 1037YOPC   C1A14259  11.068  11.210   7.164 -0.1545  0.1156  0.4924
 1037YOPC   D2A14260  10.990  11.342   7.543  0.3810  0.2071 -0.0805
 1037YOPC   C3A14261  11.129  11.730   7.635  0.2104  0.0346  0.0664
 1037YOPC   C4A14262  11.471  12.102   7.748  0.2890  0.1356  0.2161
 1037YOPC   C1B14263  10.726  11.843   6.813 -0.1535  0.0371  0.1975
 1037YOPC   C2B14264  10.535  12.083   7.025  0.0066  0.0706 -0.1232
 1037YOPC   D3B14265  10.358  11.974   7.354 -0.3025  0.1999 -0.4098
 1037YOPC   C4B14266  10.151  12.153   7.693  0.0247  0.2852 -0.0865
 1038YOPC   NC314267  17.042   4.969   5.199  0.0030  0.0151  0.0165
 1038YOPC   PO414268  17.068   4.627   5.406 -0.0268  0.0715  0.0892
 1038YOPC   GL114269  17.053   4.774   5.860 -0.0749  0.0817  0.1738
 1038YOPC   GL214270  17.123   4.649   6.004 -0.1854  0.3091 -0.2415
 1038YOPC   C1A14271  16.908   5.048   6.208  0.2705  0.1568  0.0397
 1038YOPC   D2A14272  16.633   4.967   6.540  0.0699  0.2226  0.0116
 1038YOPC   C3A14273  16.687   5.081   6.967  0.0500  0.1557  0.2057
 1038YOPC   C4A14274  16.585   5.415   7.322 -0.1475  0.4078 -0.2523
 1038YOPC   C1B14275  17.018   4.586   6.435 -0.0027  0.0108 -0.1896
 1038YOPC   C2B14276  17.291   4.525   6.842 -0.2270  0.2422 -0.1099
 1038YOPC   D3B14277  17.118   4.775   7.247  0.0775  0.0355  0.3610
 1038YOPC   C4B14278  17.339   4.789   7.706  0.0336 -0.1578 -0.0346
 1039YOPC   NC314279  10.156   5.675   6.228 -0.0532  0.1497  0.0557
 1039YOPC   PO414280  10.432   5.975   6.203  0.1985  0.0129  0.2114
 1039YOPC   GL114281  10.279   5.914   6.684  0.0646 -0.2177  0.0322
 1039YOPC   GL214282  10.216   5.597   6.909 -0.1128 -0.1283  0.1526
 1039YOPC   C1A14283  10.392   5.998   7.074 -0.1863 -0.1019 -0.0373
 1039YOPC   D2A14284  10.178   6.078   7.514  0.1125 -0.0991 -0.0720
 1039YOPC   C3A14285  10.298   6.036   7.878 -0.1946  0.0582  0.1509
 1039YOPC   C4A14286   9.906   6.013   8.206 -0.3018 -0.1164  0.0196
 1039YOPC   C1B14287  10.319   5.625   7.368  0.3595  0.0564 -0.2170
 1039YOPC   C2B14288  10.389   5.439   7.655  0.1447 -0.3173 -0.0556
 1039YOPC   D3B14289  10.231   5.556   8.033  0.1002 -0.2011  0.2203
 1039YOPC   C4B14290   9.821   5.560   8.291  0.2798 -0.1500  0.2086
 1040YOPC   NC314291   4.271  10.912   5.745  0.1614  0.0399 -0.1072
 1040YOPC   PO414292   4.496  10.483   5.763 -0.1580  0.1470  0.1705
 1040YOPC   GL114293   4.577  10.668   6.089 -0.1313 -0.0809 -0.2950
 1040YOPC   GL214294   4.707  10.512   6.232  0.3407  0.1068  0.3390
 1040YOPC   C1A14295   4.844  10.979   6.454  0.0904 -0.0922  0.2243
 1040YOPC   D2A14296   4.924  11.017   6.923 -0.1219 -0.2476  0.1346
 1040YOPC   C3A14297   5.071  11.373   7.107 -0.1337 -0.1318  0.4176
 1040YOPC   C4A14298   5.241  11.636   7.430  0.0234 -0.1004  0.0965
 1040YOPC   C1B14299   4.705  10.311   6.700  0.1020 -0.0872 -0.1468
 1040YOPC   C2B14300   4.764  10.074   7.095  0.1454 -0.1217  0.1939
 1040YOPC   D3B14301   4.899   9.752   7.181 -0.2200 -0.1182 -0.1902
 1040YOPC   C4B14302   4.991   9.359   7.294  0.1136  0.0709  0.0919
 1041YOPC   NC314303  14.496   8.089   6.455  0.0510 -0.1488  0.1628
 1041YOPC   PO414304  14.132   8.218   6.459 -0.1352  0.1794 -0.0802
 1041YOPC   GL114305  14.145   8.160   6.900 -0.0577 -0.1425  0.1194
 1041YOPC   GL214306  13.906   8.311   7.159  0.3397 -0.0130  0.2119
 1041YOPC   C1A14307  14.250   7.922   7.275  0.5197  0.2661  0.0267
 1041YOPC   D2A14308  14.144   7.553   7.556 -0.1160 -0.0754 -0.1068
 1041YOPC   C3A14309  13.813   7.589   7.958 -0.0229  0.3676  0.0287
 1041YOPC   C4A14310  13.810   7.440   8.392 -0.0147 -0.0623  0.0225
 1041YOPC   C1B14311  14.151   8.348   7.568  0.1966  0.1130 -0.3266
 1041YOPC   C2B14312  14.529   8.284   7.609  0.0729  0.2887  0.2740
 1041YOPC   D3B14313  14.678   8.208   8.027  0.0118  0.2616 -0.2428
 1041YOPC   C4B14314  14.739   8.356   8.438  0.1428  0.1477 -0.1697
 1042YOPC   NC314315   6.028   9.543   5.836  0.2259  0.0346  0.1467
 1042YOPC   PO414316   5.994   9.194   5.590  0.1631 -0.0732 -0.0027
 1042YOPC   GL114317   5.818   9.168   6.016 -0.1679 -0.0269 -0.2488
 1042YOPC   GL214318   5.480   9.014   6.029  0.1478 -0.3069  0.1402
 1042YOPC   C1A14319   5.693   9.148   6.517 -0.0815 -0.1533  0.0125
 1042YOPC   D2A14320   5.555   8.944   6.827  0.4052  0.2751 -0.0011
 1042YOPC   C3A14321   5.434   9.137   7.230 -0.1815  0.1698 -0.1452
 1042YOPC   C4A14322   5.504   9.234   7.658 -0.3507 -0.2936  0.4893
 1042YOPC   C1B14323   5.333   8.695   6.334 -0.2437 -0.0825 -0.1896
 1042YOPC   C2B14324   5.234   8.562   6.776 -0.0200 -0.0410 -0.0625
 1042YOPC   D3B14325   5.407   8.468   7.139  0.2430  0.3232 -0.2837
 1042YOPC   C4B14326   5.282   8.328   7.450  0.1419 -0.2862 -0.0545
 1043YOPC   NC314327   8.377   3.664   6.062 -0.0278 -0.1864 -0.2851
 1043YOPC   PO414328   8.633   3.628   6.444  0.1358  0.1362 -0.4070
 1043YOPC   GL114329   8.441   3.462   6.735  0.0880  0.0906 -0.2448
 1043YOPC   GL214330   8.661   3.187   6.747  0.1486 -0.0401 -0.3376
 1043YOPC   C1A14331   8.240   3.200   6.960 -0.0906 -0.0312  0.0363
 1043YOPC   D2A14332   8.176   3.031   7.453 -0.1910 -0.0212 -0.3966
 1043YOPC   C3A14333   7.833   2.965   7.769 -0.2398 -0.1513  0.0953
 1043YOPC   C4A14334   7.497   3.262   7.794  0.2920 -0.0914  0.1220
 1043YOPC   C1B14335   8.772   3.138   7.120  0.0185  0.3059 -0.0242
 1043YOPC   C2B14336   8.698   2.987   7.394 -0.1301 -0.1418  0.0280
 1043YOPC   D3B14337   8.862   3.070   7.806 -0.1243  0.0099  0.2373
 1043YOPC   C4B14338   8.778   2.928   8.249  0.1647  0.2153  0.0023
 1044YOPC   NC314339   7.993   4.599   6.108  0.4831  0.1289 -0.2672
 1044YOPC   PO414340   8.207   4.934   6.159 -0.1837  0.1511 -0.0178
 1044YOPC   GL114341   8.020   4.987   6.571 -0.0468  0.0939  0.0513
 1044YOPC   GL214342   7.882   4.771   6.594  0.0154 -0.1827 -0.1594
 1044YOPC   C1A14343   8.071   5.127   6.919  0.2381  0.3483  0.0179
 1044YOPC   D2A14344   8.047   5.080   7.383 -0.1892 -0.0924 -0.3317
 1044YOPC   C3A14345   8.117   4.680   7.775  0.1179 -0.0325  0.1399
 1044YOPC   C4A14346   8.301   4.248   7.908  0.0146 -0.2459  0.0420
 1044YOPC   C1B14347   7.900   4.663   6.992 -0.2720 -0.1243  0.1766
 1044YOPC   C2B14348   7.819   4.547   7.401  0.0567 -0.0292  0.0340
 1044YOPC   D3B14349   7.643   4.230   7.721  0.0787 -0.1419  0.0777
 1044YOPC   C4B14350   7.879   4.079   8.130 -0.0757  0.0508 -0.2618
 1045YOPC   NC314351  17.795   2.307   5.727  0.3071  0.2376  0.0088
 1045YOPC   PO414352  17.455   2.480   5.906 -0.3064 -0.0214  0.1349
 1045YOPC   GL114353  17.650   2.731   6.251  0.2169 -0.0904 -0.0134
 1045YOPC   GL214354  17.303   2.856   6.425  0.2184  0.1419 -0.3825
 1045YOPC   C1A14355  17.668   2.692   6.729  0.1801 -0.0983  0.0544
 1045YOPC   D2A14356  17.607   2.755   7.112  0.0516 -0.0319 -0.2286
 1045YOPC   C3A14357  17.679   2.478   7.455  0.1288  0.1517  0.0380
 1045YOPC   C4A14358  18.016   2.365   7.505  0.0933 -0.1053  0.3236
 1045YOPC   C1B14359  17.185   3.059   6.865 -0.0183 -0.2797  0.0680
 1045YOPC   C2B14360  17.085   3.356   7.297 -0.0238  0.0470 -0.1536
 1045YOPC   D3B14361  17.025   3.118   7.706 -0.1788  0.2841  0.1607
 1045YOPC   C4B14362  17.149   3.000   8.046 -0.1765  0.0987 -0.2378
 1046YOPC   NC314363  17.132   8.337   6.022  0.0815 -0.2349 -0.1878
 1046YOPC   PO414364  17.575   8.216   6.064 -0.1741  0.0354 -0.4111
 1046YOPC   GL114365  17.413   8.017   6.457 -0.0989 -0.0938 -0.0340
 1046YOPC   GL214366  17.297   8.319   6.505  0.0701 -0.2204 -0.0384
 1046YOPC   C1A14367  17.178   7.754   6.668  0.0678  0.1218 -0.0563
 1046YOPC   D2A14368  16.740   7.577   6.759  0.3188  0.2725  0.1958
 1046YOPC   C3A14369  16.725   7.466   7.109  0.3739  0.2812 -0.0786
 1046YOPC   C4A14370  16.996   7.416   7.429 -0.2211  0.1810  0.0596
 1046YOPC   C1B14371  17.114   8.477   6.950 -0.1447 -0.2114  0.2362
 1046YOPC   C2B14372  16.926   8.315   7.311  0.0307  0.5092 -0.0681
 1046YOPC   D3B14373  16.796   8.553   7.661  0.1906  0.1301  0.1176
 1046YOPC   C4B14374  16.496   8.725   7.779 -0.3931 -0.1348  0.0879
 1047YOPC   NC314375  14.372  17.691   6.258 -0.0900 -0.3994 -0.1019
 1047YOPC   PO414376  14.561  17.344   6.378 -0.0793  0.1211  0.0767
 1047YOPC   GL114377  14.808  17.729   6.453 -0.0565  0.0449  0.1634
 1047YOPC   GL214378  14.611  18.027   6.635  0.1155 -0.2125 -0.2883
 1047YOPC   C1A14379  15.073  17.791   6.760 -0.2359  0.0686 -0.2146
 1047YOPC   D2A14380  15.327  17.997   7.171 -0.0631 -0.1304 -0.2134
 1047YOPC   C3A14381  15.253  18.031   7.484  0.1586  0.0324 -0.0744
 1047YOPC   C4A14382  15.177  17.911   7.943  0.1363 -0.2448  0.0979
 1047YOPC   C1B14383  14.399  18.111   6.921  0.0363  0.1940 -0.1307
 1047YOPC   C2B14384  14.360  17.939   7.320  0.2686  0.3389  0.1777
 1047YOPC   D3B14385  14.294  17.992   7.645  0.1206 -0.2711  0.0502
 1047YOPC   C4B14386  14.264  17.821   8.088  0.2378  0.1001  0.1650
 1048YOPC   NC314387   2.931  15.333   6.257 -0.3514  0.0142  0.2631
 1048YOPC   PO414388   3.161  15.711   6.136  0.1915 -0.0544 -0.2654
 1048YOPC   GL114389   3.036  15.753   6.587  0.4457 -0.0109 -0.1453
 1048YOPC   GL214390   2.733  15.662   6.614  0.0250  0.0467  0.1236
 1048YOPC   C1A14391   3.142  15.493   7.014  0.0712  0.3155 -0.4382
 1048YOPC   D2A14392   3.241  15.428   7.450 -0.0889 -0.1306 -0.2525
 1048YOPC   C3A14393   2.975  15.245   7.742 -0.3014  0.2093 -0.1932
 1048YOPC   C4A14394   3.084  15.119   8.176 -0.0673  0.1195  0.2400
 1048YOPC   C1B14395   2.748  15.787   7.032 -0.2048  0.0239  0.0375
 1048YOPC   C2B14396   2.740  16.208   7.232  0.0721  0.0303 -0.0387
 1048YOPC   D3B14397   2.604  16.222   7.691  0.2464 -0.0736 -0.0491
 1048YOPC   C4B14398   2.629  16.014   8.170 -0.0073 -0.1758 -0.0270
 1049YOPC   NC314399   9.194  11.671   5.518  0.1562  0.1112 -0.0470
 1049YOPC   PO414400   9.489  11.276   5.639 -0.1420  0.0544 -0.0545
 1049YOPC   GL114401   9.308  11.270   6.016 -0.0379 -0.2733 -0.0920
 1049YOPC   GL214402   9.565  11.093   6.299 -0.1358  0.2472  0.1707
 1049YOPC   C1A14403   9.224  11.630   6.352 -0.2192  0.2502 -0.2707
 1049YOPC   D2A14404   9.070  11.605   6.766 -0.0863 -0.2897  0.2244
 1049YOPC   C3A14405   8.984  11.668   7.186  0.1049  0.0296  0.2156
 1049YOPC   C4A14406   9.092  11.763   7.647  0.0734  0.0048 -0.0181
 1049YOPC   C1B14407   9.433  11.297   6.778  0.0104  0.3691  0.2448
 1049YOPC   C2B14408   9.401  11.322   7.079 -0.1279  0.4518 -0.2244
 1049YOPC   D3B14409   9.519  11.475   7.401  0.1558  0.0060 -0.0228
 1049YOPC   C4B14410   9.546  11.298   7.818  0.2460  0.2649  0.2785
 1050YOPC   NC314411  14.392   1.273   5.777  0.0314  0.2181  0.0164
 1050YOPC   PO414412  14.351   1.142   6.225 -0.1283  0.1747  0.3933
 1050YOPC   GL114413  14.414   0.894   6.516  0.0051  0.1126 -0.1969
 1050YOPC   GL214414  14.373   0.542   6.587 -0.2707  0.2666  0.1486
 1050YOPC   C1A14415  14.406   1.090   6.954 -0.2575 -0.1756  0.0328
 1050YOPC   D2A14416  14.355   1.019   7.438 -0.0242 -0.0975  0.2008
 1050YOPC   C3A14417  14.095   1.206   7.691 -0.0404 -0.0057 -0.0310
 1050YOPC   C4A14418  13.839   1.287   8.104  0.0570 -0.0228 -0.0157
 1050YOPC   C1B14419  14.363   0.613   7.065 -0.1092  0.2155 -0.0997
 1050YOPC   C2B14420  14.468   0.485   7.445 -0.0885 -0.0216  0.1416
 1050YOPC   D3B14421  14.194   0.597   7.709 -0.2229  0.0003  0.1780
 1050YOPC   C4B14422  13.835   0.344   7.728  0.1597 -0.0694  0.1266
 1051YOPC   NC314423   0.273  12.214   6.003 -0.1439  0.0046  0.1061
 1051YOPC   PO414424   0.748  12.216   6.100  0.1438 -0.0346  0.0126
 1051YOPC   GL114425   0.826  12.486   6.453 -0.1888  0.0211  0.3585
 1051YOPC   GL214426   1.133  12.292   6.680  0.1001 -0.0048  0.0283
 1051YOPC   C1A14427   0.617  12.482   6.828 -0.0232 -0.1660 -0.2015
 1051YOPC   D2A14428   0.536  12.418   7.213 -0.0798 -0.2145  0.2133
 1051YOPC   C3A14429   0.210  12.330   7.406  0.0872  0.1100 -0.1536
 1051YOPC   C4A14430  -0.040  12.094   7.709 -0.0157  0.2844  0.1295
 1051YOPC   C1B14431   1.137  12.364   6.990  0.0516  0.2261  0.0219
 1051YOPC   C2B14432   1.069  12.622   7.232 -0.1574  0.0912 -0.2863
 1051YOPC   D3B14433   0.866  12.461   7.583  0.0577  0.0122 -0.0774
 1051YOPC   C4B14434   0.783  12.399   8.012  0.0999 -0.3697 -0.0573
 1052YOPC   NC314435  17.449   0.496   5.923 -0.0042 -0.1075 -0.2712
 1052YOPC   PO414436  17.220   0.753   6.030 -0.1320  0.1394 -0.0907
 1052YOPC   GL114437  17.111   0.981   6.323 -0.0000 -0.1386 -0.0410
 1052YOPC   GL214438  16.746   1.228   6.371 -0.0312 -0.0660  0.2790
 1052YOPC   C1A14439  17.186   1.389   6.616  0.3189  0.1805 -0.2261
 1052YOPC   D2A14440  17.094   1.691   6.857  0.1197 -0.2629 -0.2163
 1052YOPC   C3A14441  17.524   1.912   6.921  0.1579 -0.1682  0.5061
 1052YOPC   C4A14442  17.916   1.949   6.653 -0.2011  0.0520 -0.3307
 1052YOPC   C1B14443  16.946   0.953   6.798  0.0838 -0.0575  0.0052
 1052YOPC   C2B14444  16.647   0.834   7.200 -0.1784  0.1417  0.4357
 1052YOPC   D3B14445  16.396   0.526   7.224 -0.1460  0.1974  0.0918
 1052YOPC   C4B14446  16.150   0.378   7.546  0.2567 -0.3995  0.1139
 1053YOPC   NC314447  14.774  12.923   5.954 -0.3383 -0.0383 -0.0573
 1053YOPC   PO414448  14.417  13.143   6.300 -0.1544 -0.1731 -0.0677
 1053YOPC   GL114449  14.269  12.948   6.746 -0.2782  0.0521 -0.3501
 1053YOPC   GL214450  13.923  12.741   6.871  0.0894  0.2380 -0.1518
 1053YOPC   C1A14451  14.235  12.898   7.277  0.2508 -0.0068  0.1060
 1053YOPC   D2A14452  14.070  12.922   7.727 -0.1654 -0.1593 -0.0163
 1053YOPC   C3A14453  14.190  13.344   7.975 -0.0623 -0.1581  0.1694
 1053YOPC   C4A14454  14.505  13.486   8.228  0.0464 -0.0788  0.1721
 1053YOPC   C1B14455  13.756  12.890   7.221  0.2024 -0.1160  0.1656
 1053YOPC   C2B14456  13.600  13.124   7.477 -0.0442 -0.0906 -0.3047
 1053YOPC   D3B14457  13.687  13.166   7.910 -0.2378  0.0855  0.3138
 1053YOPC   C4B14458  13.837  13.250   8.398  0.0675 -0.2310 -0.0219
 1054YOPC   NC314459   7.116   5.523   5.791  0.2267  0.0323  0.0270
 1054YOPC   PO414460   7.000   5.359   6.147  0.0711 -0.0265  0.2881
 1054YOPC   GL114461   7.169   5.182   6.499  0.2434  0.0586  0.0990
 1054YOPC   GL214462   7.362   4.870   6.511 -0.3472 -0.1846 -0.0338
 1054YOPC   C1A14463   7.061   5.116   6.995 -0.2667 -0.0033 -0.1343
 1054YOPC   D2A14464   6.980   5.014   7.362  0.0787 -0.1319 -0.4659
 1054YOPC   C3A14465   7.090   5.355   7.622 -0.0664  0.0572 -0.2569
 1054YOPC   C4A14466   7.166   5.690   7.927  0.1588 -0.2315 -0.0034
 1054YOPC   C1B14467   7.256   4.685   6.827  0.0790  0.0165 -0.1970
 1054YOPC   C2B14468   7.436   4.460   7.060 -0.0886 -0.1860  0.1859
 1054YOPC   D3B14469   7.303   4.557   7.422  0.1545 -0.3026  0.1923
 1054YOPC   C4B14470   7.175   4.724   7.781 -0.0975 -0.0616  0.1885
 1055YOPC   NC314471   4.979   6.239   5.647 -0.1647 -0.1415  0.2933
 1055YOPC   PO414472   5.231   6.626   5.640  0.0966 -0.0981  0.1343
 1055YOPC   GL114473   5.279   6.613   6.024 -0.0244  0.1955  0.0334
 1055YOPC   GL214474   4.933   6.457   6.108 -0.4065  0.1708  0.2195
 1055YOPC   C1A14475   5.455   6.516   6.431  0.1130 -0.3143  0.1820
 1055YOPC   D2A14476   5.312   6.564   6.828  0.0469  0.0432 -0.4304
 1055YOPC   C3A14477   5.355   6.475   7.270 -0.1715 -0.0815  0.1098
 1055YOPC   C4A14478   5.821   6.558   7.401 -0.1214  0.2406 -0.0604
 1055YOPC   C1B14479   4.932   6.364   6.564  0.4648  0.0950  0.1007
 1055YOPC   C2B14480   4.892   6.439   7.022  0.2735 -0.2211  0.1304
 1055YOPC   D3B14481   4.836   6.147   7.323  0.2304  0.0492  0.0670
 1055YOPC   C4B14482   4.773   5.934   7.720  0.4026  0.1775 -0.2243
 1056YOPC   NC314483  17.877   3.769   5.525  0.0709 -0.0973  0.3674
 1056YOPC   PO414484  17.993   4.262   5.454  0.1713  0.1914 -0.1951
 1056YOPC   GL114485  18.045   4.298   5.900  0.2339 -0.1862 -0.4506
 1056YOPC   GL214486  18.278   4.397   5.964 -0.1347  0.1407  0.0304
 1056YOPC   C1A14487  18.096   4.110   6.307  0.0331 -0.2052 -0.2058
 1056YOPC   D2A14488  18.045   3.987   6.698  0.0370 -0.0365 -0.1739
 1056YOPC   C3A14489  17.703   4.197   7.062 -0.0860 -0.0305  0.0390
 1056YOPC   C4A14490  17.539   4.461   7.339  0.0719 -0.2097 -0.3228
 1056YOPC   C1B14491  18.012   4.804   6.097 -0.0162 -0.2084  0.0514
 1056YOPC   C2B14492  17.624   4.769   6.174  0.1413  0.1301  0.2212
 1056YOPC   D3B14493  17.589   4.836   6.600 -0.0310 -0.0666 -0.0853
 1056YOPC   C4B14494  17.814   4.765   7.047 -0.1282  0.1910  0.1101
 1057YOPC   NC314495   5.132   4.925   5.676 -0.0631  0.1090  0.0190
 1057YOPC   PO414496   5.327   5.284   5.795 -0.1986  0.1828  0.3059
 1057YOPC   GL114497   5.240   5.407   6.114  0.4360 -0.0356 -0.0195
 1057YOPC   GL214498   4.978   5.517   6.146  0.0417  0.3257 -0.1466
 1057YOPC   C1A14499   5.536   5.556   6.444  0.2313 -0.1036  0.2996
 1057YOPC   D2A14500   5.735   5.718   6.692  0.3089 -0.3568 -0.2473
 1057YOPC   C3A14501   5.759   5.665   7.124 -0.0089  0.0391  0.3041
 1057YOPC   C4A14502   5.678   6.050   7.361 -0.0278 -0.1263  0.0399
 1057YOPC   C1B14503   4.884   5.596   6.555 -0.2108  0.1253 -0.0903
 1057YOPC   C2B14504   4.803   5.353   6.895  0.2790  0.1772  0.1172
 1057YOPC   D3B14505   4.431   5.297   7.159 -0.1623 -0.0944  0.0000
 1057YOPC   C4B14506   4.311   4.955   7.455 -0.2152 -0.3644 -0.2206
 1058YOPC   NC314507   3.500  17.499   5.848 -0.0707  0.0428 -0.0231
 1058YOPC   PO414508   3.685  17.103   5.893  0.2717 -0.0879 -0.3954
 1058YOPC   GL114509   3.630  17.370   6.349  0.0659  0.1687 -0.0098
 1058YOPC   GL214510   3.708  17.026   6.543  0.1322  0.3380 -0.1749
 1058YOPC   C1A14511   3.648  17.562   6.808  0.1562 -0.1569  0.0043
 1058YOPC   D2A14512   3.738  17.557   7.180  0.0058  0.1700  0.0024
 1058YOPC   C3A14513   3.466  17.685   7.403 -0.0005 -0.1442 -0.0890
 1058YOPC   C4A14514   3.177  17.818   7.344 -0.2383  0.1292  0.1165
 1058YOPC   C1B14515   3.596  17.116   6.941 -0.0986 -0.3120  0.2096
 1058YOPC   C2B14516   3.482  16.903   7.344 -0.1084 -0.2244 -0.1243
 1058YOPC   D3B14517   3.832  16.839   7.676  0.2812  0.0866 -0.1724
 1058YOPC   C4B14518   3.943  17.165   8.035 -0.1337  0.0175  0.2703
 1059YOPC   NC314519  16.167   2.671   5.568  0.0112  0.1143 -0.0901
 1059YOPC   PO414520  16.061   3.121   5.807 -0.2425  0.0792 -0.0759
 1059YOPC   GL114521  16.210   3.435   6.190  0.0828 -0.0433  0.1983
 1059YOPC   GL214522  15.983   3.717   6.139  0.4116  0.0855  0.0374
 1059YOPC   C1A14523  16.071   3.397   6.615 -0.1509  0.0696  0.2454
 1059YOPC   D2A14524  16.072   3.405   7.026  0.2508  0.0288 -0.2894
 1059YOPC   C3A14525  16.349   3.670   7.268 -0.1987  0.0383  0.1428
 1059YOPC   C4A14526  16.522   3.920   7.531 -0.2321 -0.1055 -0.0476
 1059YOPC   C1B14527  16.364   3.947   6.239  0.0190 -0.0720  0.1750
 1059YOPC   C2B14528  16.602   4.177   6.568  0.0067  0.0770 -0.0032
 1059YOPC   D3B14529  16.970   4.169   6.775  0.0431 -0.0178 -0.0261
 1059YOPC   C4B14530  17.166   4.148   7.151  0.2193  0.0070  0.0357
 1060YOPC   NC314531   4.425   3.253   6.055 -0.1295  0.3678  0.2042
 1060YOPC   PO414532   4.285   3.707   5.936 -0.3030 -0.1525  0.2930
 1060YOPC   GL114533   4.452   3.748   6.393 -0.0436 -0.0561  0.2806
 1060YOPC   GL214534   4.732   3.904   6.420 -0.1979 -0.1894 -0.0942
 1060YOPC   C1A14535   4.307   3.685   6.821  0.0255  0.0056 -0.0661
 1060YOPC   D2A14536   4.090   3.788   7.186 -0.1848  0.0615 -0.1009
 1060YOPC   C3A14537   4.087   3.459   7.608 -0.0618 -0.1091  0.0284
 1060YOPC   C4A14538   3.871   3.258   7.965 -0.3683 -0.2999  0.0426
 1060YOPC   C1B14539   4.800   3.835   6.875 -0.1704 -0.0342  0.2201
 1060YOPC   C2B14540   5.172   3.627   7.032 -0.2818  0.1672  0.0600
 1060YOPC   D3B14541   5.153   3.565   7.461 -0.0764 -0.0567  0.1234
 1060YOPC   C4B14542   4.927   3.549   7.690 -0.3389 -0.1127 -0.0037
 1061YOPC   NC314543   1.152  17.779   6.092  0.3236  0.1137 -0.0269
 1061YOPC   PO414544   1.438  17.464   6.008 -0.2674  0.3120 -0.1147
 1061YOPC   GL114545   1.201  17.378   6.388 -0.5785  0.2394 -0.5085
 1061YOPC   GL214546   0.859  17.489   6.539  0.3663 -0.1897  0.0549
 1061YOPC   C1A14547   1.157  17.162   6.792 -0.0543 -0.2381 -0.0818
 1061YOPC   D2A14548   1.000  17.144   7.166 -0.3792  0.0590  0.1845
 1061YOPC   C3A14549   1.207  17.159   7.602 -0.1250  0.1400 -0.0576
 1061YOPC   C4A14550   1.104  17.443   7.860 -0.0092  0.0174 -0.0036
 1061YOPC   C1B14551   0.668  17.473   6.938  0.3249  0.2599  0.0150
 1061YOPC   C2B14552   0.430  17.265   7.214 -0.0289 -0.0924  0.1945
 1061YOPC   D3B14553   0.194  17.203   7.479 -0.2150 -0.0127 -0.1996
 1061YOPC   C4B14554   0.024  17.364   7.849  0.0683 -0.2473  0.0811
 1062YOPC   NC314555   7.314   7.198   5.867 -0.3109 -0.1282 -0.1739
 1062YOPC   PO414556   6.977   7.250   5.964 -0.0472 -0.2738  0.1818
 1062YOPC   GL114557   6.786   7.456   6.260  0.0223  0.2927 -0.0551
 1062YOPC   GL214558   6.413   7.354   6.320 -0.0233  0.2467 -0.4609
 1062YOPC   C1A14559   6.905   7.322   6.734 -0.0949  0.1034 -0.0053
 1062YOPC   D2A14560   6.663   7.462   7.000 -0.1594 -0.1123 -0.2500
 1062YOPC   C3A14561   6.376   7.376   7.292  0.0720  0.3509 -0.1097
 1062YOPC   C4A14562   6.365   7.559   7.714 -0.0879  0.0228 -0.0393
 1062YOPC   C1B14563   6.161   7.051   6.333  0.2177 -0.0343 -0.1342
 1062YOPC   C2B14564   5.771   6.883   6.421  0.0557  0.0598 -0.1173
 1062YOPC   D3B14565   5.307   7.092   6.551  0.0734  0.1089 -0.0813
 1062YOPC   C4B14566   4.948   7.490   6.531  0.1928  0.2054  0.1827
 1063YOPC   NC314567  14.595   5.817   5.261  0.3802  0.2297 -0.1464
 1063YOPC   PO414568  14.448   5.829   5.776 -0.2171 -0.0134  0.0226
 1063YOPC   GL114569  14.560   5.756   6.310 -0.0297 -0.0532  0.3544
 1063YOPC   GL214570  14.539   5.535   6.506  0.1032  0.3339 -0.1606
 1063YOPC   C1A14571  14.454   5.932   6.803  0.0134  0.0208 -0.2522
 1063YOPC   D2A14572  14.563   6.167   7.019  0.0423  0.0913 -0.2806
 1063YOPC   C3A14573  14.598   6.150   7.579  0.2700 -0.0717 -0.0417
 1063YOPC   C4A14574  14.561   6.225   8.033 -0.1186 -0.1302  0.0871
 1063YOPC   C1B14575  14.457   5.514   6.990  0.0759  0.0334 -0.2156
 1063YOPC   C2B14576  14.312   5.325   7.456 -0.0346 -0.4084 -0.2637
 1063YOPC   D3B14577  13.955   5.411   7.810 -0.0193  0.1158  0.2507
 1063YOPC   C4B14578  13.629   5.494   8.020  0.1008 -0.4100 -0.0535
 1064YOPC   NC314579  17.469  17.137   5.965  0.1889  0.0151 -0.1518
 1064YOPC   PO414580  17.827  17.342   6.223  0.2108  0.0564  0.1389
 1064YOPC   GL114581  17.614  17.301   6.642 -0.1560 -0.1464 -0.1122
 1064YOPC   GL214582  17.414  17.106   6.504  0.1692  0.1422  0.0786
 1064YOPC   C1A14583  17.608  17.054   7.064  0.1712  0.2074  0.1727
 1064YOPC   D2A14584  17.657  17.206   7.519  0.1306  0.0848  0.0370
 1064YOPC   C3A14585  17.866  16.908   7.833 -0.0371 -0.0748 -0.0060
 1064YOPC   C4A14586  18.108  16.705   8.234 -0.4844 -0.2587  0.4078
 1064YOPC   C1B14587  17.200  16.928   6.863  0.0486  0.0473  0.4561
 1064YOPC   C2B14588  17.179  16.979   7.293 -0.3312  0.0366  0.1629
 1064YOPC   D3B14589  17.245  17.448   7.378 -0.2896  0.1398 -0.2341
 1064YOPC   C4B14590  17.212  17.887   7.582 -0.2637  0.0986 -0.1471
 1065YOPC   NC314591  10.095  16.501   5.740 -0.0702 -0.1656  0.1261
 1065YOPC   PO414592  10.079  16.547   6.134  0.0057  0.2969  0.0704
 1065YOPC   GL114593  10.285  16.441   6.468 -0.1366 -0.1178 -0.3339
 1065YOPC   GL214594  10.148  16.230   6.682  0.0797  0.3556 -0.1630
 1065YOPC   C1A14595  10.580  16.300   6.837 -0.1488  0.0473  0.0728
 1065YOPC   D2A14596  10.941  16.172   7.130  0.0693 -0.0538  0.0930
 1065YOPC   C3A14597  10.927  16.253   7.593 -0.0243 -0.1365 -0.1322
 1065YOPC   C4A14598  10.970  16.473   7.987 -0.2723  0.1501 -0.2898
 1065YOPC   C1B14599  10.156  16.218   7.182 -0.2087 -0.3120 -0.0380
 1065YOPC   C2B14600  10.053  16.285   7.591  0.0153  0.3249  0.3730
 1065YOPC   D3B14601   9.779  16.439   7.901 -0.0493 -0.3245 -0.1380
 1065YOPC   C4B14602   9.759  16.733   8.215  0.0228  0.1409  0.0350
 1066YOPC   NC314603   6.533  13.823   5.673  0.1627 -0.0399  0.2326
 1066YOPC   PO414604   6.603  13.997   5.976  0.1990 -0.1944  0.0941
 1066YOPC   GL114605   6.716  13.838   6.331  0.1389  0.0649  0.1765
 1066YOPC   GL214606   6.982  14.034   6.562 -0.1297 -0.1546  0.0084
 1066YOPC   C1A14607   6.694  13.631   6.804  0.1108  0.1570  0.2249
 1066YOPC   D2A14608   6.478  13.707   7.182 -0.2394 -0.0212  0.2898
 1066YOPC   C3A14609   6.023  13.443   7.201  0.0292  0.4985 -0.0199
 1066YOPC   C4A14610   5.683  13.741   7.400 -0.0377  0.1999 -0.0643
 1066YOPC   C1B14611   6.921  14.071   6.977  0.0310 -0.0716 -0.0469
 1066YOPC   C2B14612   6.630  14.306   7.116 -0.0695 -0.1681 -0.1714
 1066YOPC   D3B14613   6.632  14.722   6.930  0.0410  0.1250  0.0824
 1066YOPC   C4B14614   6.517  14.968   6.739 -0.1221 -0.2464 -0.0421
 1067YOPC   NC314615   7.743  15.664   5.917 -0.2182 -0.0412 -0.0530
 1067YOPC   PO414616   7.399  15.604   6.221 -0.0179  0.0617  0.2282
 1067YOPC   GL114617   7.279  15.491   6.644  0.1792 -0.2371 -0.0209
 1067YOPC   GL214618   7.510  15.590   6.785 -0.3492 -0.1850  0.0136
 1067YOPC   C1A14619   7.162  15.550   7.115  0.1357  0.0783  0.0103
 1067YOPC   D2A14620   7.118  15.720   7.418 -0.0540 -0.0492  0.1397
 1067YOPC   C3A14621   6.746  15.707   7.738 -0.2819  0.1705 -0.1839
 1067YOPC   C4A14622   6.779  15.879   8.125 -0.1981  0.1460  0.1521
 1067YOPC   C1B14623   7.599  15.745   7.273  0.0258  0.2734  0.2731
 1067YOPC   C2B14624   7.516  15.802   7.750 -0.0452 -0.1298 -0.2100
 1067YOPC   D3B14625   7.189  15.661   8.040 -0.1160  0.1030  0.1335
 1067YOPC   C4B14626   6.748  15.359   8.269 -0.0362  0.2147 -0.0457
 1068YOPC   NC314627   5.238   8.079   5.642  0.0923  0.0848 -0.3138
 1068YOPC   PO414628   4.877   7.881   5.522  0.1556  0.1352 -0.1102
 1068YOPC   GL114629   5.008   7.609   5.848  0.1994 -0.2469 -0.3549
 1068YOPC   GL214630   4.762   7.476   5.961 -0.0433  0.2272 -0.0118
 1068YOPC   C1A14631   5.349   7.548   6.156  0.2265  0.1034  0.2662
 1068YOPC   D2A14632   5.529   7.522   6.511 -0.4023 -0.1166 -0.2740
 1068YOPC   C3A14633   5.858   7.350   6.605 -0.0149  0.0101 -0.0087
 1068YOPC   C4A14634   6.263   7.527   6.755  0.0396 -0.1953  0.0714
 1068YOPC   C1B14635   4.485   7.666   6.229 -0.0512  0.0149  0.1111
 1068YOPC   C2B14636   4.127   7.563   6.429 -0.0646  0.2601 -0.0218
 1068YOPC   D3B14637   3.959   7.355   6.758 -0.3069 -0.2909  0.1613
 1068YOPC   C4B14638   3.782   7.028   7.007 -0.0701 -0.0977  0.1236
 1069YOPC   NC314639   7.850  14.707   6.316 -0.1032 -0.1303 -0.0741
 1069YOPC   PO414640   8.236  14.789   6.456  0.0185  0.1678  0.2293
 1069YOPC   GL114641   8.227  14.884   6.822 -0.2589 -0.0503 -0.2788
 1069YOPC   GL214642   8.421  15.154   7.021  0.3141 -0.1863 -0.0035
 1069YOPC   C1A14643   7.999  14.824   7.154 -0.0461  0.1668 -0.2138
 1069YOPC   D2A14644   7.872  14.456   7.380  0.0898 -0.1152 -0.1804
 1069YOPC   C3A14645   7.687  14.093   7.274 -0.2583 -0.1504 -0.3041
 1069YOPC   C4A14646   7.421  14.101   6.888 -0.0820 -0.2105  0.1249
 1069YOPC   C1B14647   8.282  15.195   7.400  0.2050 -0.0716 -0.3065
 1069YOPC   C2B14648   8.116  15.180   7.754 -0.4250  0.0905 -0.0765
 1069YOPC   D3B14649   8.328  15.337   8.030 -0.3114 -0.0713  0.0288
 1069YOPC   C4B14650   8.521  15.233   8.356  0.1153 -0.1227 -0.3982
 1070YOPC   NC314651  11.480   1.445   6.039  0.0337  0.0907  0.0686
 1070YOPC   PO414652  11.743   1.201   6.249  0.0476  0.2420 -0.1430
 1070YOPC   GL114653  11.845   1.006   6.663 -0.0702  0.0171  0.0517
 1070YOPC   GL214654  12.171   0.937   6.634 -0.1015  0.1478  0.0459
 1070YOPC   C1A14655  11.641   1.224   7.006 -0.3199  0.2056 -0.2509
 1070YOPC   D2A14656  11.734   1.302   7.463  0.0810 -0.0968  0.1306
 1070YOPC   C3A14657  11.556   1.411   7.857  0.4106 -0.0284 -0.1360
 1070YOPC   C4A14658  11.519   1.793   8.162  0.0791  0.3620  0.1574
 1070YOPC   C1B14659  12.388   0.773   7.038  0.0831  0.0090  0.1629
 1070YOPC   C2B14660  12.186   0.582   7.416  0.0620  0.0311  0.0901
 1070YOPC   D3B14661  12.305   0.648   7.852 -0.5220  0.0934  0.2066
 1070YOPC   C4B14662  12.474   0.844   8.280 -0.1015  0.2850  0.2055
 1071YOPC   NC314663  13.288   7.841   5.746 -0.1490  0.1046 -0.2419
 1071YOPC   PO414664  13.177   7.575   6.074  0.2813 -0.1426 -0.1539
 1071YOPC   GL114665  13.014   7.472   6.531 -0.0041  0.2203  0.1068
 1071YOPC   GL214666  12.896   7.709   6.786  0.0445  0.0319 -0.0034
 1071YOPC   C1A14667  13.230   7.299   6.847 -0.1450 -0.0111  0.3441
 1071YOPC   D2A14668  13.521   7.285   7.212 -0.2689 -0.0263 -0.0453
 1071YOPC   C3A14669  13.530   7.239   7.635  0.2638 -0.2407 -0.1580
 1071YOPC   C4A14670  13.326   7.399   8.007 -0.1917 -0.1053  0.1097
 1071YOPC   C1B14671  13.155   7.987   6.715  0.0134  0.1491 -0.0029
 1071YOPC   C2B14672  13.425   8.238   6.993  0.1381 -0.1688  0.1658
 1071YOPC   D3B14673  13.458   8.166   7.401  0.1683 -0.1684  0.0978
 1071YOPC   C4B14674  13.675   7.755   7.516  0.1517  0.0503  0.0904
 1072YOPC   NC314675  12.909  14.905   6.286 -0.1846 -0.0556  0.1110
 1072YOPC   PO414676  12.999  15.372   6.313  0.0345  0.1356 -0.0006
 1072YOPC   GL114677  13.046  15.271   6.664 -0.3279  0.1224 -0.0623
 1072YOPC   GL214678  13.213  14.988   6.637 -0.0525 -0.2567 -0.0681
 1072YOPC   C1A14679  13.064  15.346   7.070  0.3755  0.1716 -0.0234
 1072YOPC   D2A14680  12.965  15.547   7.399 -0.0478 -0.0206  0.0071
 1072YOPC   C3A14681  12.764  15.351   7.700 -0.2588  0.2235  0.1177
 1072YOPC   C4A14682  12.457  15.250   8.028 -0.0226  0.1642 -0.3133
 1072YOPC   C1B14683  13.427  14.824   7.039 -0.0847  0.1178  0.0466
 1072YOPC   C2B14684  13.335  14.499   7.240 -0.2593 -0.0265  0.3128
 1072YOPC   D3B14685  13.206  14.506   7.637 -0.1068  0.1656  0.3514
 1072YOPC   C4B14686  13.088  14.797   7.914  0.0736 -0.1589 -0.0290
 1073YOPC   NC314687  14.394  14.547   6.392  0.0600 -0.2959 -0.0841
 1073YOPC   PO414688  14.549  14.032   6.496  0.0343  0.1982 -0.0680
 1073YOPC   GL114689  14.671  14.291   6.760  0.0019  0.2117  0.1382
 1073YOPC   GL214690  14.820  14.639   6.696 -0.0783 -0.0602 -0.1197
 1073YOPC   C1A14691  14.874  14.214   7.213 -0.1876 -0.1136  0.1976
 1073YOPC   D2A14692  14.718  13.911   7.521  0.2120 -0.0279 -0.0151
 1073YOPC   C3A14693  14.788  13.924   8.012  0.2626 -0.0586 -0.1574
 1073YOPC   C4A14694  14.484  13.999   8.417 -0.2221  0.1859 -0.1834
 1073YOPC   C1B14695  15.002  14.683   7.074 -0.0360  0.1292 -0.0038
 1073YOPC   C2B14696  15.063  14.618   7.538  0.0841 -0.0133 -0.0341
 1073YOPC   D3B14697  15.134  14.209   7.684  0.0331 -0.0516  0.0741
 1073YOPC   C4B14698  15.194  13.884   7.385  0.0862  0.0850  0.2932
 1074YOPC   NC314699   9.640   3.100   6.494 -0.2179  0.1695 -0.0682
 1074YOPC   PO414700   9.259   2.986   6.270  0.0711 -0.0179 -0.1580
 1074YOPC   GL114701   9.198   3.116   6.775 -0.1036 -0.2867 -0.0672
 1074YOPC   GL214702   9.276   3.328   6.984 -0.0088  0.1919  0.0724
 1074YOPC   C1A14703   9.046   2.734   7.015  0.0970 -0.1246  0.2695
 1074YOPC   D2A14704   9.115   2.563   7.345 -0.0107  0.3112  0.1716
 1074YOPC   C3A14705   8.969   2.612   7.653 -0.2341  0.2029 -0.1804
 1074YOPC   C4A14706   8.611   2.625   7.890  0.2307  0.0659 -0.0152
 1074YOPC   C1B14707   9.253   3.168   7.350 -0.0337  0.1367  0.0056
 1074YOPC   C2B14708   9.367   3.210   7.824  0.1884 -0.1686  0.0770
 1074YOPC   D3B14709   9.247   3.710   8.039  0.0190  0.0276  0.0757
 1074YOPC   C4B14710   9.189   3.924   8.387  0.3084 -0.2975  0.2978
 1075YOPC   NC314711   5.955  15.903   5.934 -0.1347  0.2293 -0.2370
 1075YOPC   PO414712   6.212  16.288   6.119  0.0579 -0.3705  0.0777
 1075YOPC   GL114713   6.144  16.054   6.499  0.1791 -0.1065  0.2306
 1075YOPC   GL214714   6.441  15.864   6.517  0.2001 -0.1621 -0.1596
 1075YOPC   C1A14715   5.946  16.271   6.879  0.5232 -0.3278  0.1564
 1075YOPC   D2A14716   5.668  16.259   7.209  0.1572  0.2444  0.2804
 1075YOPC   C3A14717   5.206  16.195   7.294  0.1757 -0.0915  0.0402
 1075YOPC   C4A14718   4.962  15.780   7.500 -0.2415 -0.1540 -0.0328
 1075YOPC   C1B14719   6.283  15.686   6.867 -0.2165  0.0680 -0.1653
 1075YOPC   C2B14720   5.970  15.783   7.138 -0.1059 -0.0070  0.0420
 1075YOPC   D3B14721   6.056  15.985   7.509 -0.1454  0.0428 -0.2252
 1075YOPC   C4B14722   6.122  15.880   7.853 -0.1456  0.0339 -0.2006
 1076YOPC   NC314723   9.243   4.074   5.838  0.1454 -0.2784 -0.0805
 1076YOPC   PO414724   9.104   3.950   6.296  0.0015  0.0346 -0.0450
 1076YOPC   GL114725   8.921   4.000   6.683  0.0042 -0.0964  0.1709
 1076YOPC   GL214726   8.914   3.666   6.848  0.1190 -0.0846 -0.1831
 1076YOPC   C1A14727   8.810   4.114   7.098 -0.1368  0.0227 -0.2657
 1076YOPC   D2A14728   8.410   4.361   7.419  0.1636  0.1111  0.0886
 1076YOPC   C3A14729   8.717   4.448   7.721  0.0990  0.0410 -0.2232
 1076YOPC   C4A14730   8.904   4.558   8.152  0.5285 -0.1624  0.1337
 1076YOPC   C1B14731   8.968   3.617   7.288 -0.1139 -0.1080 -0.1662
 1076YOPC   C2B14732   8.990   3.505   7.654  0.1472 -0.1785  0.0242
 1076YOPC   D3B14733   8.781   3.513   7.975  0.1885 -0.0050 -0.2204
 1076YOPC   C4B14734   8.482   3.355   8.320  0.0907 -0.0663  0.0311
 1077YOPC   NC314735  17.450   0.062   6.235  0.2681  0.3221  0.0675
 1077YOPC   PO414736  17.786   0.145   6.065 -0.2717  0.1932  0.0925
 1077YOPC   GL114737  17.769   0.422   6.458 -0.1191 -0.0976 -0.2767
 1077YOPC   GL214738  17.665   0.800   6.368  0.0670  0.1905  0.3439
 1077YOPC   C1A14739  17.819   0.595   6.851 -0.0869  0.1489  0.1744
 1077YOPC   D2A14740  17.938   0.629   7.308  0.1106 -0.0898 -0.2566
 1077YOPC   C3A14741  17.606   0.687   7.664 -0.1334  0.2881  0.1286
 1077YOPC   C4A14742  17.922   0.610   8.086 -0.1511 -0.0454  0.1597
 1077YOPC   C1B14743  17.480   0.960   6.680 -0.1361  0.0839  0.1730
 1077YOPC   C2B14744  17.471   0.903   7.083  0.1575 -0.0127  0.1033
 1077YOPC   D3B14745  17.247   0.815   7.395 -0.2023 -0.0394  0.1853
 1077YOPC   C4B14746  16.906   0.917   7.590 -0.1188  0.2287  0.2127
 1078YOPC   NC314747   8.884  15.487   6.463 -0.0647  0.1469 -0.0517
 1078YOPC   PO414748   9.226  15.227   6.536  0.1689 -0.1695 -0.4522
 1078YOPC   GL114749   9.014  15.250   6.972 -0.0651 -0.2167 -0.0986
 1078YOPC   GL214750   9.051  14.942   7.014 -0.0127  0.0130  0.3797
 1078YOPC   C1A14751   9.058  15.344   7.379  0.2426  0.0756  0.1065
 1078YOPC   D2A14752   9.190  15.151   7.745 -0.2159  0.4534  0.1900
 1078YOPC   C3A14753   9.390  15.238   8.126 -0.2793  0.2091  0.3899
 1078YOPC   C4A14754   9.560  15.206   8.556  0.2412  0.1213  0.2239
 1078YOPC   C1B14755   8.877  14.871   7.426  0.0286  0.1829  0.5338
 1078YOPC   C2B14756   8.679  15.039   7.710 -0.0690 -0.0634 -0.0695
 1078YOPC   D3B14757   8.467  14.846   8.044  0.2938  0.0007 -0.2113
 1078YOPC   C4B14758   8.594  14.510   8.274 -0.0628 -0.3744  0.1449
 1079YOPC   NC314759  11.875   5.951   6.419 -0.1036  0.3509 -0.0809
 1079YOPC   PO414760  11.721   6.388   6.455  0.1579 -0.0530 -0.1684
 1079YOPC   GL114761  12.024   6.390   6.768  0.0887 -0.1555  0.1392
 1079YOPC   GL214762  11.937   6.102   6.904  0.0693 -0.1193 -0.0005
 1079YOPC   C1A14763  12.401   6.337   7.002  0.3313  0.1082 -0.1731
 1079YOPC   D2A14764  12.551   6.077   7.308  0.0006  0.2509  0.2286
 1079YOPC   C3A14765  12.613   6.229   7.631  0.1163 -0.0325  0.2655
 1079YOPC   C4A14766  12.995   6.482   7.832  0.0052 -0.0262  0.2642
 1079YOPC   C1B14767  12.070   6.053   7.314  0.1657  0.0310 -0.1557
 1079YOPC   C2B14768  12.135   5.974   7.693  0.1505 -0.0328 -0.0924
 1079YOPC   D3B14769  12.381   5.749   7.972 -0.1142 -0.0773 -0.2881
 1079YOPC   C4B14770  12.389   5.567   8.439  0.1619 -0.1179 -0.1291
 1080YOPC   NC314771  17.231  15.163   5.941  0.3035 -0.2083 -0.2538
 1080YOPC   PO414772  16.902  15.359   6.169 -0.2285  0.1319 -0.0479
 1080YOPC   GL114773  16.866  15.351   6.634  0.1214 -0.0851 -0.2978
 1080YOPC   GL214774  16.925  15.611   6.697 -0.4807  0.0980 -0.2847
 1080YOPC   C1A14775  16.825  15.327   7.146  0.0281  0.4384 -0.1018
 1080YOPC   D2A14776  16.980  15.141   7.512  0.1195 -0.1370 -0.0147
 1080YOPC   C3A14777  16.777  15.328   7.866 -0.2152 -0.1210  0.2269
 1080YOPC   C4A14778  16.539  15.362   8.225  0.0571  0.1280  0.0614
 1080YOPC   C1B14779  16.992  15.777   7.095  0.1942  0.1589  0.2942
 1080YOPC   C2B14780  17.294  15.848   7.494 -0.1917  0.1121  0.0221
 1080YOPC   D3B14781  17.372  15.463   7.730 -0.2444  0.1330  0.0787
 1080YOPC   C4B14782  17.429  14.969   7.739 -0.3416 -0.2480 -0.3662
 1081YOPC   NC314783  13.005   1.063   6.232  0.4297 -0.3114 -0.1015
 1081YOPC   PO414784  12.668   1.262   6.442  0.0966 -0.0096 -0.0457
 1081YOPC   GL114785  12.510   1.266   6.810 -0.3470  0.0563 -0.1013
 1081YOPC   GL214786  12.249   1.235   6.997  0.1699 -0.0126 -0.1354
 1081YOPC   C1A14787  12.681   1.283   7.239  0.1263 -0.0266  0.0007
 1081YOPC   D2A14788  12.547   1.333   7.711  0.2829  0.0718 -0.1191
 1081YOPC   C3A14789  12.825   1.184   8.109  0.1601  0.1889 -0.2308
 1081YOPC   C4A14790  12.682   1.287   8.515  0.4392  0.0135  0.0076
 1081YOPC   C1B14791  12.201   1.183   7.354 -0.0912  0.0033  0.0018
 1081YOPC   C2B14792  12.062   1.131   7.798 -0.2989 -0.0844 -0.0538
 1081YOPC   D3B14793  11.854   1.218   8.183 -0.0487 -0.1356 -0.0459
 1081YOPC   C4B14794  11.694   1.194   8.638 -0.1966 -0.1934  0.4275
 1082YOPC   NC314795  12.423  12.778   6.564  0.0255 -0.0800  0.0558
 1082YOPC   PO414796  12.695  12.470   6.451  0.1304  0.2371 -0.0060
 1082YOPC   GL114797  12.711  12.356   6.837  0.0945 -0.0607 -0.1338
 1082YOPC   GL214798  12.804  12.014   6.916 -0.0318  0.0096 -0.2998
 1082YOPC   C1A14799  12.597  12.305   7.305 -0.0112 -0.0678 -0.0604
 1082YOPC   D2A14800  12.504  12.397   7.716  0.1996 -0.2184 -0.3160
 1082YOPC   C3A14801  12.192  12.682   7.809 -0.1263 -0.0415  0.1044
 1082YOPC   C4A14802  11.905  12.972   8.139  0.1056 -0.1150  0.1462
 1082YOPC   C1B14803  12.877  11.871   7.246  0.4216 -0.2041  0.0389
 1082YOPC   C2B14804  12.883  12.052   7.608  0.1306 -0.0285 -0.0061
 1082YOPC   D3B14805  12.868  11.812   8.100 -0.0425 -0.4180 -0.0943
 1082YOPC   C4B14806  13.211  11.405   8.094 -0.0237 -0.0192  0.0636
 1083YOPC   NC314807   4.876  12.521   5.744  0.0846  0.1694 -0.1449
 1083YOPC   PO414808   4.817  12.927   5.925 -0.1334 -0.0576  0.5086
 1083YOPC   GL114809   5.123  12.627   6.202  0.1293 -0.2468  0.0002
 1083YOPC   GL214810   5.329  12.737   6.368  0.1324  0.3393  0.3334
 1083YOPC   C1A14811   4.977  12.468   6.625 -0.1331 -0.1172 -0.4280
 1083YOPC   D2A14812   4.965  12.112   6.799  0.1662 -0.1227  0.2793
 1083YOPC   C3A14813   4.898  12.073   7.203 -0.0336 -0.0891 -0.2356
 1083YOPC   C4A14814   4.634  12.228   7.478  0.2646 -0.0872 -0.1602
 1083YOPC   C1B14815   5.328  12.799   6.733  0.4496 -0.1830  0.0899
 1083YOPC   C2B14816   5.348  13.049   7.008  0.0897 -0.0564 -0.4299
 1083YOPC   D3B14817   5.596  13.181   7.389  0.0506  0.0259  0.0504
 1083YOPC   C4B14818   5.889  13.302   7.689 -0.1314  0.2452  0.0848
 1084YOPC   NC314819   4.733  14.353   5.759 -0.2381 -0.0252  0.1291
 1084YOPC   PO414820   5.075  14.306   5.829  0.3774  0.0231  0.3042
 1084YOPC   GL114821   5.018  14.345   6.239  0.2173  0.3041  0.0541
 1084YOPC   GL214822   4.678  14.489   6.211  0.0043  0.1126  0.1722
 1084YOPC   C1A14823   4.987  14.375   6.685 -0.4558  0.2767  0.4515
 1084YOPC   D2A14824   4.824  14.432   7.039 -0.1576 -0.2079  0.3024
 1084YOPC   C3A14825   5.032  14.406   7.412 -0.1486 -0.3602 -0.0794
 1084YOPC   C4A14826   5.058  14.652   7.761  0.0038 -0.0165 -0.0523
 1084YOPC   C1B14827   4.472  14.498   6.643  0.3367  0.0610  0.0946
 1084YOPC   C2B14828   4.365  14.328   7.018  0.1165 -0.1152  0.3078
 1084YOPC   D3B14829   4.496  14.590   7.375  0.2522  0.0861  0.2680
 1084YOPC   C4B14830   4.549  14.905   7.639 -0.2169  0.0684  0.1790
 1085YOPC   NC314831  16.030  14.847   5.966 -0.0697  0.1718  0.2121
 1085YOPC   PO414832  16.363  14.606   6.268 -0.2268 -0.1136 -0.0147
 1085YOPC   GL114833  16.472  14.629   6.684 -0.1197 -0.2341  0.1471
 1085YOPC   GL214834  16.689  14.831   6.655  0.0187  0.4663 -0.2838
 1085YOPC   C1A14835  16.181  14.674   6.996 -0.0606  0.1271 -0.0099
 1085YOPC   D2A14836  15.948  14.704   7.394 -0.1173 -0.4912  0.0053
 1085YOPC   C3A14837  16.037  14.632   7.625  0.1421 -0.0931  0.1125
 1085YOPC   C4A14838  15.869  14.456   7.996 -0.1285  0.1162  0.0118
 1085YOPC   C1B14839  16.755  14.792   7.070  0.0108  0.1022 -0.0674
 1085YOPC   C2B14840  16.745  14.747   7.600  0.0908  0.0734 -0.0042
 1085YOPC   D3B14841  16.974  14.877   7.925 -0.0415  0.0286  0.0854
 1085YOPC   C4B14842  17.401  14.724   8.159  0.0799  0.1128  0.1032
 1086YOPC   NC314843  13.502   0.609   5.987  0.0175  0.0149  0.2617
 1086YOPC   PO414844  13.527   0.903   6.299  0.2041  0.0591 -0.1381
 1086YOPC   GL114845  13.694   0.814   6.661  0.0120 -0.2164 -0.0671
 1086YOPC   GL214846  13.970   0.911   6.807 -0.3059 -0.0518  0.1389
 1086YOPC   C1A14847  13.386   0.964   7.119  0.0121  0.0044 -0.0004
 1086YOPC   D2A14848  13.103   1.049   7.397  0.0944  0.1893  0.0238
 1086YOPC   C3A14849  13.015   1.504   7.489  0.2358  0.2173  0.0767
 1086YOPC   C4A14850  12.688   1.748   7.492 -0.1261  0.0220 -0.1947
 1086YOPC   C1B14851  13.950   0.843   7.186 -0.0438  0.3050  0.0263
 1086YOPC   C2B14852  13.656   0.789   7.573  0.0403 -0.0978  0.0875
 1086YOPC   D3B14853  13.792   0.789   7.953 -0.0742 -0.2724 -0.2469
 1086YOPC   C4B14854  13.818   0.697   8.459 -0.2743  0.2561 -0.1325
 1087YOPC   NC314855   4.433   7.059   5.390 -0.0863 -0.2322 -0.2636
 1087YOPC   PO414856   4.720   6.726   5.525  0.2908 -0.1716  0.1427
 1087YOPC   GL114857   4.679   6.966   5.924 -0.0467  0.0108 -0.2585
 1087YOPC   GL214858   4.959   7.090   6.175 -0.0622  0.1400  0.0304
 1087YOPC   C1A14859   4.283   6.864   6.139  0.0546 -0.0700  0.1242
 1087YOPC   D2A14860   4.055   7.010   6.425  0.1457  0.1477 -0.0006
 1087YOPC   C3A14861   4.242   6.871   6.868  0.1744  0.0645 -0.0366
 1087YOPC   C4A14862   4.562   7.009   7.155 -0.1075 -0.1119 -0.0989
 1087YOPC   C1B14863   4.548   7.141   6.469  0.0893  0.0668  0.0664
 1087YOPC   C2B14864   4.549   7.392   6.823 -0.0378  0.3243 -0.1495
 1087YOPC   D3B14865   4.916   7.428   7.004  0.2628 -0.3349  0.2319
 1087YOPC   C4B14866   5.346   7.366   6.947  0.0279 -0.3666 -0.0813
 1088YOPC   NC314867   4.686  17.944   5.416 -0.2671  0.2324  0.1249
 1088YOPC   PO414868   4.746  17.833   5.872  0.1201  0.0951  0.3335
 1088YOPC   GL114869   4.896  17.662   6.232 -0.3343 -0.1322  0.0470
 1088YOPC   GL214870   5.115  17.489   6.294 -0.1603 -0.0852  0.0485
 1088YOPC   C1A14871   4.716  17.528   6.650  0.0148  0.3818  0.3599
 1088YOPC   D2A14872   4.598  17.124   6.766 -0.0199 -0.3350 -0.3649
 1088YOPC   C3A14873   4.865  16.968   7.072 -0.1444  0.1330 -0.1222
 1088YOPC   C4A14874   5.148  16.683   7.267  0.2003 -0.2393  0.2651
 1088YOPC   C1B14875   5.231  17.734   6.688 -0.0043 -0.1728 -0.0990
 1088YOPC   C2B14876   5.219  17.885   7.092 -0.2178  0.3639  0.2552
 1088YOPC   D3B14877   5.225  17.719   7.473  0.1597 -0.1714 -0.2626
 1088YOPC   C4B14878   5.251  17.786   7.913 -0.0437 -0.1213  0.0036
 1089YOPC   NC314879   0.794   4.030   5.388  0.3525 -0.0376  0.3096
 1089YOPC   PO414880   0.492   3.978   5.686 -0.0496 -0.1082  0.1085
 1089YOPC   GL114881   0.629   4.065   6.155  0.0694 -0.2446 -0.0669
 1089YOPC   GL214882   0.686   3.812   6.231  0.1571 -0.0476  0.2414
 1089YOPC   C1A14883   0.641   4.306   6.405  0.0893  0.1777 -0.2058
 1089YOPC   D2A14884   0.561   4.247   6.785  0.4598 -0.1681 -0.1602
 1089YOPC   C3A14885   0.242   4.348   7.104  0.1415  0.2888  0.0850
 1089YOPC   C4A14886   0.271   4.674   7.330  0.0994  0.1361 -0.0646
 1089YOPC   C1B14887   0.912   3.887   6.518  0.2837  0.0552 -0.0034
 1089YOPC   C2B14888   1.059   3.958   7.018 -0.1491  0.0249  0.0111
 1089YOPC   D3B14889   1.401   3.713   7.197  0.2207 -0.2902 -0.0342
 1089YOPC   C4B14890   1.768   3.459   7.366  0.1904 -0.0971 -0.1654
 1090YOPC   NC314891   7.691   9.784   5.843  0.0236 -0.2285 -0.3597
 1090YOPC   PO414892   8.084   9.626   5.977  0.0754  0.0821 -0.1818
 1090YOPC   GL114893   7.999   9.562   6.399  0.1920 -0.1278 -0.0013
 1090YOPC   GL214894   7.836   9.800   6.448 -0.0799  0.1658 -0.2812
 1090YOPC   C1A14895   7.950   9.249   6.676  0.0297  0.0658 -0.2727
 1090YOPC   D2A14896   7.786   9.316   7.144  0.3284 -0.3661 -0.0131
 1090YOPC   C3A14897   7.504   9.003   7.350  0.3012 -0.2171  0.2221
 1090YOPC   C4A14898   7.296   8.921   7.561  0.1784  0.0261 -0.1827
 1090YOPC   C1B14899   8.047  10.027   6.754 -0.0440 -0.0585  0.0952
 1090YOPC   C2B14900   8.057  10.247   7.054 -0.0790 -0.5336  0.1701
 1090YOPC   D3B14901   8.220  10.598   7.018 -0.2705 -0.0307 -0.0264
 1090YOPC   C4B14902   8.546  10.734   6.884  0.1308 -0.4001 -0.2778
 1091YOPC   NC314903  10.942  12.256   6.263  0.1967  0.0534 -0.2343
 1091YOPC   PO414904  11.162  11.885   5.995 -0.2504 -0.2539 -0.0281
 1091YOPC   GL114905  11.250  12.039   6.557 -0.0836  0.2071 -0.3111
 1091YOPC   GL214906  11.556  12.270   6.797 -0.1507  0.4155 -0.0833
 1091YOPC   C1A14907  11.271  11.871   7.016  0.2266 -0.3305  0.1831
 1091YOPC   D2A14908  10.854  11.838   7.273  0.2187  0.0933 -0.0747
 1091YOPC   C3A14909  10.678  11.849   7.730  0.0430  0.0152  0.0243
 1091YOPC   C4A14910  10.434  11.954   8.117 -0.0390  0.0063  0.0484
 1091YOPC   C1B14911  11.463  12.316   7.299 -0.2311 -0.3065 -0.0980
 1091YOPC   C2B14912  11.420  12.608   7.708 -0.0065 -0.0070 -0.1891
 1091YOPC   D3B14913  11.678  12.519   7.985  0.1089 -0.0806  0.1943
 1091YOPC   C4B14914  12.044  12.469   8.295  0.0304 -0.0263  0.0890
 1092YOPC   NC314915  11.549   4.119   6.310  0.1131  0.0063  0.1371
 1092YOPC   PO414916  11.378   3.767   6.507 -0.2727  0.0497 -0.0176
 1092YOPC   GL114917  11.262   3.797   6.946  0.2785 -0.1652  0.3128
 1092YOPC   GL214918  11.138   3.587   7.051  0.0207  0.2124  0.0536
 1092YOPC   C1A14919  11.501   3.944   7.296  0.0177  0.2092 -0.1419
 1092YOPC   D2A14920  11.543   3.770   7.714  0.1734 -0.1358 -0.0101
 1092YOPC   C3A14921  11.761   3.620   8.135  0.0071  0.0688 -0.1276
 1092YOPC   C4A14922  11.897   3.425   8.535  0.0870 -0.0338  0.2069
 1092YOPC   C1B14923  11.085   3.615   7.425  0.0424  0.0092 -0.1101
 1092YOPC   C2B14924  11.017   3.764   7.838 -0.1369  0.0355  0.1126
 1092YOPC   D3B14925  11.285   3.818   8.242  0.0196 -0.3488  0.0392
 1092YOPC   C4B14926  11.431   3.646   8.563  0.1862  0.1092  0.2427
 1093YOPC   NC314927   6.962   8.620   5.660 -0.1579  0.0003 -0.0032
 1093YOPC   PO414928   6.904   9.116   5.711  0.0353  0.2433 -0.0902
 1093YOPC   GL114929   6.987   9.349   6.074  0.1651  0.1540 -0.1142
 1093YOPC   GL214930   7.152   9.110   6.234 -0.0250 -0.0006 -0.1011
 1093YOPC   C1A14931   6.746   9.619   6.419  0.0853  0.0319  0.2374
 1093YOPC   D2A14932   6.868   9.707   6.803  0.0938  0.0975 -0.1566
 1093YOPC   C3A14933   6.869   9.702   7.248 -0.0155  0.0606  0.2649
 1093YOPC   C4A14934   6.851   9.635   7.603  0.0421 -0.0448 -0.0042
 1093YOPC   C1B14935   7.179   9.354   6.606  0.2825 -0.1493  0.0604
 1093YOPC   C2B14936   7.192   9.286   7.057  0.0261  0.3426 -0.1209
 1093YOPC   D3B14937   6.886   9.184   7.377 -0.2108 -0.2179 -0.1292
 1093YOPC   C4B14938   6.923   9.197   7.907  0.0821  0.2620 -0.1188
 1094YOPC   NC314939  15.598   4.529   5.575  0.2331 -0.2464  0.3440
 1094YOPC   PO414940  15.269   4.733   5.840  0.1673 -0.3731 -0.2169
 1094YOPC   GL114941  15.369   4.698   6.232  0.0039  0.0560  0.4066
 1094YOPC   GL214942  15.234   5.015   6.463 -0.1523 -0.1707 -0.0741
 1094YOPC   C1A14943  15.554   4.321   6.500  0.1119  0.0576  0.0019
 1094YOPC   D2A14944  15.377   4.108   6.845  0.2583  0.0772 -0.0402
 1094YOPC   C3A14945  15.417   4.202   7.285  0.0211  0.0824 -0.1634
 1094YOPC   C4A14946  15.277   4.215   7.619 -0.1693  0.1113  0.0189
 1094YOPC   C1B14947  15.287   5.103   6.952  0.2521  0.2178 -0.1373
 1094YOPC   C2B14948  15.659   5.176   7.165  0.0640 -0.1531  0.1288
 1094YOPC   D3B14949  15.724   5.222   7.538 -0.0778  0.0434 -0.1197
 1094YOPC   C4B14950  15.834   4.816   7.788  0.0041 -0.0444 -0.0249
 1095YOPC   NC314951   0.288   8.372   5.456 -0.2819  0.3667 -0.1431
 1095YOPC   PO414952   0.602   8.488   5.859 -0.1153  0.1870  0.0760
 1095YOPC   GL114953   0.540   8.673   6.176  0.1489  0.2714 -0.2021
 1095YOPC   GL214954   0.814   8.849   6.282  0.3064 -0.0472  0.1042
 1095YOPC   C1A14955   0.521   8.629   6.629  0.0475  0.2243  0.0483
 1095YOPC   D2A14956   0.186   8.460   6.903 -0.2325  0.0852  0.0219
 1095YOPC   C3A14957   0.085   8.639   7.365  0.1454  0.0066 -0.1459
 1095YOPC   C4A14958   0.189   8.716   7.685 -0.3037 -0.0261  0.0948
 1095YOPC   C1B14959   1.208   8.957   6.576  0.0079  0.0480 -0.1310
 1095YOPC   C2B14960   1.399   8.896   6.971  0.2060  0.0741  0.1681
 1095YOPC   D3B14961   1.748   8.855   7.249 -0.1300 -0.4444 -0.1393
 1095YOPC   C4B14962   2.196   8.871   7.306 -0.0357 -0.2975  0.4096
 1096YOPC   NC314963  10.843  17.251   5.738  0.0853  0.4487  0.0756
 1096YOPC   PO414964  10.958  16.960   6.027  0.0216 -0.1010  0.3934
 1096YOPC   GL114965  10.989  16.970   6.474 -0.1753 -0.1804 -0.1558
 1096YOPC   GL214966  10.776  16.814   6.710  0.2339 -0.2784  0.2531
 1096YOPC   C1A14967  11.065  17.173   6.896  0.0735  0.3226  0.0291
 1096YOPC   D2A14968  11.090  17.054   7.296  0.0402 -0.0388 -0.0896
 1096YOPC   C3A14969  10.783  17.246   7.732 -0.2564  0.1487  0.2592
 1096YOPC   C4A14970  10.969  17.661   7.927 -0.0498 -0.0921  0.1622
 1096YOPC   C1B14971  10.789  16.730   7.118 -0.2878 -0.1277 -0.0839
 1096YOPC   C2B14972  10.498  16.571   7.297 -0.2916  0.1981  0.1372
 1096YOPC   D3B14973  10.464  16.429   7.765 -0.2619  0.0187  0.0155
 1096YOPC   C4B14974  10.563  16.318   8.180 -0.0825  0.0537 -0.0316
 1097YOPC   NC314975  16.399  16.556   6.058  0.0234 -0.1827 -0.0855
 1097YOPC   PO414976  16.036  16.267   6.227  0.1004  0.3434  0.2066
 1097YOPC   GL114977  15.643  16.091   6.470 -0.0454 -0.1767 -0.0675
 1097YOPC   GL214978  15.862  16.229   6.739  0.1280  0.0743 -0.0629
 1097YOPC   C1A14979  15.519  15.822   6.829  0.0843 -0.2877  0.0868
 1097YOPC   D2A14980  15.283  15.590   7.139 -0.1595  0.0604 -0.0569
 1097YOPC   C3A14981  15.105  15.223   7.114  0.0890 -0.0917  0.1641
 1097YOPC   C4A14982  14.947  15.095   7.527 -0.1370 -0.2945 -0.2090
 1097YOPC   C1B14983  16.135  16.202   7.020  0.4185 -0.0858 -0.0471
 1097YOPC   C2B14984  16.259  16.111   7.442  0.0944 -0.1638  0.1739
 1097YOPC   D3B14985  15.959  16.031   7.705 -0.0252  0.2694  0.1919
 1097YOPC   C4B14986  15.716  15.751   7.960  0.1913  0.0972  0.0519
 1098YOPC   NC314987  10.740  14.574   6.304 -0.3448  0.2113 -0.2773
 1098YOPC   PO414988  10.757  14.095   6.286  0.4576 -0.1843  0.2154
 1098YOPC   GL114989  10.804  13.903   6.596 -0.0155 -0.0188  0.1080
 1098YOPC   GL214990  10.917  13.564   6.555  0.2013  0.0663 -0.1029
 1098YOPC   C1A14991  10.710  14.137   7.036  0.0353  0.2189 -0.0384
 1098YOPC   D2A14992  10.697  14.481   7.279 -0.0201  0.3379  0.0322
 1098YOPC   C3A14993  10.809  14.981   7.185 -0.0711  0.1641 -0.3123
 1098YOPC   C4A14994  10.505  15.357   7.352  0.0188  0.0536 -0.1557
 1098YOPC   C1B14995  10.972  13.717   7.013 -0.1044 -0.0549  0.0559
 1098YOPC   C2B14996  10.876  13.720   7.351 -0.2769  0.0210  0.1481
 1098YOPC   D3B14997  11.005  13.413   7.702 -0.2647 -0.2299  0.3297
 1098YOPC   C4B14998  10.862  13.199   8.077 -0.1092 -0.0098 -0.0851
 1099YOPC   NC314999  14.102   5.811   6.102 -0.0494  0.3410  0.0813
 1099YOPC   PO415000  14.082   5.424   6.405 -0.0869 -0.0189  0.0261
 1099YOPC   GL115001  13.931   5.246   6.735 -0.1704  0.0387 -0.0873
 1099YOPC   GL215002  13.906   4.949   6.698  0.0980  0.1297 -0.2842
 1099YOPC   C1A15003  13.795   5.262   7.054 -0.2113  0.0417 -0.0293
 1099YOPC   D2A15004  13.718   4.944   7.409 -0.2453  0.0135  0.1160
 1099YOPC   C3A15005  13.657   5.056   7.910 -0.1579 -0.0212  0.1287
 1099YOPC   C4A15006  13.596   4.941   8.334  0.0175 -0.3449 -0.3729
 1099YOPC   C1B15007  13.791   4.677   6.979  0.2269 -0.0495 -0.0875
 1099YOPC   C2B15008  13.768   4.361   7.258  0.1642  0.2423 -0.2714
 1099YOPC   D3B15009  13.838   4.511   7.715 -0.0565 -0.0767  0.1648
 1099YOPC   C4B15010  13.498   4.497   8.001 -0.0667 -0.2099  0.3964
 1100YOPC   NC315011   4.483  10.013   5.435 -0.3672  0.1883 -0.0041
 1100YOPC   PO415012   4.045  10.227   5.686  0.1211 -0.0371 -0.1198
 1100YOPC   GL115013   4.142  10.458   6.153  0.1531 -0.1408 -0.2652
 1100YOPC   GL215014   3.947  10.714   6.241  0.2739  0.0427  0.2230
 1100YOPC   C1A15015   4.259  10.627   6.563  0.1513 -0.0880  0.1342
 1100YOPC   D2A15016   4.480  10.673   6.991  0.0988 -0.1455 -0.1004
 1100YOPC   C3A15017   4.341  10.852   7.335 -0.2040 -0.1434 -0.0568
 1100YOPC   C4A15018   4.247  10.837   7.794 -0.2852  0.1471  0.0620
 1100YOPC   C1B15019   3.751  10.662   6.522  0.1850 -0.0186  0.0239
 1100YOPC   C2B15020   3.537  10.623   6.920 -0.0310  0.1655  0.0061
 1100YOPC   D3B15021   3.525  10.335   7.310 -0.2108 -0.1213 -0.0938
 1100YOPC   C4B15022   3.401  10.303   7.718  0.1133 -0.0221  0.0560
 1101YOPC   NC315023  17.261   6.366   5.451 -0.2718 -0.0359  0.1108
 1101YOPC   PO415024  17.539   6.420   5.821  0.2351  0.0230  0.2201
 1101YOPC   GL115025  17.775   6.301   6.145  0.0689 -0.1078 -0.0973
 1101YOPC   GL215026  17.482   6.253   6.332  0.0654  0.0897 -0.1484
 1101YOPC   C1A15027  18.055   6.087   6.442  0.0695 -0.0205  0.2505
 1101YOPC   D2A15028  18.152   6.177   6.852 -0.1323  0.0579  0.1705
 1101YOPC   C3A15029  18.233   6.019   7.232 -0.0842 -0.0943  0.0439
 1101YOPC   C4A15030  18.183   5.862   7.601 -0.0141 -0.1879  0.1899
 1101YOPC   C1B15031  17.702   6.311   6.727 -0.2473 -0.0903 -0.0943
 1101YOPC   C2B15032  17.739   6.173   7.110  0.0269 -0.1110 -0.0683
 1101YOPC   D3B15033  17.797   6.512   7.316  0.0017 -0.1205  0.0160
 1101YOPC   C4B15034  17.859   6.733   7.700  0.0767 -0.1640  0.0365
 1102YOPC   NC315035  15.095  15.212   6.165 -0.1319  0.0573  0.0091
 1102YOPC   PO415036  14.678  15.418   6.281 -0.4061 -0.1660 -0.3507
 1102YOPC   GL115037  14.615  15.633   6.728  0.1394 -0.0723 -0.2961
 1102YOPC   GL215038  14.467  15.447   6.982  0.2379  0.0564  0.1436
 1102YOPC   C1A15039  14.923  15.907   6.870  0.0982 -0.0735 -0.2120
 1102YOPC   D2A15040  15.092  15.978   7.388 -0.1598  0.0745 -0.1322
 1102YOPC   C3A15041  15.227  15.570   7.689 -0.2339  0.1508 -0.1016
 1102YOPC   C4A15042  15.457  15.351   8.035  0.1175 -0.1223 -0.3611
 1102YOPC   C1B15043  14.756  15.608   7.260  0.3924 -0.0304  0.1026
 1102YOPC   C2B15044  14.804  15.763   7.722  0.0593  0.0650  0.0292
 1102YOPC   D3B15045  14.773  15.365   7.989  0.1385  0.1565  0.1646
 1102YOPC   C4B15046  14.694  15.029   8.270  0.1281 -0.1419 -0.0057
 1103YOPC   NC315047   2.150   1.889   5.927  0.0451 -0.1285 -0.3381
 1103YOPC   PO415048   1.736   1.776   5.778  0.0046 -0.2760  0.0848
 1103YOPC   GL115049   1.831   1.735   6.306  0.1617  0.0541 -0.2589
 1103YOPC   GL215050   2.141   1.996   6.402 -0.0808  0.0228 -0.1124
 1103YOPC   C1A15051   1.758   1.656   6.736 -0.0979 -0.3747 -0.3334
 1103YOPC   D2A15052   1.861   1.597   7.209  0.3462  0.0119  0.0645
 1103YOPC   C3A15053   2.024   1.920   7.380  0.0910 -0.1041 -0.1249
 1103YOPC   C4A15054   1.802   2.118   7.709  0.3963  0.1937 -0.0570
 1103YOPC   C1B15055   2.001   2.466   6.431  0.0115 -0.0755 -0.0406
 1103YOPC   C2B15056   1.960   2.913   6.250 -0.3656  0.1080  0.4013
 1103YOPC   D3B15057   2.358   3.210   6.176  0.2909  0.0326  0.3250
 1103YOPC   C4B15058   2.576   3.491   6.153 -0.1770 -0.0547  0.1765
 1104YOPC   NC315059   8.629  11.926   5.073 -0.2853  0.5284  0.2763
 1104YOPC   PO415060   8.802  11.953   5.542 -0.1059  0.1674 -0.0830
 1104YOPC   GL115061   8.653  11.990   5.953  0.3491 -0.0802 -0.1677
 1104YOPC   GL215062   9.001  12.025   6.059 -0.0003 -0.2322  0.0377
 1104YOPC   C1A15063   8.624  11.824   6.306  0.2275  0.1679 -0.2439
 1104YOPC   D2A15064   8.522  11.671   6.680 -0.0790 -0.1154  0.0871
 1104YOPC   C3A15065   8.484  11.289   6.837  0.2335  0.3472  0.2757
 1104YOPC   C4A15066   8.269  11.095   7.247 -0.1924  0.0460  0.0559
 1104YOPC   C1B15067   9.026  12.125   6.419  0.0396  0.3921 -0.0558
 1104YOPC   C2B15068   9.154  12.099   6.769 -0.1823  0.0946  0.1504
 1104YOPC   D3B15069   9.026  12.188   7.129 -0.1328  0.1028  0.0547
 1104YOPC   C4B15070   8.761  12.510   7.253  0.0340  0.0962 -0.3177
 1105YOPC   NC315071   5.633  10.404   5.792  0.1789  0.0429 -0.2276
 1105YOPC   PO415072   5.526  10.870   5.894  0.1873  0.0561 -0.4521
 1105YOPC   GL115073   5.615  11.087   6.292  0.0790 -0.0913 -0.2382
 1105YOPC   GL215074   5.387  11.281   6.196 -0.0398 -0.1679  0.2119
 1105YOPC   C1A15075   5.909  11.055   6.628  0.2270  0.2888 -0.1993
 1105YOPC   D2A15076   5.989  10.996   7.038  0.0346 -0.0594 -0.0082
 1105YOPC   C3A15077   6.232  10.787   7.403  0.1242 -0.2254  0.1159
 1105YOPC   C4A15078   6.389  10.901   7.892  0.1974  0.0890  0.0880
 1105YOPC   C1B15079   5.313  11.340   6.618  0.0543 -0.0330 -0.3029
 1105YOPC   C2B15080   5.395  11.053   6.795 -0.1314 -0.0262  0.1696
 1105YOPC   D3B15081   5.248  10.934   7.293 -0.0224 -0.0862  0.2104
 1105YOPC   C4B15082   5.226  10.577   7.600  0.1300 -0.0765 -0.1265
 1106YOPC   NC315083   3.923  12.063   5.242 -0.0626  0.0235  0.1409
 1106YOPC   PO415084   3.596  12.195   5.545  0.2410  0.0817 -0.1120
 1106YOPC   GL115085   3.662  12.146   5.912  0.0141  0.2573 -0.1880
 1106YOPC   GL215086   3.382  11.897   5.951  0.1107 -0.0192 -0.0142
 1106YOPC   C1A15087   3.686  12.210   6.327 -0.0437 -0.1651  0.1085
 1106YOPC   D2A15088   3.499  11.927   6.545  0.2159  0.0904 -0.2317
 1106YOPC   C3A15089   3.085  11.836   6.716  0.0826  0.3990 -0.2582
 1106YOPC   C4A15090   2.715  11.779   7.098 -0.2020  0.3121 -0.2873
 1106YOPC   C1B15091   3.347  11.595   6.236  0.0418 -0.1975 -0.2436
 1106YOPC   C2B15092   3.465  11.443   6.723 -0.0671  0.1685 -0.4301
 1106YOPC   D3B15093   3.007  11.378   7.026 -0.0764  0.1052  0.1355
 1106YOPC   C4B15094   2.699  11.083   7.199 -0.0594 -0.1178 -0.3411
 1107YOPC   NC315095   4.695  15.576   5.754  0.1926 -0.0004 -0.0907
 1107YOPC   PO415096   4.390  15.283   5.773 -0.3682  0.0938 -0.1690
 1107YOPC   GL115097   4.355  15.246   6.216  0.1834  0.1133  0.1647
 1107YOPC   GL215098   4.067  15.397   6.327 -0.1559 -0.2693  0.1533
 1107YOPC   C1A15099   4.304  14.908   6.505  0.0471 -0.1597 -0.0643
 1107YOPC   D2A15100   4.095  14.626   6.364 -0.1222  0.1184 -0.0500
 1107YOPC   C3A15101   4.151  14.190   6.447  0.1853  0.1773  0.0637
 1107YOPC   C4A15102   4.197  13.723   6.279  0.1340 -0.0919  0.0431
 1107YOPC   C1B15103   4.138  15.395   6.707 -0.1787 -0.0278  0.0786
 1107YOPC   C2B15104   4.188  15.227   7.166  0.0726  0.0037  0.1067
 1107YOPC   D3B15105   4.190  15.423   7.563 -0.0099  0.1099 -0.1162
 1107YOPC   C4B15106   4.318  15.368   7.922 -0.1198  0.1786 -0.1226
 1108YOPC   NC315107  15.556   6.129   5.994 -0.0156 -0.2157  0.0820
 1108YOPC   PO415108  15.684   6.266   6.350 -0.0729 -0.3483 -0.0682
 1108YOPC   GL115109  16.024   6.172   6.629 -0.4784 -0.1576  0.2049
 1108YOPC   GL215110  16.121   5.851   6.748  0.1940  0.3285 -0.1747
 1108YOPC   C1A15111  16.155   6.373   7.064  0.0094  0.1759  0.4089
 1108YOPC   D2A15112  16.457   6.277   7.484 -0.0229  0.2106 -0.2786
 1108YOPC   C3A15113  16.526   6.480   7.805  0.1709 -0.1864 -0.3362
 1108YOPC   C4A15114  16.330   6.553   8.199 -0.0924 -0.1889 -0.0906
 1108YOPC   C1B15115  16.201   5.875   7.190 -0.3436 -0.0510  0.0713
 1108YOPC   C2B15116  15.945   5.666   7.527 -0.0232 -0.0651 -0.1338
 1108YOPC   D3B15117  15.570   5.807   7.748  0.0337  0.0857 -0.1242
 1108YOPC   C4B15118  15.489   5.982   8.119 -0.0191  0.1914 -0.0403
 1109YOPC   NC315119  15.265   0.984   5.843 -0.5774 -0.2376 -0.0324
 1109YOPC   PO415120  15.213   0.692   6.128  0.1247  0.2443 -0.1604
 1109YOPC   GL115121  15.306   0.605   6.563 -0.3549  0.0457 -0.0401
 1109YOPC   GL215122  15.147   0.331   6.545  0.1920  0.0878  0.1350
 1109YOPC   C1A15123  15.435   0.500   6.980  0.2738 -0.2214 -0.4038
 1109YOPC   D2A15124  15.366   0.572   7.351  0.0420  0.1314 -0.0902
 1109YOPC   C3A15125  15.626   0.589   7.510 -0.1284 -0.3207 -0.2297
 1109YOPC   C4A15126  15.782   0.480   7.806  0.3269  0.0355 -0.2991
 1109YOPC   C1B15127  14.883   0.394   6.986  0.1192  0.0447  0.0190
 1109YOPC   C2B15128  14.835   0.026   7.169  0.1627 -0.0352 -0.0568
 1109YOPC   D3B15129  14.796   0.198   7.597  0.1047 -0.2005 -0.1279
 1109YOPC   C4B15130  14.669   0.149   8.004 -0.3488 -0.3921 -0.1131
 1110YOPC   NC315131   5.623  15.151   6.012 -0.2368  0.1974 -0.1784
 1110YOPC   PO415132   5.964  15.426   5.949  0.0249  0.1581 -0.0486
 1110YOPC   GL115133   5.972  15.374   6.336 -0.1937 -0.1830  0.1868
 1110YOPC   GL215134   5.996  15.622   6.424 -0.2069 -0.1872  0.3007
 1110YOPC   C1A15135   6.034  15.205   6.816  0.0264  0.1239 -0.0114
 1110YOPC   D2A15136   6.259  15.132   7.200  0.2065  0.2272  0.1546
 1110YOPC   C3A15137   6.118  15.052   7.633 -0.4587 -0.1651  0.3254
 1110YOPC   C4A15138   6.100  14.781   8.020  0.1145  0.0575  0.2975
 1110YOPC   C1B15139   5.730  15.719   6.744  0.0382 -0.1814 -0.2006
 1110YOPC   C2B15140   5.404  15.761   7.116 -0.1475  0.0535  0.3005
 1110YOPC   D3B15141   5.132  15.477   7.179 -0.0827  0.6018 -0.1922
 1110YOPC   C4B15142   4.683  15.337   7.299 -0.3286 -0.1598  0.3175
 1111YOPC   NC315143  14.667  13.539   6.485  0.2141  0.2521 -0.2162
 1111YOPC   PO415144  14.957  13.303   6.220  0.2107  0.0872 -0.0896
 1111YOPC   GL115145  15.053  13.165   6.614 -0.2581 -0.2359  0.0992
 1111YOPC   GL215146  14.833  13.179   6.844 -0.1290 -0.2061 -0.0779
 1111YOPC   C1A15147  15.271  13.090   6.987 -0.0463  0.0866  0.1298
 1111YOPC   D2A15148  15.242  13.036   7.393  0.1220  0.0969 -0.1235
 1111YOPC   C3A15149  15.369  13.431   7.556  0.3021  0.0287 -0.1684
 1111YOPC   C4A15150  15.113  13.633   7.793  0.2679  0.2324  0.2020
 1111YOPC   C1B15151  14.429  13.335   7.048 -0.2251 -0.2090 -0.1936
 1111YOPC   C2B15152  14.433  13.372   7.521  0.0637 -0.2083 -0.2181
 1111YOPC   D3B15153  14.796  13.211   7.818 -0.0070  0.0341 -0.2521
 1111YOPC   C4B15154  15.214  13.098   7.916  0.2446  0.1268 -0.0153
 1112YOPC   NC315155  15.962   5.454   5.978  0.0833  0.1096  0.0057
 1112YOPC   PO415156  15.730   5.029   6.035  0.0865 -0.1208  0.0511
 1112YOPC   GL115157  15.751   4.956   6.388 -0.0587 -0.1432  0.0798
 1112YOPC   GL215158  16.045   5.298   6.410 -0.0307  0.2464  0.1075
 1112YOPC   C1A15159  15.690   4.688   6.751 -0.1599  0.0708 -0.0327
 1112YOPC   D2A15160  15.672   4.669   7.173  0.0518 -0.0176 -0.1301
 1112YOPC   C3A15161  15.771   4.409   7.531 -0.1853  0.0210  0.0817
 1112YOPC   C4A15162  15.820   4.309   7.944 -0.3379  0.2736 -0.0202
 1112YOPC   C1B15163  16.125   4.991   6.786  0.0466  0.0802 -0.3706
 1112YOPC   C2B15164  16.164   4.859   7.246 -0.0455  0.0288  0.1193
 1112YOPC   D3B15165  16.562   4.898   7.375 -0.1425  0.2635  0.2046
 1112YOPC   C4B15166  16.835   4.711   7.713  0.1827  0.0243 -0.0453
 1113YOPC   NC315167  17.500   5.550   5.637  0.2376  0.2297 -0.1651
 1113YOPC   PO415168  17.037   5.686   5.730  0.2923 -0.4621  0.1370
 1113YOPC   GL115169  17.075   5.549   6.096 -0.2129 -0.0670 -0.0132
 1113YOPC   GL215170  17.264   5.663   6.227  0.1130  0.0252 -0.0281
 1113YOPC   C1A15171  16.939   5.497   6.497  0.1061  0.1241  0.1509
 1113YOPC   D2A15172  16.888   5.576   6.930 -0.0791 -0.0567 -0.2495
 1113YOPC   C3A15173  17.073   5.265   7.257 -0.1375  0.3381  0.1804
 1113YOPC   C4A15174  17.483   5.056   7.332  0.0998 -0.3307 -0.0287
 1113YOPC   C1B15175  17.260   5.818   6.669 -0.1307  0.0049 -0.0799
 1113YOPC   C2B15176  17.155   6.172   6.951 -0.0219  0.0676 -0.2598
 1113YOPC   D3B15177  17.356   6.191   7.368  0.4445 -0.0494  0.0522
 1113YOPC   C4B15178  17.709   6.177   7.670  0.2311  0.2287  0.2941
 1114YOPC   NC315179   5.390   0.429   5.804 -0.1496  0.1857 -0.2217
 1114YOPC   PO415180   5.172   0.764   5.709  0.0743 -0.1417 -0.0499
 1114YOPC   GL115181   5.176   0.864   6.151 -0.3228 -0.0397 -0.0129
 1114YOPC   GL215182   5.241   1.179   6.210  0.0500  0.2392 -0.0931
 1114YOPC   C1A15183   4.997   0.894   6.545  0.2439 -0.2958  0.1452
 1114YOPC   D2A15184   4.920   0.716   7.019  0.1128 -0.0502 -0.1164
 1114YOPC   C3A15185   4.851   0.440   7.134 -0.2973  0.3964  0.4244
 1114YOPC   C4A15186   4.794   0.027   7.338  0.1528  0.1415  0.0659
 1114YOPC   C1B15187   5.222   1.422   6.610  0.0114  0.3153  0.0642
 1114YOPC   C2B15188   5.502   1.478   7.001  0.0440 -0.0433 -0.3240
 1114YOPC   D3B15189   5.861   1.738   6.974 -0.2431 -0.1627  0.3204
 1114YOPC   C4B15190   6.104   2.083   6.961 -0.0427  0.0058  0.1581
 1115YOPC   NC315191  13.512   2.354   6.053 -0.0895  0.1292 -0.0008
 1115YOPC   PO415192  13.203   2.187   6.261  0.1666  0.1815 -0.1940
 1115YOPC   GL115193  13.398   2.414   6.532 -0.0018  0.1007 -0.3255
 1115YOPC   GL215194  13.424   2.781   6.649  0.3821  0.2426  0.3520
 1115YOPC   C1A15195  13.528   2.356   7.015  0.5015 -0.2790  0.1582
 1115YOPC   D2A15196  13.833   2.422   7.290 -0.0087 -0.1222 -0.0885
 1115YOPC   C3A15197  13.741   2.222   7.626  0.2064  0.1144  0.0661
 1115YOPC   C4A15198  13.530   2.208   8.015  0.2386 -0.0112  0.2206
 1115YOPC   C1B15199  13.736   2.855   7.035 -0.0529  0.1801  0.0420
 1115YOPC   C2B15200  14.012   3.057   7.320  0.3568 -0.0772 -0.1403
 1115YOPC   D3B15201  14.177   3.408   7.204 -0.4016  0.1092 -0.2054
 1115YOPC   C4B15202  14.355   3.741   7.382 -0.2274  0.2436 -0.0471
 1116YOPC   NC315203   2.801  14.605   5.674 -0.2588 -0.0699 -0.0138
 1116YOPC   PO415204   2.580  14.754   6.062 -0.4154 -0.2380  0.1668
 1116YOPC   GL115205   2.413  14.956   6.419 -0.0742 -0.1239  0.2326
 1116YOPC   GL215206   2.413  15.297   6.509 -0.3969  0.1417 -0.0295
 1116YOPC   C1A15207   2.304  14.871   6.852 -0.1437  0.2052 -0.1165
 1116YOPC   D2A15208   2.301  14.986   7.348  0.1784  0.0567  0.0732
 1116YOPC   C3A15209   2.310  15.321   7.622  0.2717  0.3866 -0.0429
 1116YOPC   C4A15210   2.098  15.655   7.838 -0.2101 -0.2727  0.0632
 1116YOPC   C1B15211   2.752  15.179   6.850  0.0657  0.1839  0.2682
 1116YOPC   C2B15212   2.731  15.214   7.356 -0.0997  0.0638  0.3239
 1116YOPC   D3B15213   2.712  15.595   7.459 -0.0434  0.0598 -0.0855
 1116YOPC   C4B15214   2.961  15.847   7.816 -0.0940 -0.2851  0.2249
 1117YOPC   NC315215   8.116  17.254   5.621 -0.2106 -0.0909  0.0938
 1117YOPC   PO415216   7.764  17.106   5.883  0.0625 -0.1874 -0.4389
 1117YOPC   GL115217   7.896  16.967   6.301  0.2090  0.1516 -0.0213
 1117YOPC   GL215218   8.250  16.809   6.496 -0.0767 -0.0063 -0.0942
 1117YOPC   C1A15219   7.580  16.952   6.664  0.1032 -0.0268  0.4835
 1117YOPC   D2A15220   7.532  16.671   6.926 -0.2748  0.2146  0.2610
 1117YOPC   C3A15221   7.318  16.624   7.348  0.2756  0.0808  0.0414
 1117YOPC   C4A15222   7.092  16.747   7.638  0.1901 -0.3175  0.1207
 1117YOPC   C1B15223   8.014  16.719   6.767  0.1576 -0.2293  0.0655
 1117YOPC   C2B15224   8.016  16.789   7.239 -0.1671  0.1318 -0.0688
 1117YOPC   D3B15225   8.055  16.982   7.741 -0.0894 -0.1297 -0.1246
 1117YOPC   C4B15226   7.888  16.771   8.192  0.1320  0.0067  0.1924
 1118YOPC   NC315227  14.211  15.487   6.485 -0.1986 -0.2782  0.0554
 1118YOPC   PO415228  13.836  15.331   6.274  0.0528  0.1005 -0.2871
 1118YOPC   GL115229  13.652  15.354   6.674 -0.1931  0.0331 -0.0426
 1118YOPC   GL215230  13.777  15.117   6.773  0.2762 -0.1238 -0.0511
 1118YOPC   C1A15231  13.519  15.496   7.135  0.1387 -0.0175 -0.0032
 1118YOPC   D2A15232  13.373  15.171   7.434  0.1247 -0.1448  0.2063
 1118YOPC   C3A15233  13.293  15.288   7.834  0.4638 -0.3305  0.1775
 1118YOPC   C4A15234  12.947  15.345   8.148 -0.1421  0.0737 -0.0136
 1118YOPC   C1B15235  13.983  15.313   7.098 -0.3351  0.2069  0.0271
 1118YOPC   C2B15236  13.960  15.225   7.546  0.0187  0.0716  0.1799
 1118YOPC   D3B15237  14.239  15.105   7.983  0.1026 -0.3181  0.2507
 1118YOPC   C4B15238  14.266  15.052   8.508 -0.1192 -0.0808  0.2393
 1119YOPC   NC315239  10.812   2.060   6.165 -0.1352  0.2856 -0.1095
 1119YOPC   PO415240  10.404   2.092   6.333  0.0430 -0.0203 -0.1493
 1119YOPC   GL115241  10.313   1.942   6.720  0.1029  0.1702  0.0981
 1119YOPC   GL215242  10.147   1.632   6.741  0.1466 -0.1151 -0.1566
 1119YOPC   C1A15243  10.198   1.993   7.203 -0.3259 -0.0257  0.0236
 1119YOPC   D2A15244  10.203   1.893   7.582 -0.2149 -0.3469 -0.6350
 1119YOPC   C3A15245  10.330   2.082   8.009 -0.2084  0.2963 -0.1608
 1119YOPC   C4A15246  10.388   2.499   8.203 -0.2929 -0.0679  0.0811
 1119YOPC   C1B15247  10.273   1.470   7.244  0.3712 -0.1107  0.1519
 1119YOPC   C2B15248  10.120   1.368   7.716 -0.2646  0.1438 -0.0772
 1119YOPC   D3B15249  10.168   1.608   8.074 -0.1147  0.1250 -0.0012
 1119YOPC   C4B15250  10.205   1.597   8.488 -0.0770 -0.1440 -0.1049
 1120YOPC   NC315251   4.694   0.854   5.493 -0.0046  0.1477 -0.0321
 1120YOPC   PO415252   4.486   0.397   5.748 -0.0390 -0.1672  0.1700
 1120YOPC   GL115253   4.566   0.424   6.113  0.0892  0.1845  0.2119
 1120YOPC   GL215254   4.914   0.340   6.038  0.1585  0.2136 -0.1302
 1120YOPC   C1A15255   4.591   0.644   6.519 -0.0084 -0.1740  0.0262
 1120YOPC   D2A15256   4.467   0.590   6.952 -0.0273  0.1892  0.0870
 1120YOPC   C3A15257   4.379   0.174   7.108  0.0550 -0.0150 -0.1059
 1120YOPC   C4A15258   4.268  -0.357   7.196  0.0160  0.1438 -0.2757
 1120YOPC   C1B15259   4.847   0.189   6.469  0.2172  0.1463 -0.1861
 1120YOPC   C2B15260   4.737   0.037   6.870 -0.1708  0.0300  0.0607
 1120YOPC   D3B15261   4.861  -0.453   7.105 -0.2541  0.2472 -0.0648
 1120YOPC   C4B15262   4.553  -0.681   7.347  0.0018  0.3432  0.2626
 1121YOPC   NC315263  14.433   9.561   6.394  0.1220 -0.1488  0.0477
 1121YOPC   PO415264  13.951   9.600   6.511  0.1856 -0.3133 -0.0921
 1121YOPC   GL115265  13.868   9.627   6.978  0.2826  0.1748 -0.0064
 1121YOPC   GL215266  13.707   9.277   6.940  0.0367 -0.2712 -0.2575
 1121YOPC   C1A15267  14.110   9.646   7.283  0.0989  0.2335  0.0429
 1121YOPC   D2A15268  14.311   9.638   7.695  0.1741  0.3214  0.0047
 1121YOPC   C3A15269  14.451   9.260   7.841 -0.2173  0.1343 -0.0674
 1121YOPC   C4A15270  14.736   9.153   8.235  0.0304  0.0158  0.3581
 1121YOPC   C1B15271  13.799   9.192   7.364 -0.0480 -0.1284 -0.1973
 1121YOPC   C2B15272  13.905   9.196   7.824 -0.0875 -0.0733  0.0813
 1121YOPC   D3B15273  13.920   9.586   8.052 -0.1323 -0.1444 -0.2463
 1121YOPC   C4B15274  13.749   9.937   8.354  0.3426  0.3796 -0.1736
 1122YOPC   NC315275  14.450   1.990   5.814 -0.0015  0.1535 -0.4115
 1122YOPC   PO415276  14.557   2.048   6.289 -0.1157  0.0237 -0.1020
 1122YOPC   GL115277  14.833   2.144   6.493 -0.4206  0.1353 -0.2307
 1122YOPC   GL215278  14.992   1.769   6.560 -0.2001  0.0139 -0.0717
 1122YOPC   C1A15279  15.141   2.418   6.749  0.2595  0.0987 -0.1650
 1122YOPC   D2A15280  15.306   2.260   7.159  0.0956 -0.1154 -0.0136
 1122YOPC   C3A15281  15.548   2.217   7.545  0.3707  0.1623 -0.2266
 1122YOPC   C4A15282  15.855   2.333   7.782  0.1161 -0.1236  0.1695
 1122YOPC   C1B15283  15.078   1.877   6.900  0.0283 -0.2632  0.0447
 1122YOPC   C2B15284  14.926   1.891   7.349  0.0050 -0.1416 -0.3449
 1122YOPC   D3B15285  14.569   2.141   7.439 -0.1329 -0.0269  0.0455
 1122YOPC   C4B15286  14.195   2.118   7.559  0.1545  0.4881  0.3928
 1123YOPC   NC315287   5.924  11.144   5.915 -0.0480 -0.2510 -0.1648
 1123YOPC   PO415288   5.996  11.589   5.773 -0.0650 -0.0817 -0.1111
 1123YOPC   GL115289   6.127  11.609   6.173 -0.0101  0.1030 -0.2117
 1123YOPC   GL215290   6.242  11.360   6.251 -0.0742  0.3334  0.0193
 1123YOPC   C1A15291   6.263  11.854   6.570 -0.2117  0.1825  0.0212
 1123YOPC   D2A15292   6.356  12.226   6.810 -0.0290  0.0099  0.1563
 1123YOPC   C3A15293   6.056  12.338   7.065  0.0427  0.0546 -0.2136
 1123YOPC   C4A15294   6.142  12.415   7.450 -0.1923  0.0370  0.1418
 1123YOPC   C1B15295   6.504  11.469   6.496 -0.2624  0.0488 -0.0730
 1123YOPC   C2B15296   6.759  11.372   6.816 -0.1154 -0.0431 -0.1694
 1123YOPC   D3B15297   6.924  11.495   7.172  0.0245  0.0386 -0.2398
 1123YOPC   C4B15298   7.089  11.321   7.542 -0.2151 -0.1108 -0.1248
 1124YOPC   NC315299   9.705   7.204   6.250  0.2787  0.2561 -0.0514
 1124YOPC   PO415300   9.860   7.603   6.114 -0.2689  0.1975 -0.0025
 1124YOPC   GL115301   9.661   7.709   6.484  0.1706 -0.4274  0.0570
 1124YOPC   GL215302   9.427   7.433   6.610  0.1109 -0.1451  0.0357
 1124YOPC   C1A15303   9.745   7.912   6.907  0.1246  0.1854  0.1793
 1124YOPC   D2A15304   9.537   8.157   7.259 -0.0360  0.0863  0.2117
 1124YOPC   C3A15305   9.343   8.218   7.661 -0.2107 -0.1009  0.0354
 1124YOPC   C4A15306   9.052   8.500   7.918  0.0097  0.1878 -0.1538
 1124YOPC   C1B15307   9.384   7.553   7.058  0.0976 -0.0880  0.1245
 1124YOPC   C2B15308   9.530   7.596   7.416  0.2009  0.2342  0.0502
 1124YOPC   D3B15309   9.433   7.285   7.723 -0.4012  0.1484  0.2534
 1124YOPC   C4B15310   9.271   7.355   8.122  0.1884 -0.1567 -0.2465
 1125YOPC   NC315311  14.006  12.000   6.452  0.0493 -0.1151  0.1985
 1125YOPC   PO415312  13.617  11.976   6.145 -0.2501  0.1751  0.3411
 1125YOPC   GL115313  13.523  11.856   6.560 -0.1317  0.1760  0.2819
 1125YOPC   GL215314  13.374  11.986   6.817  0.4969  0.0735 -0.1477
 1125YOPC   C1A15315  13.550  11.569   6.900 -0.0013  0.1822 -0.0863
 1125YOPC   D2A15316  13.912  11.179   6.958  0.0878  0.0471  0.0757
 1125YOPC   C3A15317  13.989  11.153   7.343 -0.2154 -0.1047  0.2385
 1125YOPC   C4A15318  14.128  11.087   7.794 -0.1677  0.1266  0.0675
 1125YOPC   C1B15319  13.498  11.989   7.230  0.1396 -0.2783 -0.1061
 1125YOPC   C2B15320  13.391  12.105   7.539 -0.0320 -0.2486 -0.1635
 1125YOPC   D3B15321  13.561  11.913   7.870  0.1293 -0.2862 -0.0090
 1125YOPC   C4B15322  13.707  11.845   8.280  0.4031 -0.1031  0.0828
 1126YOPC   NC315323   7.181  10.210   5.228  0.2548  0.2334  0.1135
 1126YOPC   PO415324   7.068  10.565   5.351  0.1032  0.0828 -0.2293
 1126YOPC   GL115325   7.003  10.777   5.784 -0.1381 -0.0479  0.0724
 1126YOPC   GL215326   6.802  10.634   5.988  0.2370 -0.4128 -0.0917
 1126YOPC   C1A15327   7.264  10.846   6.014  0.2216  0.0272  0.0273
 1126YOPC   D2A15328   7.217  10.665   6.403  0.0555  0.0283 -0.2401
 1126YOPC   C3A15329   7.212  10.922   6.740 -0.1583  0.4455 -0.0891
 1126YOPC   C4A15330   7.005  11.008   7.110  0.1365 -0.1474  0.1836
 1126YOPC   C1B15331   6.760  10.909   6.344 -0.1575 -0.2830 -0.3143
 1126YOPC   C2B15332   6.409  11.008   6.656 -0.0357  0.2431  0.0292
 1126YOPC   D3B15333   6.472  11.051   7.075 -0.0216  0.2189 -0.1168
 1126YOPC   C4B15334   6.662  11.078   7.447  0.2666  0.0174 -0.4427
 1127YOPC   NC315335   9.243   8.811   6.167 -0.2042 -0.0483  0.1212
 1127YOPC   PO415336   9.190   8.347   6.159 -0.1101 -0.1484 -0.3439
 1127YOPC   GL115337   9.011   8.148   6.406  0.1456  0.0582 -0.0434
 1127YOPC   GL215338   9.114   7.886   6.440 -0.1457  0.0067  0.0981
 1127YOPC   C1A15339   8.761   7.948   6.864  0.0715  0.1448  0.0913
 1127YOPC   D2A15340   8.596   8.128   7.235  0.0223  0.1617  0.0961
 1127YOPC   C3A15341   8.719   8.035   7.616  0.0195  0.2692  0.1940
 1127YOPC   C4A15342   8.550   7.680   7.822  0.0921 -0.1475  0.1551
 1127YOPC   C1B15343   9.252   7.941   6.790  0.2354 -0.2794 -0.1980
 1127YOPC   C2B15344   9.075   7.911   7.240  0.2374  0.1410 -0.3104
 1127YOPC   D3B15345   9.181   7.744   7.704  0.0419 -0.4169 -0.0509
 1127YOPC   C4B15346   8.983   7.888   8.082 -0.0443 -0.1133 -0.0509
 1128YOPC   NC315347   6.210   6.198   5.784  0.3599  0.1452  0.2657
 1128YOPC   PO415348   6.386   6.544   5.719  0.0011 -0.2170 -0.1479
 1128YOPC   GL115349   6.376   6.491   6.114 -0.3811  0.2708  0.0848
 1128YOPC   GL215350   6.365   6.163   6.294  0.3031 -0.0736  0.3556
 1128YOPC   C1A15351   6.453   6.627   6.559 -0.3397 -0.0817  0.2278
 1128YOPC   D2A15352   6.398   6.359   6.973  0.2348  0.0991 -0.1015
 1128YOPC   C3A15353   6.337   6.686   7.395  0.3178 -0.1717 -0.1964
 1128YOPC   C4A15354   6.475   7.076   7.687  0.0557 -0.0364  0.0613
 1128YOPC   C1B15355   6.200   5.974   6.680 -0.3840  0.1393 -0.0874
 1128YOPC   C2B15356   5.911   6.115   6.956 -0.2194 -0.0509 -0.2644
 1128YOPC   D3B15357   6.147   6.194   7.388  0.0773  0.1422 -0.2691
 1128YOPC   C4B15358   6.411   6.074   7.817 -0.0447 -0.2917  0.1864
 1129YOPC   NC315359  16.504  10.771   6.265 -0.2589 -0.1317  0.0209
 1129YOPC   PO415360  16.247  11.082   6.223 -0.1730  0.1174 -0.2202
 1129YOPC   GL115361  16.499  11.271   6.413  0.1270 -0.1248 -0.2230
 1129YOPC   GL215362  16.438  11.533   6.475  0.1281 -0.2823  0.1125
 1129YOPC   C1A15363  16.545  11.191   6.876 -0.0410  0.0959 -0.0249
 1129YOPC   D2A15364  16.946  11.100   7.136  0.1229  0.2218  0.1299
 1129YOPC   C3A15365  16.915  10.865   7.512  0.1808  0.1121  0.0767
 1129YOPC   C4A15366  16.609  10.952   7.873 -0.2964  0.3731  0.0041
 1129YOPC   C1B15367  16.830  11.664   6.794  0.2712 -0.0497 -0.0702
 1129YOPC   C2B15368  17.067  11.707   7.109 -0.0420  0.1051 -0.0941
 1129YOPC   D3B15369  17.071  11.806   7.537 -0.0640 -0.0333 -0.0873
 1129YOPC   C4B15370  17.068  11.873   7.964 -0.1922  0.0868  0.1870
 1130YOPC   NC315371   7.008  14.303   6.144 -0.0118 -0.0195  0.2943
 1130YOPC   PO415372   6.892  14.799   6.123 -0.0961  0.1577 -0.1514
 1130YOPC   GL115373   6.828  14.671   6.478 -0.0896  0.1788 -0.1110
 1130YOPC   GL215374   6.660  14.416   6.515 -0.0440  0.0660 -0.0472
 1130YOPC   C1A15375   7.112  14.510   6.908 -0.1579  0.2529 -0.0722
 1130YOPC   D2A15376   7.232  14.263   7.347  0.0798  0.0710 -0.2821
 1130YOPC   C3A15377   7.353  14.543   7.649  0.2058  0.1311  0.0219
 1130YOPC   C4A15378   7.322  14.884   7.815  0.0561  0.1327  0.0775
 1130YOPC   C1B15379   6.420  14.023   6.687 -0.2519 -0.2448 -0.0543
 1130YOPC   C2B15380   6.046  13.913   6.857 -0.2945  0.1232  0.1432
 1130YOPC   D3B15381   6.060  13.993   7.288  0.0467  0.1162 -0.0008
 1130YOPC   C4B15382   6.398  14.112   7.625 -0.0644  0.1130 -0.0540
 1131YOPC   NC315383   1.874  17.161   5.925  0.4099 -0.0837  0.0358
 1131YOPC   PO415384   1.934  17.628   6.025  0.2819  0.1828  0.0408
 1131YOPC   GL115385   1.734  17.578   6.376  0.2238 -0.0565 -0.0870
 1131YOPC   GL215386   1.675  17.231   6.417 -0.1824  0.3306 -0.2172
 1131YOPC   C1A15387   1.663  17.535   6.796 -0.0801  0.1836 -0.0926
 1131YOPC   D2A15388   1.486  17.272   7.130  0.0734 -0.0259 -0.0406
 1131YOPC   C3A15389   1.578  17.509   7.566 -0.0874  0.1782  0.1957
 1131YOPC   C4A15390   1.800  17.588   7.885 -0.0707  0.1925  0.0293
 1131YOPC   C1B15391   1.973  17.133   6.783  0.2028 -0.4292 -0.2722
 1131YOPC   C2B15392   2.038  16.943   7.110  0.2033  0.2415  0.0205
 1131YOPC   D3B15393   2.005  17.241   7.546 -0.2748 -0.3554  0.0553
 1131YOPC   C4B15394   1.997  17.163   8.003  0.1027 -0.0002  0.0817
 1132YOPC   NC315395  12.556   6.861   6.358 -0.1355  0.2060  0.1418
 1132YOPC   PO415396  12.299   7.156   6.251 -0.0676 -0.1730  0.4686
 1132YOPC   GL115397  12.515   7.397   6.577 -0.3095  0.1259  0.0742
 1132YOPC   GL215398  12.387   7.658   6.583 -0.0528 -0.1160 -0.0822
 1132YOPC   C1A15399  12.732   7.289   6.934  0.3590  0.1075 -0.0265
 1132YOPC   D2A15400  12.992   7.197   7.287  0.0278 -0.1393 -0.0793
 1132YOPC   C3A15401  12.985   7.127   7.705 -0.1214 -0.1140  0.1078
 1132YOPC   C4A15402  12.862   6.897   8.118 -0.0227  0.0262  0.1435
 1132YOPC   C1B15403  12.422   7.765   6.972  0.0765 -0.2430  0.1505
 1132YOPC   C2B15404  12.689   7.718   7.410  0.2037  0.1077 -0.1597
 1132YOPC   D3B15405  12.587   7.402   7.639  0.0043 -0.1845 -0.0047
 1132YOPC   C4B15406  12.654   7.397   8.115 -0.2627  0.0476 -0.0408
 1133YOPC   NC315407  16.970   2.720   5.758  0.0179  0.3545  0.1381
 1133YOPC   PO415408  16.959   2.963   6.110 -0.1214  0.4444  0.0021
 1133YOPC   GL115409  16.846   3.260   6.380 -0.1259 -0.2758 -0.6168
 1133YOPC   GL215410  16.742   3.538   6.120  0.0483  0.3754  0.2426
 1133YOPC   C1A15411  16.854   3.426   6.860 -0.1540  0.0331  0.1213
 1133YOPC   D2A15412  16.816   3.766   7.086 -0.0294  0.0850  0.0953
 1133YOPC   C3A15413  17.012   3.803   7.506 -0.1002  0.1106  0.0845
 1133YOPC   C4A15414  17.171   3.566   7.753  0.2823 -0.0178  0.1086
 1133YOPC   C1B15415  16.626   3.674   6.503  0.1110  0.1108 -0.1246
 1133YOPC   C2B15416  16.330   3.775   6.816 -0.1529 -0.0689 -0.0412
 1133YOPC   D3B15417  16.512   4.155   7.062 -0.0839  0.2808  0.1245
 1133YOPC   C4B15418  16.738   4.351   7.407  0.1641 -0.4353 -0.1461
 1134YOPC   NC315419   9.361  10.830   5.774  0.4853 -0.0001  0.0931
 1134YOPC   PO415420   9.205  10.451   5.866  0.4901 -0.1943  0.3292
 1134YOPC   GL115421   9.288  10.597   6.289  0.2087  0.1660 -0.1798
 1134YOPC   GL215422   9.082  10.356   6.504 -0.1757  0.1790  0.0900
 1134YOPC   C1A15423   9.461  10.666   6.620 -0.2752  0.0290  0.0078
 1134YOPC   D2A15424   9.466  10.806   7.057  0.1859 -0.3206 -0.0784
 1134YOPC   C3A15425   9.402  10.916   7.430  0.0216  0.3178  0.0608
 1134YOPC   C4A15426   9.722  10.841   7.839 -0.3856 -0.1453 -0.0087
 1134YOPC   C1B15427   8.992  10.458   6.873  0.0716 -0.0824 -0.1242
 1134YOPC   C2B15428   9.053  10.495   7.313 -0.1532 -0.0397 -0.3984
 1134YOPC   D3B15429   8.848  10.365   7.699 -0.0232 -0.1219  0.0843
 1134YOPC   C4B15430   8.605  10.464   7.985 -0.1152  0.0647  0.0664
 1135YOPC   NC315431   8.703   6.834   6.199 -0.1346  0.1266 -0.2554
 1135YOPC   PO415432   8.549   6.440   6.003  0.3590 -0.0894 -0.0643
 1135YOPC   GL115433   8.385   6.452   6.407  0.3831  0.1080  0.1346
 1135YOPC   GL215434   8.425   6.183   6.426  0.1063  0.0228  0.1041
 1135YOPC   C1A15435   8.377   6.568   6.787 -0.1733  0.0003  0.1427
 1135YOPC   D2A15436   8.126   6.695   7.187 -0.1217 -0.1344  0.1738
 1135YOPC   C3A15437   7.809   6.990   7.186  0.0202 -0.0668 -0.1156
 1135YOPC   C4A15438   7.550   7.286   7.375 -0.1234 -0.3371 -0.1668
 1135YOPC   C1B15439   8.369   6.025   6.805  0.0313 -0.2622 -0.1650
 1135YOPC   C2B15440   8.400   5.826   7.222 -0.3512  0.0387 -0.1573
 1135YOPC   D3B15441   8.336   5.835   7.654 -0.1263  0.2627  0.0062
 1135YOPC   C4B15442   8.448   5.957   8.095  0.1997  0.0540 -0.0148
 1136YOPC   NC315443  16.951   1.676   6.109 -0.1269  0.2034  0.3097
 1136YOPC   PO415444  17.017   2.013   6.373  0.2690 -0.0972  0.2149
 1136YOPC   GL115445  17.086   2.238   6.657 -0.5064  0.0451 -0.3773
 1136YOPC   GL215446  17.403   2.344   6.593  0.2100 -0.0811 -0.2456
 1136YOPC   C1A15447  17.003   2.584   6.899 -0.1252 -0.3076 -0.4634
 1136YOPC   D2A15448  17.121   2.787   7.292 -0.4410 -0.0377 -0.0787
 1136YOPC   C3A15449  17.489   3.049   7.487  0.2707  0.0827 -0.0261
 1136YOPC   C4A15450  17.539   3.264   7.880  0.2836  0.0129  0.0161
 1136YOPC   C1B15451  17.380   2.324   7.105 -0.3518 -0.1740 -0.0330
 1136YOPC   C2B15452  17.400   1.983   7.383  0.0841 -0.2455 -0.3296
 1136YOPC   D3B15453  17.181   1.731   7.372 -0.2162 -0.0199 -0.0179
 1136YOPC   C4B15454  16.768   1.703   7.461 -0.2132  0.2758 -0.1295
 1137YOPC   NC315455   2.334   6.101   5.499 -0.1686 -0.2361 -0.2015
 1137YOPC   PO415456   2.287   6.498   5.365  0.0982  0.1806 -0.1032
 1137YOPC   GL115457   2.485   6.614   5.698 -0.1474  0.0616  0.4289
 1137YOPC   GL215458   2.240   6.526   5.875 -0.2100 -0.2151 -0.2949
 1137YOPC   C1A15459   2.681   6.507   6.077  0.0102 -0.0475  0.0211
 1137YOPC   D2A15460   2.487   6.576   6.505 -0.0672  0.0526 -0.0523
 1137YOPC   C3A15461   2.475   7.038   6.625  0.0426 -0.1998  0.0643
 1137YOPC   C4A15462   2.667   7.270   7.011  0.1565  0.1086  0.1591
 1137YOPC   C1B15463   2.007   6.500   6.169  0.0531 -0.0325 -0.0824
 1137YOPC   C2B15464   1.915   6.422   6.606 -0.1736  0.0910 -0.1011
 1137YOPC   D3B15465   2.205   6.517   6.901  0.1972 -0.2037  0.1530
 1137YOPC   C4B15466   2.075   6.650   7.405 -0.0321  0.1620 -0.1213
 1138YOPC   NC315467  17.766   1.827   5.924 -0.0760 -0.1945  0.0837
 1138YOPC   PO415468  18.118   1.940   5.863  0.0179  0.0051 -0.1714
 1138YOPC   GL115469  18.363   2.057   6.262 -0.1051 -0.1043 -0.1420
 1138YOPC   GL215470  18.636   1.946   6.286  0.3166  0.1849 -0.0823
 1138YOPC   C1A15471  18.415   2.145   6.774  0.1339  0.1871  0.1940
 1138YOPC   D2A15472  18.367   2.106   7.099  0.1789  0.3072 -0.1596
 1138YOPC   C3A15473  18.490   2.189   7.568  0.3022 -0.1884 -0.3936
 1138YOPC   C4A15474  18.295   2.362   7.939  0.0347  0.0905  0.0536
 1138YOPC   C1B15475  18.370   1.644   6.584  0.2532 -0.0412  0.1114
 1138YOPC   C2B15476  18.161   1.592   6.959 -0.0756 -0.1029  0.0212
 1138YOPC   D3B15477  18.368   1.745   7.380 -0.1716  0.2646 -0.2142
 1138YOPC   C4B15478  18.114   1.848   7.736 -0.0230  0.1629  0.1124
 1139YOPC   NC315479   5.427   5.740   5.375  0.0158 -0.1220 -0.0781
 1139YOPC   PO415480   5.187   5.813   5.649  0.0309  0.1696  0.0472
 1139YOPC   GL115481   5.093   6.000   6.107 -0.1141 -0.0056  0.0481
 1139YOPC   GL215482   4.833   5.997   6.241 -0.1867 -0.1287 -0.3817
 1139YOPC   C1A15483   5.263   6.047   6.484 -0.0100  0.0543 -0.0564
 1139YOPC   D2A15484   5.287   6.082   6.921 -0.2295  0.1181 -0.1385
 1139YOPC   C3A15485   4.983   5.783   7.006 -0.0168 -0.2365  0.0954
 1139YOPC   C4A15486   4.812   5.592   7.352  0.1357 -0.3412 -0.2036
 1139YOPC   C1B15487   4.636   6.009   6.682 -0.0724  0.1836 -0.1065
 1139YOPC   C2B15488   4.238   6.281   6.920 -0.3547  0.1627 -0.2711
 1139YOPC   D3B15489   4.389   6.474   7.234 -0.0355 -0.2049  0.0339
 1139YOPC   C4B15490   4.215   6.822   7.375  0.1922  0.2784 -0.2629
 1140YOPC   NC315491   8.498   9.889   5.827 -0.2299  0.3439  0.0755
 1140YOPC   PO415492   8.373  10.334   5.733 -0.1059  0.3018 -0.0919
 1140YOPC   GL115493   8.315  10.557   6.102 -0.3120  0.2629  0.1827
 1140YOPC   GL215494   8.383  10.814   6.024  0.4441  0.3523 -0.3125
 1140YOPC   C1A15495   8.214  10.424   6.491  0.1257 -0.3246  0.5611
 1140YOPC   D2A15496   8.483  10.250   6.821  0.1921  0.0811  0.1732
 1140YOPC   C3A15497   8.597  10.325   7.223 -0.3383 -0.2808 -0.2380
 1140YOPC   C4A15498   8.547  10.674   7.397  0.0833 -0.1078  0.2473
 1140YOPC   C1B15499   8.134  10.925   6.407  0.0797 -0.4793 -0.2083
 1140YOPC   C2B15500   8.098  11.017   6.779  0.0497 -0.2022 -0.0269
 1140YOPC   D3B15501   7.763  11.122   7.049 -0.0718  0.1763 -0.0843
 1140YOPC   C4B15502   7.499  10.979   7.376  0.3241 -0.2543  0.0339
 1141YOPC   NC315503   3.093  11.679   5.585  0.2389  0.1432 -0.1050
 1141YOPC   PO415504   2.648  11.536   5.637 -0.1453  0.1247  0.3641
 1141YOPC   GL115505   2.874  11.420   6.026  0.0570 -0.1659  0.3293
 1141YOPC   GL215506   2.857  11.641   6.280  0.1121 -0.1721 -0.1429
 1141YOPC   C1A15507   3.111  11.038   6.182  0.1131  0.1365  0.1887
 1141YOPC   D2A15508   3.301  10.619   6.242  0.0857  0.0870  0.2753
 1141YOPC   C3A15509   3.277  10.361   6.587  0.1843 -0.2231  0.1956
 1141YOPC   C4A15510   3.265  10.034   6.979  0.2125 -0.2652  0.2117
 1141YOPC   C1B15511   3.010  11.337   6.553 -0.0896  0.2375  0.3099
 1141YOPC   C2B15512   2.882  10.921   6.693 -0.0033  0.0009  0.0253
 1141YOPC   D3B15513   2.884  10.613   6.421  0.0796 -0.1536  0.1376
 1141YOPC   C4B15514   2.935  10.149   6.298  0.5688 -0.0643  0.0423
 1142YOPC   NC315515   7.378  11.243   5.543 -0.2180  0.1150 -0.1362
 1142YOPC   PO415516   7.818  11.285   5.633  0.0240 -0.1891  0.3561
 1142YOPC   GL115517   7.988  11.251   6.022  0.2067 -0.1808  0.0544
 1142YOPC   GL215518   7.622  11.245   6.106  0.1259  0.4092 -0.1864
 1142YOPC   C1A15519   8.135  11.440   6.443 -0.1089 -0.2346 -0.1337
 1142YOPC   D2A15520   8.147  11.902   6.517 -0.0501  0.0130 -0.2589
 1142YOPC   C3A15521   7.742  12.045   6.603  0.1077  0.0663  0.2378
 1142YOPC   C4A15522   7.208  12.001   6.738  0.0662  0.0412  0.0254
 1142YOPC   C1B15523   7.641  11.192   6.542 -0.4355 -0.0658  0.0661
 1142YOPC   C2B15524   7.805  11.545   6.782 -0.0763  0.1506  0.0377
 1142YOPC   D3B15525   8.084  11.509   7.036 -0.0957  0.2024 -0.0374
 1142YOPC   C4B15526   8.513  11.557   7.280  0.0965 -0.6110  0.1161
 1143YOPC   NC315527   4.503  11.707   5.676 -0.0263 -0.1729  0.0088
 1143YOPC   PO415528   4.141  11.409   5.769 -0.1530  0.0397 -0.0605
 1143YOPC   GL115529   3.810  11.302   6.011  0.2878  0.2367  0.0358
 1143YOPC   GL215530   3.787  11.650   6.164  0.1112 -0.1397 -0.3112
 1143YOPC   C1A15531   3.588  11.153   6.321  0.1912  0.2905  0.2224
 1143YOPC   D2A15532   3.371  10.990   6.618 -0.1630  0.3636 -0.1992
 1143YOPC   C3A15533   3.367  11.068   7.084 -0.0209 -0.1715 -0.0726
 1143YOPC   C4A15534   3.586  11.318   7.327  0.0108 -0.1019 -0.0075
 1143YOPC   C1B15535   3.938  11.664   6.606  0.4612 -0.0888 -0.1165
 1143YOPC   C2B15536   3.880  11.573   7.001  0.1808 -0.0804  0.3233
 1143YOPC   D3B15537   3.928  11.814   7.364  0.1150  0.1460 -0.0576
 1143YOPC   C4B15538   3.672  12.161   7.591  0.3517  0.3774  0.1445
 1144ERGO   ROH15539  12.427   5.757   6.721 -0.2174  0.1179 -0.0434
 1144ERGO    R115540  12.309   5.745   6.978 -0.2201  0.1391 -0.0432
 1144ERGO    R215541  12.208   5.512   7.085 -0.2593  0.1537 -0.0401
 1144ERGO    R315542  12.374   5.573   7.291 -0.2471  0.1303 -0.0436
 1144ERGO    R415543  12.214   5.346   7.388 -0.0565 -0.0437 -0.1491
 1144ERGO    R515544  12.239   5.539   7.487 -0.1666 -0.0948 -0.0278
 1144ERGO    C115545  12.373   5.307   7.759  0.0730 -0.1806 -0.2159
 1144ERGO    C215546  12.209   5.114   8.028  0.1700 -0.0372 -0.3729
 1145ERGO   ROH15547  12.104   1.826   6.865 -0.1339  0.0199  0.0340
 1145ERGO    R115548  12.087   1.666   7.098 -0.2713 -0.0116  0.0026
 1145ERGO    R215549  12.268   1.686   7.307 -0.2006 -0.2669 -0.0334
 1145ERGO    R315550  12.042   1.722   7.454 -0.1292 -0.0358  0.0256
 1145ERGO    R415551  12.259   1.715   7.651 -0.0813 -0.3033 -0.0262
 1145ERGO    R515552  12.079   1.593   7.652 -0.2218 -0.1072 -0.0007
 1145ERGO    C115553  12.042   1.765   7.990  0.0552 -0.1077  0.0333
 1145ERGO    C215554  11.998   1.754   8.359 -0.0485  0.1331  0.0479
 1146ERGO   ROH15555   7.525   0.307  10.504  0.0170 -0.0349 -0.0359
 1146ERGO    R115556   7.451   0.204  10.251  0.0391 -0.0935 -0.0189
 1146ERGO    R215557   7.377   0.366  10.039 -0.0620 -0.1463 -0.0275
 1146ERGO    R315558   7.573   0.230   9.909 -0.0087 -0.0649 -0.0331
 1146ERGO    R415559   7.416   0.357   9.696 -0.0063 -0.0576 -0.0240
 1146ERGO    R515560   7.465   0.145   9.712  0.0448 -0.0464 -0.0681
 1146ERGO    C115561   7.622   0.223   9.374  0.0762  0.0705 -0.0272
 1146ERGO    C215562   7.704   0.226   9.002 -0.1384 -0.1836 -0.0463
 1147ERGO   ROH15563   3.954   6.492   5.972 -0.0834 -0.1528 -0.0254
 1147ERGO    R115564   3.838   6.563   6.221 -0.1031 -0.0168 -0.0730
 1147ERGO    R215565   3.735   6.376   6.396 -0.1623  0.0829 -0.0007
 1147ERGO    R315566   3.904   6.497   6.572 -0.1631  0.1313 -0.0328
 1147ERGO    R415567   3.693   6.382   6.739  0.0053 -0.1017  0.0249
 1147ERGO    R515568   3.760   6.589   6.740 -0.1495 -0.0501  0.0816
 1147ERGO    C115569   3.826   6.497   7.104  0.1022 -0.1638  0.0098
 1147ERGO    C215570   3.911   6.468   7.394 -0.2437  0.0920 -0.0001
 1148ERGO   ROH15571  16.082  11.754   6.762 -0.0645 -0.1000  0.1004
 1148ERGO    R115572  16.301  11.713   6.938 -0.0418  0.0139  0.0989
 1148ERGO    R215573  16.290  11.775   7.207 -0.0759 -0.0008  0.1014
 1148ERGO    R315574  16.367  11.517   7.237  0.0656  0.0397  0.0923
 1148ERGO    R415575  16.561  11.671   7.393 -0.0653  0.1325  0.1617
 1148ERGO    R515576  16.607  11.526   7.237  0.0605  0.1765  0.1576
 1148ERGO    C115577  16.792  11.368   7.530  0.0736  0.2481  0.1882
 1148ERGO    C215578  16.866  11.409   7.860 -0.0721  0.3361 -0.3863
 1149ERGO   ROH15579  11.383   0.092   6.613  0.2083  0.0584  0.0696
 1149ERGO    R115580  11.295   0.172   6.870  0.3924  0.1699  0.0986
 1149ERGO    R215581  11.149   0.006   7.036  0.0864  0.4116  0.0699
 1149ERGO    R315582  11.347   0.063   7.213  0.2201 -0.0160  0.0692
 1149ERGO    R415583  11.127  -0.035   7.379 -0.0611  0.5574  0.0800
 1149ERGO    R515584  11.234   0.152   7.404  0.4032  0.3220  0.0338
 1149ERGO    C115585  11.300  -0.007   7.744 -0.0214  0.2406  0.0851
 1149ERGO    C215586  11.387   0.021   8.057  0.3914 -0.0407 -0.2102
 1150ERGO   ROH15587   9.087  11.042   6.481  0.0715 -0.0899 -0.1247
 1150ERGO    R115588   8.926  11.043   6.714  0.0757 -0.0909 -0.1231
 1150ERGO    R215589   9.019  10.955   6.959  0.0643 -0.1336 -0.1391
 1150ERGO    R315590   8.937  11.201   7.042  0.1034 -0.1312 -0.1035
 1150ERGO    R415591   8.943  11.038   7.286  0.2261 -0.1309 -0.1007
 1150ERGO    R515592   8.775  11.155   7.212  0.1858 -0.1318 -0.0208
 1150ERGO    C115593   8.823  11.317   7.554  0.3570 -0.1270 -0.0448
 1150ERGO    C215594   9.009  11.338   7.866  0.1360  0.1100  0.3099
 1151ERGO   ROH15595  11.642  11.168  10.328 -0.0643  0.2467  0.0030
 1151ERGO    R115596  11.669  11.009  10.095 -0.0816  0.1017  0.0990
 1151ERGO    R215597  11.499  11.032   9.879 -0.0530  0.0188  0.0679
 1151ERGO    R315598  11.731  11.067   9.741 -0.0293 -0.1232  0.0699
 1151ERGO    R415599  11.523  11.055   9.535 -0.0566  0.1620  0.0765
 1151ERGO    R515600  11.704  10.934   9.544 -0.1632 -0.0062  0.0069
 1151ERGO    C115601  11.755  11.101   9.206 -0.0363  0.1121  0.0832
 1151ERGO    C215602  11.803  11.226   8.902 -0.1716 -0.0413  0.0437
 1152ERGO   ROH15603   9.187  17.638   8.579  0.1315 -0.1016 -0.0183
 1152ERGO    R115604   9.336  17.397   8.583  0.1448 -0.0942 -0.1245
 1152ERGO    R215605   9.562  17.359   8.429  0.2617  0.0653  0.0137
 1152ERGO    R315606   9.675  17.297   8.668  0.0890 -0.1492  0.0445
 1152ERGO    R415607   9.868  17.204   8.467  0.2896  0.1358  0.0888
 1152ERGO    R515608   9.783  17.086   8.629  0.1956 -0.0740 -0.1014
 1152ERGO    C115609  10.153  17.055   8.713  0.1436 -0.0245  0.1613
 1152ERGO    C215610  10.566  17.031   8.696 -0.1847  0.0010  0.2354
 1153ERGO   ROH15611   6.655   8.839   6.109  0.2660 -0.0008  0.0299
 1153ERGO    R115612   6.707   8.864   6.386  0.0860 -0.0597  0.0696
 1153ERGO    R215613   6.734   9.109   6.511  0.0935 -0.0881  0.1214
 1153ERGO    R315614   6.539   9.011   6.674 -0.0555 -0.0375 -0.0230
 1153ERGO    R415615   6.676   9.212   6.836 -0.2113  0.0234  0.0360
 1153ERGO    R515616   6.640   9.005   6.891 -0.2549  0.0404  0.0749
 1153ERGO    C115617   6.460   9.180   7.178 -0.5288  0.1359 -0.1494
 1153ERGO    C215618   6.425   9.357   7.341  0.0428  0.1737  0.1285
 1154ERGO   ROH15619   0.932  11.931   6.434 -0.0518  0.5196  0.1081
 1154ERGO    R115620   0.841  11.839   6.686 -0.0936  0.3575  0.0354
 1154ERGO    R215621   0.987  11.874   6.918 -0.0869  0.1204  0.0664
 1154ERGO    R315622   0.757  11.989   7.007 -0.0448  0.1398  0.1527
 1154ERGO    R415623   0.896  11.901   7.250 -0.0710 -0.0963  0.0901
 1154ERGO    R515624   0.691  11.853   7.193 -0.0920  0.0213  0.0530
 1154ERGO    C115625   0.627  12.025   7.527 -0.0221 -0.2045  0.1849
 1154ERGO    C215626   0.441  12.033   7.789 -0.0634  0.1001 -0.0327
 1155ERGO   ROH15627  12.963   2.098   6.691  0.1834 -0.0001 -0.0007
 1155ERGO    R115628  13.130   2.139   6.915  0.1976 -0.0308 -0.0043
 1155ERGO    R215629  13.034   2.136   7.175  0.1701  0.1574 -0.0037
 1155ERGO    R315630  13.229   1.949   7.210  0.0210  0.0175  0.0848
 1155ERGO    R415631  13.154   2.030   7.481  0.0272  0.1234  0.0405
 1155ERGO    R515632  13.355   2.029   7.397  0.0399 -0.0472  0.0920
 1155ERGO    C115633  13.406   1.793   7.693 -0.1960 -0.0278  0.1492
 1155ERGO    C215634  13.459   1.652   8.003  0.1232  0.2142  0.1581
 1156ERGO   ROH15635   9.773   3.394   6.937 -0.1724  0.1292 -0.0820
 1156ERGO    R115636   9.739   3.576   7.151 -0.1355  0.1226 -0.0706
 1156ERGO    R215637   9.504   3.594   7.295 -0.0310 -0.0523  0.1276
 1156ERGO    R315638   9.668   3.554   7.508  0.1836  0.0983 -0.0056
 1156ERGO    R415639   9.520   3.799   7.573  0.0244 -0.0215  0.1016
 1156ERGO    R515640   9.737   3.774   7.572  0.0489  0.1635 -0.0778
 1156ERGO    C115641   9.684   3.881   7.934  0.2579  0.1379 -0.0386
 1156ERGO    C215642   9.738   4.092   8.140 -0.1111  0.1035  0.4080
 1157ERGO   ROH15643  16.867   7.750  10.084  0.0172 -0.0255  0.0218
 1157ERGO    R115644  16.831   7.645   9.823 -0.0708  0.0666 -0.0020
 1157ERGO    R215645  16.580   7.605   9.713 -0.1009  0.1445  0.0573
 1157ERGO    R315646  16.680   7.758   9.512 -0.1373  0.1896  0.0709
 1157ERGO    R415647  16.504   7.566   9.378 -0.0733  0.1225  0.0522
 1157ERGO    R515648  16.713   7.604   9.331 -0.0742  0.1972  0.0670
 1157ERGO    C115649  16.553   7.687   8.994 -0.0915  0.1519  0.0621
 1157ERGO    C215650  16.501   7.558   8.761  0.1967 -0.2532 -0.0573
 1158ERGO   ROH15651   1.098  14.477   6.082 -0.1945  0.0319  0.1087
 1158ERGO    R115652   1.268  14.467   6.308 -0.1020 -0.0665  0.0360
 1158ERGO    R215653   1.347  14.693   6.445  0.0855 -0.1103  0.0070
 1158ERGO    R315654   1.247  14.559   6.659  0.0999 -0.0576  0.0464
 1158ERGO    R415655   1.447  14.741   6.772  0.0906 -0.0190 -0.0080
 1158ERGO    R515656   1.436  14.526   6.802  0.1033 -0.0093  0.0505
 1158ERGO    C115657   1.411  14.644   7.164  0.1069  0.0837  0.0203
 1158ERGO    C215658   1.602  14.704   7.493  0.0649 -0.1777 -0.0474
 1159ERGO   ROH15659  12.270  12.029   7.019 -0.1903  0.0914  0.0428
 1159ERGO    R115660  12.247  11.877   7.257 -0.1845  0.0025 -0.0104
 1159ERGO    R215661  12.466  11.805   7.410 -0.1614 -0.1440 -0.0884
 1159ERGO    R315662  12.326  11.924   7.609 -0.0711 -0.1601 -0.0171
 1159ERGO    R415663  12.452  11.692   7.736 -0.0115 -0.1302 -0.0777
 1159ERGO    R515664  12.240  11.742   7.739  0.0010 -0.1484  0.0271
 1159ERGO    C115665  12.312  11.738   8.113  0.1606 -0.1374 -0.0045
 1159ERGO    C215666  12.378  11.813   8.416  0.0851 -0.0171 -0.1273
 1160ERGO   ROH15667   2.571   0.147   9.774 -0.1090  0.0875  0.1762
 1160ERGO    R115668   2.522   0.023   9.524 -0.0558 -0.0050  0.2111
 1160ERGO    R215669   2.362   0.138   9.330 -0.0473 -0.0962  0.1511
 1160ERGO    R315670   2.581   0.102   9.173 -0.0216 -0.1150  0.1912
 1160ERGO    R415671   2.355   0.109   8.986  0.0010 -0.1647  0.1558
 1160ERGO    R515672   2.507  -0.047   9.001  0.0093 -0.1547  0.2099
 1160ERGO    C115673   2.557   0.059   8.638  0.0531 -0.2222  0.1961
 1160ERGO    C215674   2.427  -0.027   8.261  0.0536 -0.0468 -0.0171
 1161ERGO   ROH15675  17.608  17.754  10.087  0.3240 -0.2509  0.0523
 1161ERGO    R115676  17.617  17.629   9.833  0.1595 -0.1097 -0.0232
 1161ERGO    R215677  17.403  17.631   9.658  0.0876  0.0761  0.0810
 1161ERGO    R315678  17.587  17.734   9.486  0.0452  0.0943  0.0433
 1161ERGO    R415679  17.397  17.589   9.315 -0.0936  0.2087  0.0650
 1161ERGO    R515680  17.613  17.564   9.319 -0.0859  0.1400 -0.0392
 1161ERGO    C115681  17.566  17.661   8.954 -0.2389  0.3030  0.0204
 1161ERGO    C215682  17.574  17.755   8.695  0.3995  0.1487  0.3048
 1162ERGO   ROH15683   6.440   9.549   9.809  0.2191 -0.1385  0.1863
 1162ERGO    R115684   6.610   9.581   9.586  0.1412 -0.0587  0.1384
 1162ERGO    R215685   6.797   9.391   9.512  0.0864 -0.0491 -0.0169
 1162ERGO    R315686   6.671   9.406   9.272  0.0044  0.0787  0.0326
 1162ERGO    R415687   6.926   9.275   9.213 -0.1297 -0.1570 -0.0709
 1162ERGO    R515688   6.846   9.453   9.116 -0.0072 -0.0735 -0.0320
 1162ERGO    C115689   6.883   9.222   8.814 -0.3324 -0.0998 -0.0561
 1162ERGO    C215690   6.897   9.190   8.489  0.0247 -0.0646 -0.0747
 1163ERGO   ROH15691  16.387  10.040  10.139 -0.3505 -0.1248 -0.0766
 1163ERGO    R115692  16.447   9.927   9.887 -0.1493 -0.0965 -0.0425
 1163ERGO    R215693  16.254   9.880   9.695 -0.0157 -0.1916 -0.1532
 1163ERGO    R315694  16.420  10.028   9.539  0.0027 -0.1120 -0.0601
 1163ERGO    R415695  16.234   9.902   9.351  0.1034 -0.1240 -0.1567
 1163ERGO    R515696  16.451   9.895   9.342  0.1105 -0.0631 -0.0784
 1163ERGO    C115697  16.378  10.054   9.003  0.1896 -0.0100 -0.0715
 1163ERGO    C215698  16.256   9.938   8.622  0.1658 -0.2335  0.0311
 1164ERGO   ROH15699   5.563  15.186   6.591 -0.3449  0.0869 -0.0614
 1164ERGO    R115700   5.493  15.270   6.852 -0.1046 -0.1181  0.0749
 1164ERGO    R215701   5.553  15.122   7.078  0.1547 -0.2733 -0.0866
 1164ERGO    R315702   5.669  15.354   7.159  0.1862 -0.3067 -0.0378
 1164ERGO    R415703   5.665  15.186   7.398  0.0867 -0.3174 -0.0541
 1164ERGO    R515704   5.586  15.388   7.381  0.1389 -0.3017 -0.0590
 1164ERGO    C115705   5.840  15.441   7.661  0.0766 -0.3746  0.0107
 1164ERGO    C215706   5.863  15.345   8.018 -0.0579  0.0972 -0.2544
 1165ERGO   ROH15707   2.775   5.302   9.552  0.0656 -0.1323 -0.0280
 1165ERGO    R115708   2.654   5.357   9.302 -0.0123 -0.1178  0.0129
 1165ERGO    R215709   2.723   5.576   9.148  0.0138 -0.1659 -0.0431
 1165ERGO    R315710   2.764   5.387   8.957 -0.1374 -0.2079 -0.0354
 1165ERGO    R415711   2.678   5.625   8.809  0.1016 -0.1301 -0.0502
 1165ERGO    R515712   2.590   5.426   8.796 -0.0822 -0.0497 -0.0578
 1165ERGO    C115713   2.690   5.477   8.432  0.0107 -0.1488 -0.0471
 1165ERGO    C215714   2.751   5.326   8.150  0.3251 -0.1516  0.0983
 1166ERGO   ROH15715   5.381   8.093   9.477  0.0724 -0.1168 -0.0020
 1166ERGO    R115716   5.512   8.065   9.228 -0.0126 -0.0497 -0.0554
 1166ERGO    R215717   5.421   7.895   9.030 -0.0722 -0.0082 -0.0653
 1166ERGO    R315718   5.429   8.120   8.878 -0.1389  0.0295 -0.0132
 1166ERGO    R415719   5.445   7.900   8.686  0.0935  0.0793 -0.0530
 1166ERGO    R515720   5.584   8.068   8.703 -0.0196  0.1629  0.0500
 1166ERGO    C115721   5.468   8.114   8.342  0.1273  0.1655  0.0031
 1166ERGO    C215722   5.330   8.226   8.108  0.1313 -0.0749  0.0486
 1167ERGO   ROH15723   4.391   8.048   9.264 -0.0099  0.2119  0.0888
 1167ERGO    R115724   4.479   8.142   9.013 -0.0114  0.0284  0.0172
 1167ERGO    R215725   4.527   7.974   8.799 -0.1520 -0.1153  0.0935
 1167ERGO    R315726   4.354   8.141   8.671 -0.0887 -0.0861  0.0463
 1167ERGO    R415727   4.483   7.990   8.456 -0.1217 -0.1652  0.0874
 1167ERGO    R515728   4.470   8.207   8.473 -0.0549 -0.1604  0.0434
 1167ERGO    C115729   4.295   8.156   8.137 -0.0447 -0.1668  0.0396
 1167ERGO    C215730   4.279   8.148   7.729 -0.0859  0.2867 -0.0396
 1168ERGO   ROH15731   9.318   5.582   6.522 -0.0281 -0.0176 -0.0868
 1168ERGO    R115732   9.215   5.530   6.781 -0.0333  0.0983 -0.0651
 1168ERGO    R215733   9.369   5.422   6.983 -0.0725  0.0651 -0.0540
 1168ERGO    R315734   9.285   5.641   7.120  0.0549  0.1427 -0.0971
 1168ERGO    R415735   9.407   5.469   7.324  0.0817  0.1748 -0.0846
 1168ERGO    R515736   9.206   5.554   7.329  0.1107  0.2425 -0.0330
 1168ERGO    C115737   9.349   5.701   7.650  0.2911  0.3115 -0.1427
 1168ERGO    C215738   9.349   5.911   7.896 -0.0896 -0.0862  0.2115
 1169ERGO   ROH15739  17.579   9.976   6.441 -0.1955  0.1641  0.1672
 1169ERGO    R115740  17.603   9.874   6.705 -0.0566  0.1110  0.1356
 1169ERGO    R215741  17.840   9.776   6.805  0.0083  0.1238  0.0048
 1169ERGO    R315742  17.794   9.956   7.003  0.0726  0.0767  0.0622
 1169ERGO    R415743  18.066   9.858   7.054  0.0622  0.0229 -0.0108
 1169ERGO    R515744  17.900   9.861   7.196  0.0900  0.0105  0.0175
 1169ERGO    C115745  18.153  10.075   7.385  0.1536 -0.0803  0.0342
 1169ERGO    C215746  18.178  10.158   7.671 -0.4280 -0.1906 -0.2218
 1170ERGO   ROH15747   6.746  15.599  10.303 -0.1060  0.1416 -0.1034
 1170ERGO    R115748   6.891  15.556  10.063 -0.1379  0.0037 -0.0998
 1170ERGO    R215749   6.806  15.381   9.867 -0.2974  0.0774 -0.1032
 1170ERGO    R315750   6.831  15.599   9.707 -0.0912  0.0567 -0.1004
 1170ERGO    R415751   6.836  15.372   9.522 -0.0407  0.0487 -0.0816
 1170ERGO    R515752   6.984  15.531   9.536  0.0101 -0.0108  0.0186
 1170ERGO    C115753   6.877  15.572   9.172  0.3024  0.0126 -0.0663
 1170ERGO    C215754   6.971  15.462   8.922 -0.1601 -0.0396  0.4220
 1171ERGO   ROH15755  13.274   6.039  10.515 -0.1756  0.2941 -0.0171
 1171ERGO    R115756  13.410   6.042  10.267 -0.1210  0.2553  0.0134
 1171ERGO    R215757  13.389   5.836  10.084 -0.0125  0.1907  0.0810
 1171ERGO    R315758  13.317   6.037   9.915 -0.0369  0.1088 -0.0091
 1171ERGO    R415759  13.379   5.812   9.739 -0.0430  0.0149  0.0926
 1171ERGO    R515760  13.463   6.012   9.727 -0.0489  0.0182 -0.0124
 1171ERGO    C115761  13.306   5.986   9.380 -0.0835 -0.1643  0.0146
 1171ERGO    C215762  13.286   5.911   9.059 -0.1362 -0.1509  0.3691
 1172ERGO   ROH15763   8.831   6.437   6.638 -0.0386 -0.0102 -0.0305
 1172ERGO    R115764   8.793   6.296   6.880 -0.0218 -0.0041 -0.0246
 1172ERGO    R215765   8.859   6.402   7.126 -0.0737  0.0311 -0.0267
 1172ERGO    R315766   8.600   6.342   7.186 -0.0629 -0.0365 -0.0453
 1172ERGO    R415767   8.719   6.424   7.442 -0.0701 -0.1246 -0.0132
 1172ERGO    R515768   8.612   6.238   7.401 -0.0407 -0.1259 -0.0888
 1172ERGO    C115769   8.395   6.380   7.681 -0.0579 -0.2788 -0.0228
 1172ERGO    C215770   8.164   6.366   8.044 -0.1032  0.0637  0.1538
 1173ERGO   ROH15771  16.728   2.715   6.548 -0.1522 -0.0822 -0.1317
 1173ERGO    R115772  16.634   2.912   6.728 -0.0674 -0.0546 -0.1169
 1173ERGO    R215773  16.487   2.850   6.954 -0.0450 -0.0122 -0.0907
 1173ERGO    R315774  16.681   2.993   7.079  0.0159 -0.0634 -0.1257
 1173ERGO    R415775  16.435   3.056   7.227  0.0389  0.0875 -0.1492
 1173ERGO    R515776  16.574   3.199   7.139  0.1058  0.0016 -0.1859
 1173ERGO    C115777  16.587   3.310   7.504  0.1448  0.0975 -0.2162
 1173ERGO    C215778  16.657   3.507   7.745 -0.1055  0.1812 -0.1183
 1174ERGO   ROH15779  12.184   6.909  10.500 -0.1492 -0.0941  0.1108
 1174ERGO    R115780  12.250   7.004  10.242 -0.3218  0.0043  0.1020
 1174ERGO    R215781  12.389   6.851  10.058 -0.0141  0.2463  0.1286
 1174ERGO    R315782  12.176   6.908   9.898 -0.1256 -0.1847  0.1101
 1174ERGO    R415783  12.395   6.852   9.712 -0.0185  0.1381  0.1274
 1174ERGO    R515784  12.270   7.030   9.715 -0.3403 -0.0759  0.0673
 1174ERGO    C115785  12.199   6.905   9.362 -0.1258 -0.3294  0.1093
 1174ERGO    C215786  12.296   7.035   9.014  0.2179 -0.2608  0.1437
 1175ERGO   ROH15787   8.892   7.416   6.533 -0.0923 -0.1348  0.0009
 1175ERGO    R115788   8.879   7.501   6.803  0.1636 -0.0963  0.0036
 1175ERGO    R215789   8.690   7.406   6.980  0.0255  0.2812  0.0708
 1175ERGO    R315790   8.907   7.344   7.130 -0.0359 -0.1467 -0.0024
 1175ERGO    R415791   8.692   7.389   7.325  0.1700  0.5737  0.0867
 1175ERGO    R515792   8.888   7.485   7.323  0.4281  0.0801 -0.1084
 1175ERGO    C115793   8.899   7.321   7.667  0.1965  0.3423  0.0272
 1175ERGO    C215794   8.801   7.280   8.060  0.0773 -0.0806 -0.0702
 1176ERGO   ROH15795   0.169  14.311   6.368 -0.2057 -0.1993 -0.0874
 1176ERGO    R115796   0.263  14.361   6.630 -0.2672 -0.0765 -0.0887
 1176ERGO    R215797   0.110  14.315   6.855 -0.1959 -0.3081 -0.0892
 1176ERGO    R315798   0.324  14.165   6.931  0.0243 -0.0082 -0.0988
 1176ERGO    R415799   0.218  14.276   7.181 -0.2371 -0.2934 -0.0728
 1176ERGO    R515800   0.424  14.290   7.110 -0.2293  0.0699 -0.0045
 1176ERGO    C115801   0.483  14.112   7.442 -0.0543 -0.0033 -0.0724
 1176ERGO    C215802   0.629  13.915   7.663  0.1729  0.1334  0.0711
 1177ERGO   ROH15803   0.609   8.454   9.900  0.3190  0.2386 -0.1700
 1177ERGO    R115804   0.435   8.521   9.687  0.2034  0.0827 -0.1266
 1177ERGO    R215805   0.527   8.608   9.440  0.0701 -0.0881 -0.2386
 1177ERGO    R315806   0.374   8.403   9.348  0.0257 -0.1589 -0.0138
 1177ERGO    R415807   0.420   8.571   9.114 -0.1542 -0.2889 -0.1452
 1177ERGO    R515808   0.228   8.504   9.189 -0.0963 -0.2666  0.0284
 1177ERGO    C115809   0.214   8.357   8.837 -0.3266 -0.4723  0.1203
 1177ERGO    C215810   0.026   8.303   8.558  0.3615 -0.0081 -0.0578
 1178ERGO   ROH15811   9.532  11.184  10.277  0.2801 -0.0965  0.1341
 1178ERGO    R115812   9.449  11.161  10.008  0.1334 -0.1671  0.1839
 1178ERGO    R215813   9.499  11.356   9.819 -0.1593 -0.1133  0.1506
 1178ERGO    R315814   9.609  11.149   9.681 -0.0536 -0.0145  0.0856
 1178ERGO    R415815   9.482  11.315   9.476 -0.2917 -0.1161  0.1577
 1178ERGO    R515816   9.451  11.102   9.508 -0.0965 -0.1410  0.1626
 1178ERGO    C115817   9.575  11.097   9.148 -0.2696 -0.0251  0.1007
 1178ERGO    C215818   9.604  11.195   8.766 -0.0036  0.5434 -0.1530
 1179ERGO   ROH15819  11.836  10.494   6.863 -0.0143  0.0932 -0.0338
 1179ERGO    R115820  11.691  10.489   7.106  0.0297  0.2396 -0.0029
 1179ERGO    R215821  11.690  10.269   7.274 -0.3284  0.1507 -0.1069
 1179ERGO    R315822  11.769  10.452   7.459  0.0517 -0.0738 -0.0386
 1179ERGO    R415823  11.605  10.262   7.609 -0.3386  0.2018 -0.1090
 1179ERGO    R515824  11.580  10.478   7.603  0.1027  0.2625 -0.0272
 1179ERGO    C115825  11.630  10.428   7.978  0.0124  0.0209 -0.0459
 1179ERGO    C215826  11.662  10.599   8.294 -0.1909 -0.3426  0.0282
 1180ERGO   ROH15827  11.780  11.972  10.190  0.1132  0.1101  0.0693
 1180ERGO    R115828  11.736  11.871   9.929  0.1681  0.0576  0.0801
 1180ERGO    R215829  11.553  11.983   9.755  0.0340 -0.1218  0.1030
 1180ERGO    R315830  11.767  11.997   9.589 -0.0023  0.0748  0.0701
 1180ERGO    R415831  11.540  12.076   9.423 -0.0871 -0.0402  0.1300
 1180ERGO    R515832  11.684  11.920   9.378  0.0167  0.0733  0.0634
 1180ERGO    C115833  11.734  12.143   9.073 -0.1917  0.1920  0.1149
 1180ERGO    C215834  11.866  12.135   8.773  0.1041 -0.0474  0.0678
 1181ERGO   ROH15835   5.322   0.040   6.195  0.2202  0.2217 -0.0753
 1181ERGO    R115836   5.403   0.172   6.432 -0.0265  0.4424 -0.1075
 1181ERGO    R215837   5.287   0.408   6.518 -0.5965  0.1789 -0.0828
 1181ERGO    R315838   5.247   0.267   6.747 -0.1764  0.0754 -0.0678
 1181ERGO    R415839   5.329   0.532   6.838 -0.1257  0.0585 -0.0922
 1181ERGO    R515840   5.419   0.343   6.895  0.0345  0.0719 -0.3109
 1181ERGO    C115841   5.316   0.472   7.239  0.5428 -0.1088 -0.0837
 1181ERGO    C215842   5.218   0.774   7.402 -0.0159  0.0742 -0.1611
 1182ERGO   ROH15843  10.749   4.182   6.942  0.2194 -0.0839  0.0481
 1182ERGO    R115844  10.950   4.159   7.139  0.1871  0.1169  0.1077
 1182ERGO    R215845  11.039   4.375   7.287 -0.0042  0.2266  0.0727
 1182ERGO    R315846  10.976   4.215   7.498  0.0525  0.2391  0.0982
 1182ERGO    R415847  11.173   4.405   7.605  0.0405  0.2683  0.0494
 1182ERGO    R515848  11.183   4.187   7.615  0.0705  0.2752  0.0683
 1182ERGO    C115849  11.192   4.272   7.987  0.1198  0.3042  0.0599
 1182ERGO    C215850  11.099   4.422   8.373 -0.1970 -0.3492  0.2112
 1183ERGO   ROH15851   1.836   6.873   5.914  0.1401  0.2080 -0.0627
 1183ERGO    R115852   1.847   7.009   6.162  0.0168  0.1319 -0.0140
 1183ERGO    R215853   1.746   6.901   6.395 -0.0033  0.0130 -0.0737
 1183ERGO    R315854   1.997   6.952   6.488 -0.0481  0.0849  0.0069
 1183ERGO    R415855   1.827   6.952   6.728 -0.1019 -0.0880 -0.0343
 1183ERGO    R515856   1.963   7.110   6.665 -0.1574 -0.0036  0.0642
 1183ERGO    C115857   2.109   7.029   7.008 -0.2013 -0.0793  0.0642
 1183ERGO    C215858   2.171   7.184   7.280  0.0600  0.1933  0.0018
 1184ERGO   ROH15859   4.366  11.070   6.302  0.3073 -0.1839  0.0533
 1184ERGO    R115860   4.247  11.160   6.542  0.1939 -0.1424 -0.0179
 1184ERGO    R215861   3.985  11.103   6.609  0.1841 -0.1902 -0.0997
 1184ERGO    R315862   4.098  11.007   6.837  0.1235 -0.0925 -0.0272
 1184ERGO    R415863   3.813  11.031   6.900  0.0670 -0.2913 -0.1922
 1184ERGO    R515864   3.978  11.116   7.013 -0.0570 -0.1634 -0.1023
 1184ERGO    C115865   3.819  10.899   7.283 -0.0581 -0.2584 -0.1781
 1184ERGO    C215866   3.512  10.864   7.572 -0.2442  0.2907 -0.1341
 1185ERGO   ROH15867  11.897   6.153  10.521 -0.1120 -0.1814 -0.0546
 1185ERGO    R115868  11.910   6.058  10.255 -0.0331 -0.1149 -0.0751
 1185ERGO    R215869  11.690   5.958  10.122  0.0153 -0.1195 -0.1513
 1185ERGO    R315870  11.759   6.144   9.935  0.0283 -0.0634 -0.0910
 1185ERGO    R415871  11.689   5.905   9.780 -0.1149  0.0277 -0.1752
 1185ERGO    R515872  11.875   6.019   9.767 -0.0730 -0.0375 -0.1829
 1185ERGO    C115873  11.753   6.047   9.406 -0.1785  0.1660 -0.1327
 1185ERGO    C215874  11.839   5.939   9.018  0.1732 -0.1353 -0.3492
 1186ERGO   ROH15875  13.936   4.112  10.306 -0.1596 -0.0365  0.0290
 1186ERGO    R115876  13.825   4.163  10.050 -0.0067  0.0668 -0.0178
 1186ERGO    R215877  13.935   4.345   9.874  0.2385 -0.0394  0.0260
 1186ERGO    R315878  13.933   4.132   9.704  0.1063 -0.0383  0.0253
 1186ERGO    R415879  13.874   4.363   9.534 -0.2577 -0.0570  0.1070
 1186ERGO    R515880  13.756   4.181   9.550 -0.1453 -0.1214  0.2749
 1186ERGO    C115881  13.836   4.174   9.177 -0.6707 -0.0662  0.1536
 1186ERGO    C215882  13.877   4.204   8.920  0.3510  0.2032  0.0195
 1187ERGO   ROH15883   8.273  12.908  10.281 -0.1487 -0.0934 -0.0080
 1187ERGO    R115884   8.407  13.033  10.066 -0.1125 -0.1506 -0.0200
 1187ERGO    R215885   8.578  12.896   9.897 -0.1062 -0.2049  0.0223
 1187ERGO    R315886   8.416  12.999   9.704 -0.0801 -0.2273 -0.0105
 1187ERGO    R415887   8.674  12.962   9.571  0.0079  0.0345  0.1023
 1187ERGO    R515888   8.557  13.145   9.578 -0.1287 -0.0593  0.1352
 1187ERGO    C115889   8.579  13.096   9.201  0.0988  0.1529  0.1182
 1187ERGO    C215890   8.553  13.086   8.804  0.3095  0.3667  0.0202
 1188ERGO   ROH15891  11.577   6.438   7.018  0.0384 -0.1631  0.0479
 1188ERGO    R115892  11.694   6.401   7.274 -0.0788  0.0831  0.1404
 1188ERGO    R215893  11.553   6.439   7.508 -0.3009 -0.0556  0.0343
 1188ERGO    R315894  11.636   6.186   7.562  0.0404  0.0775  0.1597
 1188ERGO    R415895  11.534   6.286   7.818 -0.1893  0.0304  0.0844
 1188ERGO    R515896  11.731   6.199   7.781 -0.0524  0.2933  0.1870
 1188ERGO    C115897  11.602   5.959   8.048  0.1962  0.2055  0.2314
 1188ERGO    C215898  11.517   5.954   8.450 -0.1017 -0.1096 -0.0625
 1189ERGO   ROH15899  15.063  17.308   6.375 -0.0403  0.1501  0.1652
 1189ERGO    R115900  15.221  17.217   6.592 -0.1967  0.1038  0.2595
 1189ERGO    R215901  15.412  17.375   6.714 -0.1005 -0.0158  0.2498
 1189ERGO    R315902  15.274  17.313   6.939 -0.2287  0.2078  0.2382
 1189ERGO    R415903  15.504  17.467   7.034 -0.0173 -0.0851  0.2474
 1189ERGO    R515904  15.443  17.269   7.103 -0.3034 -0.0007  0.2712
 1189ERGO    C115905  15.428  17.461   7.432 -0.0892  0.0844  0.2351
 1189ERGO    C215906  15.433  17.534   7.766  0.0792  0.0571  0.1727
 1190ERGO   ROH15907   6.957  10.972   7.951  0.2376 -0.1744  0.1078
 1190ERGO    R115908   7.109  11.206   7.995  0.0595 -0.0014 -0.1804
 1190ERGO    R215909   7.346  11.206   8.136 -0.0754  0.3929  0.0480
 1190ERGO    R315910   7.443  11.324   7.912  0.0713  0.0402 -0.0836
 1190ERGO    R415911   7.659  11.350   8.110 -0.0494  0.3368  0.0314
 1190ERGO    R515912   7.569  11.511   7.993  0.0256  0.1688 -0.2854
 1190ERGO    C115913   7.933  11.545   7.883  0.1034 -0.0269 -0.1017
 1190ERGO    C215914   8.134  11.535   7.633  0.3058 -0.0424 -0.2371
 1191ERGO   ROH15915   0.521   7.683   6.241  0.0650  0.2251  0.0234
 1191ERGO    R115916   0.483   7.695   6.521 -0.0288  0.1825  0.0131
 1191ERGO    R215917   0.525   7.478   6.687 -0.1821  0.1259 -0.0150
 1191ERGO    R315918   0.688   7.651   6.819 -0.1512  0.0283  0.0750
 1191ERGO    R415919   0.641   7.433   7.009 -0.1036 -0.1067 -0.0741
 1191ERGO    R515920   0.609   7.645   7.045 -0.0944 -0.1352  0.0896
 1191ERGO    C115921   0.861   7.569   7.321 -0.0289 -0.3339 -0.0239
 1191ERGO    C215922   0.979   7.539   7.651  0.0335 -0.0375 -0.1551
 1192ERGO   ROH15923   4.580   8.107   5.874 -0.1238  0.1869 -0.2463
 1192ERGO    R115924   4.413   8.231   6.067 -0.1707  0.0422 -0.1910
 1192ERGO    R215925   4.279   8.089   6.261  0.0778 -0.0708 -0.0949
 1192ERGO    R315926   4.405   8.261   6.429 -0.0279  0.1031 -0.1921
 1192ERGO    R415927   4.209   8.123   6.598 -0.1303  0.2715 -0.1690
 1192ERGO    R515928   4.232   8.339   6.576 -0.1204  0.2513 -0.3756
 1192ERGO    C115929   4.286   8.305   6.952 -0.3508  0.6341 -0.3034
 1192ERGO    C215930   4.399   8.232   7.273 -0.1505  0.2479 -0.1613
 1193ERGO   ROH15931  10.372  17.299   6.530 -0.0271  0.0599  0.0473
 1193ERGO    R115932  10.504  17.217   6.767 -0.0684 -0.1793 -0.0106
 1193ERGO    R215933  10.475  17.350   7.007  0.1794 -0.2000  0.0304
 1193ERGO    R315934  10.406  17.104   7.099 -0.1268 -0.1336 -0.0111
 1193ERGO    R415935  10.436  17.268   7.340  0.4769 -0.2937  0.0449
 1193ERGO    R515936  10.534  17.077   7.299  0.1009 -0.4524 -0.1872
 1193ERGO    C115937  10.349  16.989   7.620  0.3625 -0.2858  0.0145
 1193ERGO    C215938  10.139  16.848   7.849  0.2115 -0.2454  0.1642
 1194ERGO   ROH15939  10.857  17.175  10.532 -0.3364 -0.0288  0.0843
 1194ERGO    R115940  10.695  17.099  10.313 -0.2012  0.0320 -0.0386
 1194ERGO    R215941  10.646  17.266  10.099  0.0342  0.0456 -0.0846
 1194ERGO    R315942  10.739  17.056   9.954  0.0568  0.0010 -0.0057
 1194ERGO    R415943  10.649  17.249   9.754  0.0229 -0.0879 -0.0787
 1194ERGO    R515944  10.589  17.041   9.768  0.0512 -0.0910  0.0053
 1194ERGO    C115945  10.738  17.042   9.417  0.0376 -0.2073 -0.0010
 1194ERGO    C215946  10.747  17.094   9.144  0.0051  0.1969 -0.0282
 1195ERGO   ROH15947  13.185   2.269  10.345  0.2215  0.2270  0.0952
 1195ERGO    R115948  13.251   2.320  10.075  0.0452  0.2668  0.0580
 1195ERGO    R215949  13.367   2.130   9.911  0.2370  0.3871  0.0451
 1195ERGO    R315950  13.155   2.186   9.750  0.0897  0.0767  0.1235
 1195ERGO    R415951  13.371   2.117   9.566  0.1329  0.4436  0.0419
 1195ERGO    R515952  13.251   2.298   9.562 -0.1544  0.2549  0.1054
 1195ERGO    C115953  13.175   2.163   9.214 -0.0661  0.1851  0.1136
 1195ERGO    C215954  13.219   2.065   8.970 -0.1913 -0.0149  0.0844
 1196ERGO   ROH15955  17.647  12.865   6.362 -0.1516 -0.2646  0.0881
 1196ERGO    R115956  17.798  12.771   6.581  0.0136 -0.1270  0.0351
 1196ERGO    R215957  18.061  12.845   6.624 -0.0465  0.1369 -0.0428
 1196ERGO    R315958  17.967  12.918   6.868 -0.0439  0.0252 -0.0077
 1196ERGO    R415959  18.210  12.766   6.926 -0.0054  0.0552 -0.0839
 1196ERGO    R515960  18.012  12.730   7.009  0.0079 -0.0189 -0.0818
 1196ERGO    C115961  18.207  12.788   7.331  0.0210 -0.0973 -0.0750
 1196ERGO    C215962  18.435  12.819   7.615  0.1575  0.4390  0.0445
 1197ERGO   ROH15963   0.303   0.143   6.391 -0.0713 -0.2100  0.0424
 1197ERGO    R115964   0.256   0.322   6.605  0.0742 -0.3651  0.2066
 1197ERGO    R215965   0.431   0.349   6.818  0.4443 -0.2112 -0.1073
 1197ERGO    R315966   0.423   0.612   6.749 -0.0589 -0.1852  0.0075
 1197ERGO    R415967   0.467   0.612   7.039  0.3348 -0.2506 -0.0414
 1197ERGO    R515968   0.310   0.718   6.931  0.0159 -0.4416  0.2125
 1197ERGO    C115969   0.481   1.012   7.102 -0.2015 -0.2491  0.1047
 1197ERGO    C215970   0.476   1.251   7.166 -0.2915  0.0368  0.0525
 1198ERGO   ROH15971   9.077  14.171   6.578  0.2073  0.0772  0.0811
 1198ERGO    R115972   9.112  13.984   6.787  0.1678  0.0226  0.0390
 1198ERGO    R215973   9.294  14.021   6.991  0.0073  0.0523  0.1779
 1198ERGO    R315974   9.075  13.981   7.149 -0.0804 -0.1252  0.0153
 1198ERGO    R415975   9.304  13.940   7.327 -0.1758  0.0223  0.1775
 1198ERGO    R515976   9.139  13.802   7.294 -0.0532 -0.0962  0.0401
 1198ERGO    C115977   9.106  13.855   7.670 -0.3648 -0.1616  0.0247
 1198ERGO    C215978   9.108  13.773   8.047  0.3335 -0.0335 -0.1195
 1199ERGO   ROH15979   5.143   9.521   6.022 -0.0449 -0.1520  0.0530
 1199ERGO    R115980   5.085   9.489   6.298 -0.1384  0.0274  0.0552
 1199ERGO    R215981   5.255   9.356   6.471 -0.3164 -0.0812  0.1487
 1199ERGO    R315982   5.239   9.588   6.613 -0.0997 -0.0010  0.0452
 1199ERGO    R415983   5.344   9.391   6.803 -0.4355 -0.0569  0.1785
 1199ERGO    R515984   5.170   9.519   6.831 -0.2936  0.1728  0.0409
 1199ERGO    C115985   5.381   9.629   7.129 -0.3014  0.0327  0.0987
 1199ERGO    C215986   5.358   9.647   7.492 -0.1728 -0.0781 -0.2324
 1200ERGO   ROH15987  11.336   2.200  10.378  0.1116 -0.1178  0.0312
 1200ERGO    R115988  11.373   2.283  10.110  0.0225 -0.1639  0.0044
 1200ERGO    R215989  11.621   2.346  10.007 -0.0261 -0.0712 -0.0563
 1200ERGO    R315990  11.554   2.162   9.818  0.0254 -0.1483 -0.0004
 1200ERGO    R415991  11.640   2.397   9.665  0.0473 -0.2032 -0.0725
 1200ERGO    R515992  11.451   2.291   9.644  0.0575 -0.2211 -0.0735
 1200ERGO    C115993  11.588   2.254   9.290  0.1384 -0.3525 -0.0295
 1200ERGO    C215994  11.523   2.148   9.019  0.3187  0.0879 -0.0761
 1201ERGO   ROH15995   1.194   9.554   6.224 -0.2486  0.0609  0.0457
 1201ERGO    R115996   1.237   9.404   6.461 -0.1144  0.0687  0.0271
 1201ERGO    R215997   1.393   9.496   6.669 -0.1308  0.1475  0.0040
 1201ERGO    R315998   1.170   9.445   6.816 -0.0735  0.0020  0.0430
 1201ERGO    R415999   1.362   9.554   7.008 -0.1154  0.1473  0.0056
 1201ERGO    R516000   1.253   9.366   7.026  0.0162  0.0718  0.0348
 1201ERGO    C116001   1.135   9.540   7.344 -0.0527  0.0108  0.0430
 1201ERGO    C216002   0.979   9.561   7.660  0.0994  0.1663  0.1286
 1202ERGO   ROH16003   9.311   8.576   6.597  0.0855  0.1307  0.1273
 1202ERGO    R116004   9.412   8.553   6.861  0.0812  0.0394  0.1213
 1202ERGO    R216005   9.636   8.690   6.947 -0.0022  0.1175  0.2116
 1202ERGO    R316006   9.467   8.776   7.142 -0.0628 -0.0863  0.2522
 1202ERGO    R416007   9.732   8.770   7.269 -0.0450  0.0638  0.2377
 1202ERGO    R516008   9.550   8.674   7.342  0.0272 -0.1050  0.2086
 1202ERGO    C116009   9.630   8.898   7.640 -0.1266 -0.1589  0.2910
 1202ERGO    C216010   9.776   9.118   7.859  0.0426 -0.0130  0.0020
 1203ERGO   ROH16011  10.544  13.226   6.596 -0.0579 -0.1972  0.0685
 1203ERGO    R116012  10.586  13.109   6.851  0.0586  0.0318  0.1575
 1203ERGO    R216013  10.677  13.253   7.067 -0.1153  0.2934  0.0615
 1203ERGO    R316014  10.455  13.153   7.187 -0.0126  0.1290  0.1176
 1203ERGO    R416015  10.660  13.149   7.397  0.0522  0.2488  0.0568
 1203ERGO    R516016  10.538  12.981   7.332  0.1478  0.1708  0.0770
 1203ERGO    C116017  10.442  12.994   7.701  0.2462  0.0685  0.1068
 1203ERGO    C216018  10.464  12.854   8.053 -0.2734 -0.0917 -0.0865
 1204ERGO   ROH16019   9.454   7.336  10.363  0.1264  0.0926 -0.0247
 1204ERGO    R116020   9.354   7.407  10.108  0.0262  0.0404 -0.0013
 1204ERGO    R216021   9.506   7.541   9.920 -0.0500  0.0156 -0.0867
 1204ERGO    R316022   9.435   7.332   9.761 -0.0984 -0.0196 -0.0174
 1204ERGO    R416023   9.510   7.545   9.574 -0.2494 -0.0330 -0.0898
 1204ERGO    R516024   9.323   7.433   9.576 -0.2245 -0.0701  0.0327
 1204ERGO    C116025   9.446   7.351   9.224 -0.4108 -0.0944 -0.0266
 1204ERGO    C216026   9.472   7.430   8.937  0.0397 -0.0916  0.2865
 1205ERGO   ROH16027   5.554   8.253   6.264  0.0945 -0.0987 -0.0096
 1205ERGO    R116028   5.351   8.220   6.459  0.1095  0.0079  0.0237
 1205ERGO    R216029   5.275   7.972   6.555 -0.1164  0.0355 -0.0852
 1205ERGO    R316030   5.328   8.086   6.796  0.0573 -0.1403 -0.0370
 1205ERGO    R416031   5.223   7.820   6.861 -0.2707 -0.0500 -0.1527
 1205ERGO    R516032   5.150   8.011   6.938 -0.0256  0.0118 -0.0533
 1205ERGO    C116033   5.242   7.838   7.265 -0.1975 -0.2649 -0.1467
 1205ERGO    C216034   5.329   7.552   7.421  0.1182  0.1198  0.3518
 1206ERGO   ROH16035  11.960  13.583   6.941 -0.1376 -0.0380  0.0638
 1206ERGO    R116036  11.966  13.635   7.219  0.0063 -0.2709  0.1076
 1206ERGO    R216037  12.173  13.550   7.382  0.2412 -0.1601 -0.1179
 1206ERGO    R316038  12.183  13.813   7.450 -0.0370 -0.1999  0.0910
 1206ERGO    R416039  12.371  13.682   7.633  0.1793 -0.1236 -0.0886
 1206ERGO    R516040  12.205  13.812   7.689  0.0518 -0.3609  0.0785
 1206ERGO    C116041  12.496  14.005   7.844 -0.1180 -0.1397  0.1245
 1206ERGO    C216042  12.694  13.857   8.090 -0.2556 -0.0465  0.2236
 1207ERGO   ROH16043   9.356  11.669  10.147  0.1063  0.2186  0.1469
 1207ERGO    R116044   9.367  11.858   9.937 -0.0405  0.0980  0.0277
 1207ERGO    R216045   9.593  11.898   9.785 -0.0441  0.2353  0.0580
 1207ERGO    R316046   9.423  11.852   9.578  0.0520 -0.0736  0.0436
 1207ERGO    R416047   9.628  12.033   9.469 -0.1303  0.1170 -0.0022
 1207ERGO    R516048   9.412  12.063   9.463 -0.1700 -0.1405 -0.0661
 1207ERGO    C116049   9.489  12.068   9.090 -0.0904 -0.2420 -0.0508
 1207ERGO    C216050   9.660  12.141   8.838 -0.1158 -0.2277  0.2537
 1208ERGO   ROH16051  16.469  12.666   6.720  0.0134 -0.0744  0.0038
 1208ERGO    R116052  16.606  12.633   6.966  0.0879  0.0648 -0.0185
 1208ERGO    R216053  16.650  12.842   7.140 -0.2299  0.0844  0.0436
 1208ERGO    R316054  16.530  12.676   7.319  0.0454 -0.1674  0.0022
 1208ERGO    R416055  16.716  12.837   7.480 -0.2335  0.1218  0.0450
 1208ERGO    R516056  16.704  12.619   7.473  0.1421  0.0970 -0.0040
 1208ERGO    C116057  16.641  12.677   7.845  0.0227 -0.0928  0.0071
 1208ERGO    C216058  16.663  12.695   8.201 -0.0905  0.1582  0.0290
 1209ERGO   ROH16059   2.952   0.367   6.711 -0.1570  0.0720 -0.0282
 1209ERGO    R116060   2.810   0.234   6.916 -0.1716 -0.0159 -0.0950
 1209ERGO    R216061   2.897   0.230   7.179 -0.1408 -0.2088 -0.1092
 1209ERGO    R316062   2.649   0.327   7.229 -0.1059 -0.1661 -0.0145
 1209ERGO    R416063   2.762   0.273   7.493 -0.0054 -0.1720 -0.0547
 1209ERGO    R516064   2.571   0.201   7.416 -0.0501 -0.1461  0.0243
 1209ERGO    C116065   2.449   0.390   7.724  0.1062 -0.1104  0.0659
 1209ERGO    C216066   2.421   0.618   7.995 -0.0544  0.2262  0.2264
 1210ERGO   ROH16067   3.882   3.634   6.268 -0.2834  0.1802 -0.3518
 1210ERGO    R116068   3.799   3.773   6.500 -0.1686  0.0357 -0.2221
 1210ERGO    R216069   3.568   3.707   6.639 -0.0716 -0.0862 -0.1147
 1210ERGO    R316070   3.739   3.691   6.850  0.0627 -0.1704 -0.2282
 1210ERGO    R416071   3.475   3.725   6.971  0.1645 -0.0010 -0.0509
 1210ERGO    R516072   3.652   3.846   7.009  0.2644 -0.1039 -0.1804
 1210ERGO    C116073   3.581   3.720   7.362  0.4280 -0.0305 -0.1203
 1210ERGO    C216074   3.497   3.770   7.687 -0.0841  0.0782 -0.1279
 1211ERGO   ROH16075  10.507   2.483   6.957  0.2070  0.0306 -0.0999
 1211ERGO    R116076  10.461   2.448   7.235  0.0588  0.5051 -0.0568
 1211ERGO    R216077  10.581   2.247   7.382 -0.6493  0.2183  0.1730
 1211ERGO    R316078  10.660   2.455   7.539  0.0846  0.1430 -0.0620
 1211ERGO    R416079  10.713   2.217   7.700 -0.7623  0.1104  0.2108
 1211ERGO    R516080  10.597   2.391   7.760 -0.1648  0.6119  0.0136
 1211ERGO    C116081  10.865   2.395   8.032 -0.1391 -0.0233  0.0122
 1211ERGO    C216082  11.132   2.355   8.188  0.2090  0.0288 -0.0313
 1212ERGO   ROH16083  12.705   4.584  10.509  0.1674 -0.0049 -0.1169
 1212ERGO    R116084  12.652   4.676  10.247  0.0591 -0.0187 -0.0982
 1212ERGO    R216085  12.832   4.645  10.039 -0.0449 -0.0567 -0.1707
 1212ERGO    R316086  12.620   4.526   9.917 -0.1137 -0.0349 -0.0782
 1212ERGO    R416087  12.775   4.643   9.698  0.0507 -0.4133 -0.1912
 1212ERGO    R516088  12.563   4.674   9.738  0.0556 -0.1904 -0.2751
 1212ERGO    C116089  12.542   4.531   9.385  0.0418 -0.6004 -0.1160
 1212ERGO    C216090  12.501   4.584   9.040 -0.1643  0.0555 -0.0314
 1213ERGO   ROH16091  17.927  12.080   6.382 -0.3191  0.0562  0.1027
 1213ERGO    R116092  17.751  11.926   6.541 -0.1551 -0.0283  0.2048
 1213ERGO    R216093  17.843  11.740   6.726  0.0407  0.0302  0.1761
 1213ERGO    R316094  17.686  11.883   6.897  0.0525 -0.0368  0.2414
 1213ERGO    R416095  17.800  11.669   7.061  0.0926 -0.0648  0.1622
 1213ERGO    R516096  17.589  11.718   7.040  0.0901 -0.0814  0.2091
 1213ERGO    C116097  17.628  11.761   7.417  0.1342 -0.1831  0.2155
 1213ERGO    C216098  17.502  11.741   7.784 -0.0674 -0.0708 -0.2114
 1214ERGO   ROH16099   2.033  11.253   6.480  0.0805  0.1146 -0.0419
 1214ERGO    R116100   1.986  11.218   6.757  0.1554  0.2021 -0.0180
 1214ERGO    R216101   2.010  10.972   6.882 -0.0859  0.1856 -0.0037
 1214ERGO    R316102   2.178  11.108   7.046  0.1499  0.0026 -0.0875
 1214ERGO    R416103   2.090  10.877   7.204 -0.1223  0.1566 -0.0027
 1214ERGO    R516104   2.079  11.087   7.264  0.1796  0.1926 -0.0521
 1214ERGO    C116105   2.296  10.949   7.546  0.0780 -0.0321 -0.0809
 1214ERGO    C216106   2.339  10.644   7.792  0.0253 -0.1827  0.2420
 1215ERGO   ROH16107  14.268  15.235  10.364 -0.0621  0.0842  0.0002
 1215ERGO    R116108  14.306  15.074  10.134 -0.1013  0.0600  0.0085
 1215ERGO    R216109  14.119  15.059   9.931 -0.1317  0.0548  0.0259
 1215ERGO    R316110  14.330  15.129   9.775 -0.1424  0.0315  0.0037
 1215ERGO    R416111  14.116  15.065   9.585 -0.1350  0.0025  0.0262
 1215ERGO    R516112  14.317  14.981   9.587 -0.1419  0.0093  0.0295
 1215ERGO    C116113  14.312  15.134   9.238 -0.1471 -0.0496  0.0055
 1215ERGO    C216114  14.357  15.167   8.967 -0.0212  0.0918 -0.0413
 1216ERGO   ROH16115   9.572   6.241   6.457 -0.2639  0.2570 -0.1106
 1216ERGO    R116116   9.696   6.238   6.711 -0.1849  0.0949 -0.1492
 1216ERGO    R216117   9.941   6.356   6.758 -0.1720  0.0668 -0.1501
 1216ERGO    R316118   9.805   6.486   6.954 -0.1121 -0.0590 -0.0226
 1216ERGO    R416119  10.052   6.394   7.084  0.0955  0.1597 -0.2491
 1216ERGO    R516120   9.848   6.358   7.152  0.1871 -0.0264 -0.0608
 1216ERGO    C116121   9.989   6.539   7.457  0.3076  0.0957 -0.1872
 1216ERGO    C216122  10.089   6.480   7.874  0.1795  0.1580 -0.1989
 1217ERGO   ROH16123  14.120  17.655  10.533 -0.1357  0.0366  0.0037
 1217ERGO    R116124  14.091  17.427  10.367 -0.0149  0.0173  0.0075
 1217ERGO    R216125  13.920  17.421  10.151 -0.0515 -0.0949  0.0353
 1217ERGO    R316126  14.144  17.347  10.016 -0.0234  0.0560 -0.0016
 1217ERGO    R416127  13.934  17.357   9.812 -0.0741 -0.1589  0.0465
 1217ERGO    R516128  14.066  17.189   9.854  0.0697 -0.0414  0.0515
 1217ERGO    C116129  14.152  17.250   9.487 -0.0610 -0.0546  0.0185
 1217ERGO    C216130  14.116  17.355   9.090 -0.1652  0.2134  0.0617
 1218ERGO   ROH16131   7.304   1.424   6.783  0.0757 -0.0068  0.1042
 1218ERGO    R116132   7.135   1.434   7.011 -0.0370 -0.2109  0.0324
 1218ERGO    R216133   7.146   1.247   7.213  0.1682 -0.1492  0.0769
 1218ERGO    R316134   7.178   1.466   7.371 -0.2324 -0.0592  0.0449
 1218ERGO    R416135   7.092   1.254   7.554  0.0855 -0.1821  0.0651
 1218ERGO    R516136   7.001   1.451   7.530 -0.2457 -0.3330  0.0110
 1218ERGO    C116137   7.091   1.464   7.901 -0.3387 -0.1166  0.0280
 1218ERGO    C216138   6.987   1.532   8.070 -0.1227  0.1912  0.1609
 1219ERGO   ROH16139   7.875  10.767   5.998  0.0131  0.3460  0.0025
 1219ERGO    R116140   7.702  10.695   6.209 -0.0423  0.2322 -0.0803
 1219ERGO    R216141   7.762  10.494   6.390 -0.0784  0.1525 -0.1564
 1219ERGO    R316142   7.717  10.690   6.573 -0.1470  0.0629 -0.0772
 1219ERGO    R416143   7.782  10.454   6.732 -0.0262  0.0286 -0.1735
 1219ERGO    R516144   7.605  10.579   6.753 -0.0801 -0.0567 -0.1079
 1219ERGO    C116145   7.751  10.615   7.104 -0.0602 -0.1278 -0.1093
 1219ERGO    C216146   7.978  10.656   7.433  0.1797  0.0354 -0.1219
 1220ERGO   ROH16147  13.498   9.951  10.326 -0.3991  0.0938  0.1488
 1220ERGO    R116148  13.561   9.800  10.095 -0.2776  0.1331  0.1556
 1220ERGO    R216149  13.368   9.682   9.936 -0.1907  0.0857  0.0826
 1220ERGO    R316150  13.491   9.821   9.738 -0.1697  0.1421  0.1349
 1220ERGO    R416151  13.368   9.592   9.603  0.0009  0.0822  0.0824
 1220ERGO    R516152  13.577   9.652   9.591 -0.0234  0.1824  0.1740
 1220ERGO    C116153  13.484   9.670   9.222  0.1321  0.1331  0.1314
 1220ERGO    C216154  13.400   9.546   8.921 -0.1578  0.1633  0.1326
 1221ERGO   ROH16155   2.293   1.231   9.860  0.0160  0.0070 -0.0692
 1221ERGO    R116156   2.089   1.185   9.669  0.0958 -0.0800 -0.1354
 1221ERGO    R216157   1.928   1.388   9.571 -0.1060 -0.1789 -0.0225
 1221ERGO    R316158   2.014   1.295   9.331  0.0392  0.0765 -0.0719
 1221ERGO    R416159   1.778   1.457   9.268 -0.0190  0.0004 -0.0252
 1221ERGO    R516160   1.813   1.250   9.209  0.1150  0.0720 -0.1922
 1221ERGO    C116161   1.771   1.411   8.865  0.1680  0.3445 -0.0733
 1221ERGO    C216162   1.764   1.414   8.547  0.0885 -0.0690 -0.0056
 1222ERGO   ROH16163  14.670   8.195  10.430 -0.0527  0.2235 -0.0536
 1222ERGO    R116164  14.741   8.322  10.187 -0.1134  0.1093 -0.1305
 1222ERGO    R216165  14.895   8.198   9.994 -0.0705  0.0600 -0.0609
 1222ERGO    R316166  14.686   8.261   9.832 -0.1006 -0.1204 -0.0949
 1222ERGO    R416167  14.907   8.205   9.649  0.0426  0.2666 -0.0550
 1222ERGO    R516168  14.785   8.384   9.653 -0.1949  0.1104  0.0064
 1222ERGO    C116169  14.718   8.268   9.296  0.0802  0.2176 -0.0835
 1222ERGO    C216170  14.742   8.125   9.031 -0.0089  0.2606  0.2075
 1223ERGO   ROH16171   3.943  12.618   6.317  0.2556 -0.0966 -0.0308
 1223ERGO    R116172   3.988  12.722   6.577  0.0860  0.0076 -0.0398
 1223ERGO    R216173   3.934  12.577   6.806 -0.0622  0.0943 -0.0084
 1223ERGO    R316174   4.193  12.634   6.864 -0.0986  0.1188  0.1250
 1223ERGO    R416175   4.068  12.589   7.125 -0.2048  0.0749  0.0516
 1223ERGO    R516176   4.182  12.764   7.065 -0.2015  0.0890  0.1315
 1223ERGO    C116177   4.389  12.650   7.364 -0.3220  0.0865  0.2118
 1223ERGO    C216178   4.430  12.685   7.708 -0.0032 -0.1094  0.0676
 1224ERGO   ROH16179   4.358  13.022   6.188 -0.0985 -0.0451  0.0860
 1224ERGO    R116180   4.410  12.919   6.446 -0.0296 -0.0084  0.0842
 1224ERGO    R216181   4.665  12.862   6.535 -0.0065  0.1169  0.0597
 1224ERGO    R316182   4.595  13.025   6.741 -0.0559  0.0853  0.0719
 1224ERGO    R416183   4.848  12.905   6.825  0.0582  0.2231  0.0063
 1224ERGO    R516184   4.661  12.906   6.937  0.0721  0.1146  0.0601
 1224ERGO    C116185   4.889  13.083   7.187  0.0494  0.2552 -0.0134
 1224ERGO    C216186   5.029  13.286   7.404 -0.1963 -0.1280 -0.1099
 1225ERGO   ROH16187   0.005   1.845   9.693  0.0682 -0.0215 -0.1264
 1225ERGO    R116188  -0.052   1.802   9.419  0.0013  0.1073 -0.1323
 1225ERGO    R216189  -0.197   1.982   9.267  0.1025  0.2537 -0.0488
 1225ERGO    R316190   0.021   1.972   9.105  0.0708  0.1617 -0.0889
 1225ERGO    R416191  -0.204   2.025   8.924  0.0137 -0.0209 -0.0853
 1225ERGO    R516192  -0.058   1.864   8.906  0.0406 -0.0148  0.0120
 1225ERGO    C116193  -0.003   2.041   8.572 -0.0676 -0.2671 -0.1440
 1225ERGO    C216194   0.060   2.026   8.196  0.0697  0.0427 -0.2852
 1226ERGO   ROH16195   6.313  17.674   6.348  0.1817  0.2948  0.1481
 1226ERGO    R116196   6.164  17.522   6.535  0.3622 -0.0346  0.0267
 1226ERGO    R216197   6.279  17.404   6.756  0.4331  0.3219  0.1621
 1226ERGO    R316198   6.086  17.541   6.890 -0.0738 -0.1352 -0.0514
 1226ERGO    R416199   6.134  17.302   7.053  0.8105  0.2092  0.3159
 1226ERGO    R516200   5.942  17.370   6.977  0.5184 -0.5696  0.1920
 1226ERGO    C116201   5.869  17.371   7.352  0.5544 -0.2855  0.2050
 1226ERGO    C216202   5.616  17.327   7.585 -0.3746  0.2961  0.0134
 1227ERGO   ROH16203  16.951   5.682   9.783 -0.2718 -0.0569 -0.0104
 1227ERGO    R116204  17.044   5.751   9.525 -0.2398  0.1587  0.0578
 1227ERGO    R216205  17.048   5.570   9.316  0.2308  0.1953  0.0371
 1227ERGO    R316206  16.905   5.763   9.189 -0.0584 -0.0533 -0.0305
 1227ERGO    R416207  17.015   5.597   8.973  0.6724  0.3274 -0.0027
 1227ERGO    R516208  17.034   5.813   8.993  0.1273  0.3840  0.1825
 1227ERGO    C116209  16.861   5.794   8.654  0.6579  0.1710 -0.0893
 1227ERGO    C216210  16.870   5.690   8.361  0.0589 -0.0403  0.0298
 1228ERGO   ROH16211   0.427  10.449   6.107 -0.1359  0.3921  0.0899
 1228ERGO    R116212   0.502  10.488   6.377  0.0321  0.2269  0.0690
 1228ERGO    R216213   0.627  10.292   6.527  0.0191  0.0932 -0.0923
 1228ERGO    R316214   0.812  10.487   6.568  0.1383 -0.0172 -0.0997
 1228ERGO    R416215   0.809  10.332   6.817 -0.1688  0.1675  0.0172
 1228ERGO    R516216   0.783  10.548   6.798  0.0101  0.1759 -0.1644
 1228ERGO    C116217   1.089  10.538   7.026 -0.1663  0.1073  0.0739
 1228ERGO    C216218   1.351  10.563   7.269  0.1020 -0.1160 -0.0516
 1229ERGO   ROH16219  11.639   7.412   7.048 -0.0621  0.2193 -0.0262
 1229ERGO    R116220  11.540   7.446   7.311  0.1297  0.0751  0.0664
 1229ERGO    R216221  11.658   7.325   7.531  0.3567  0.0420 -0.0704
 1229ERGO    R316222  11.666   7.580   7.625  0.3181  0.0098  0.0207
 1229ERGO    R416223  11.709   7.412   7.861  0.4459 -0.0676 -0.0550
 1229ERGO    R516224  11.558   7.567   7.839  0.3941 -0.1000  0.0540
 1229ERGO    C116225  11.746   7.701   8.143  0.4618 -0.1617  0.0395
 1229ERGO    C216226  11.683   7.878   8.381  0.3633 -0.0085  0.2805
 1230ERGO   ROH16227   9.775  11.910   6.383 -0.0669 -0.1157 -0.0587
 1230ERGO    R116228   9.635  11.979   6.619  0.1168  0.0780 -0.0049
 1230ERGO    R216229   9.533  11.790   6.793 -0.2434  0.2115 -0.0737
 1230ERGO    R316230   9.678  11.928   6.977  0.0776 -0.1616 -0.0300
 1230ERGO    R416231   9.451  11.821   7.127 -0.3265  0.4794 -0.1164
 1230ERGO    R516232   9.514  12.029   7.118  0.2727  0.3265 -0.1212
 1230ERGO    C116233   9.539  11.970   7.494 -0.0736  0.2852 -0.1002
 1230ERGO    C216234   9.548  11.798   7.862  0.2078  0.3878  0.2099
 1231ERGO   ROH16235  10.664  11.273   6.426  0.0794 -0.2465 -0.0543
 1231ERGO    R116236  10.546  11.400   6.650 -0.0531 -0.2672 -0.1104
 1231ERGO    R216237  10.401  11.262   6.840 -0.0283 -0.3133 -0.1205
 1231ERGO    R316238  10.576  11.378   7.012 -0.1364 -0.1800 -0.0988
 1231ERGO    R416239  10.345  11.308   7.178 -0.1528 -0.2268 -0.1525
 1231ERGO    R516240  10.438  11.504   7.162 -0.2366 -0.1934 -0.1834
 1231ERGO    C116241  10.477  11.444   7.536 -0.3269 -0.0513 -0.1507
 1231ERGO    C216242  10.525  11.369   7.826 -0.0500 -0.2572 -0.2075
 1232ERGO   ROH16243   3.237  12.286   6.209  0.1556 -0.1665 -0.1824
 1232ERGO    R116244   3.248  12.412   6.462  0.1071 -0.0525 -0.2357
 1232ERGO    R216245   3.265  12.269   6.698 -0.0788  0.0506 -0.1598
 1232ERGO    R316246   3.483  12.426   6.740 -0.0129 -0.0487 -0.1324
 1232ERGO    R416247   3.382  12.363   7.009 -0.0324 -0.0791 -0.1381
 1232ERGO    R516248   3.422  12.562   6.928  0.0455 -0.0712 -0.0931
 1232ERGO    C116249   3.655  12.565   7.230  0.0566 -0.2478 -0.0997
 1232ERGO    C216250   3.841  12.615   7.540 -0.1215 -0.1919 -0.0777
 1233ERGO   ROH16251   3.252   4.753   9.686 -0.0399  0.1764 -0.0960
 1233ERGO    R116252   3.337   4.582   9.476  0.1283  0.1908 -0.0409
 1233ERGO    R216253   3.185   4.537   9.250  0.0925 -0.1623  0.0477
 1233ERGO    R316254   3.411   4.616   9.122 -0.0788  0.1168 -0.0921
 1233ERGO    R416255   3.249   4.485   8.915 -0.0025 -0.1741  0.0309
 1233ERGO    R516256   3.456   4.438   8.967  0.0921  0.1306 -0.0591
 1233ERGO    C116257   3.498   4.528   8.598 -0.2186  0.0811 -0.1100
 1233ERGO    C216258   3.462   4.603   8.276  0.1176  0.0113 -0.1752
 1234ERGO   ROH16259   2.382   6.074   6.005  0.1194 -0.2004 -0.1211
 1234ERGO    R116260   2.238   6.027   6.244  0.0625 -0.0749 -0.1294
 1234ERGO    R216261   2.324   5.847   6.437 -0.0958 -0.1393 -0.1141
 1234ERGO    R316262   2.300   6.062   6.601  0.0671 -0.1104 -0.1274
 1234ERGO    R416263   2.280   5.831   6.779 -0.0767 -0.0794 -0.1089
 1234ERGO    R516264   2.138   5.995   6.764  0.0365  0.0160 -0.1076
 1234ERGO    C116265   2.233   6.023   7.133  0.0874 -0.0173 -0.1185
 1234ERGO    C216266   2.261   6.142   7.447 -0.3091  0.3367 -0.0142
 1235ERGO   ROH16267  11.503  11.564  10.154  0.0004 -0.0205  0.1940
 1235ERGO    R116268  11.512  11.448   9.896 -0.0886  0.0978  0.1371
 1235ERGO    R216269  11.321  11.502   9.702 -0.0806  0.2947  0.1795
 1235ERGO    R316270  11.539  11.569   9.553 -0.0576  0.2482  0.1925
 1235ERGO    R416271  11.317  11.570   9.363 -0.0147  0.1440  0.1474
 1235ERGO    R516272  11.504  11.460   9.343 -0.0027  0.1532  0.2337
 1235ERGO    C116273  11.518  11.673   9.027  0.0453  0.0128  0.1410
 1235ERGO    C216274  11.495  11.823   8.655 -0.0277  0.0074 -0.2781
 1236ERGO   ROH16275   7.186  16.022   7.005  0.1985 -0.0968  0.1082
 1236ERGO    R116276   7.205  16.193   7.229  0.2085  0.0343  0.0070
 1236ERGO    R216277   7.010  16.206   7.425  0.2261  0.1413  0.0075
 1236ERGO    R316278   7.219  16.155   7.591  0.2350  0.2502  0.0330
 1236ERGO    R416279   6.992  16.201   7.770  0.0697 -0.2710  0.0008
 1236ERGO    R516280   7.185  16.302   7.776 -0.0628  0.0054  0.1909
 1236ERGO    C116281   7.178  16.151   8.127 -0.0129 -0.4089  0.0208
 1236ERGO    C216282   7.299  16.190   8.433 -0.1133 -0.0310 -0.0854
 1237ERGO   ROH16283  17.219   0.489   6.457 -0.1260  0.1460 -0.0322
 1237ERGO    R116284  17.319   0.530   6.719 -0.0846  0.0680 -0.0368
 1237ERGO    R216285  17.189   0.437   6.944 -0.0282 -0.0274 -0.0509
 1237ERGO    R316286  17.429   0.321   6.995 -0.0027 -0.0110 -0.1259
 1237ERGO    R416287  17.308   0.359   7.259 -0.0010 -0.1528 -0.0906
 1237ERGO    R516288  17.505   0.426   7.196 -0.0109 -0.0858 -0.0765
 1237ERGO    C116289  17.602   0.204   7.490  0.0386 -0.2104 -0.1843
 1237ERGO    C216290  17.573   0.176   7.955 -0.1355 -0.2655  0.1806
 1238ERGO   ROH16291   0.148   2.944   6.311 -0.2334 -0.0835 -0.0571
 1238ERGO    R116292   0.220   3.016   6.575 -0.2617  0.0146 -0.0754
 1238ERGO    R216293   0.037   3.112   6.758 -0.3180 -0.0911 -0.0731
 1238ERGO    R316294   0.132   2.909   6.911 -0.1507  0.0034 -0.0502
 1238ERGO    R416295   0.020   3.100   7.103 -0.2514 -0.0407 -0.0682
 1238ERGO    R516296   0.222   3.017   7.105 -0.1940  0.1005 -0.0853
 1238ERGO    C116297   0.101   2.902   7.448 -0.0556  0.0774 -0.0439
 1238ERGO    C216298   0.177   2.813   7.688  0.1800 -0.1708  0.0848
 1239ERGO   ROH16299   8.128   9.651  10.034 -0.1977  0.2551 -0.2396
 1239ERGO    R116300   8.090   9.774   9.782 -0.1763  0.1661 -0.2873
 1239ERGO    R216301   8.301   9.838   9.614 -0.1523  0.2098 -0.2458
 1239ERGO    R316302   8.161   9.690   9.434 -0.0356  0.0944 -0.2417
 1239ERGO    R416303   8.313   9.881   9.272 -0.3816  0.3824 -0.2332
 1239ERGO    R516304   8.097   9.847   9.265 -0.3396  0.0842 -0.1406
 1239ERGO    C116305   8.188   9.768   8.903 -0.4055  0.3744 -0.2219
 1239ERGO    C216306   8.300   9.827   8.571 -0.3378 -0.1642 -0.2300
 1240ERGO   ROH16307   1.312  12.695   6.371 -0.0261 -0.0605  0.0467
 1240ERGO    R116308   1.228  12.806   6.617 -0.0154 -0.1217  0.0774
 1240ERGO    R216309   1.376  12.783   6.849  0.0374 -0.1012  0.0424
 1240ERGO    R316310   1.353  13.054   6.852 -0.0553 -0.1085  0.0862
 1240ERGO    R416311   1.419  12.980   7.129  0.0104 -0.1323  0.0692
 1240ERGO    R516312   1.250  13.102   7.063 -0.0432 -0.1786  0.1108
 1240ERGO    C116313   1.422  13.350   7.296 -0.0924 -0.1572  0.1258
 1240ERGO    C216314   1.632  13.504   7.452 -0.0653 -0.1130  0.1841
 1241ERGO   ROH16315   3.795  13.996   6.210  0.1264  0.1763  0.1049
 1241ERGO    R116316   3.733  13.896   6.467  0.1324  0.0608  0.0632
 1241ERGO    R216317   3.710  13.626   6.521  0.1264  0.0329 -0.0566
 1241ERGO    R316318   3.894  13.681   6.713  0.1366 -0.0556 -0.0424
 1241ERGO    R416319   3.692  13.516   6.848  0.0848 -0.0058 -0.0727
 1241ERGO    R516320   3.764  13.711   6.912  0.1450 -0.0424 -0.0428
 1241ERGO    C116321   3.854  13.503   7.219  0.0702 -0.1112 -0.0687
 1241ERGO    C216322   4.067  13.511   7.485 -0.2361  0.0197 -0.1122
 1242ERGO   ROH16323   8.883   9.974   6.803 -0.1832 -0.1224  0.1704
 1242ERGO    R116324   8.895   9.908   7.078 -0.0631 -0.1505  0.1588
 1242ERGO    R216325   9.111   9.777   7.191  0.0603 -0.0125  0.0838
 1242ERGO    R316326   9.110   9.989   7.360 -0.0447 -0.0350  0.1124
 1242ERGO    R416327   9.257   9.779   7.504  0.1411  0.0449  0.0460
 1242ERGO    R516328   9.085   9.891   7.578  0.0799 -0.0846  0.1062
 1242ERGO    C116329   9.342   9.980   7.845  0.0896  0.0574  0.0508
 1242ERGO    C216330   9.651  10.028   7.990 -0.2385  0.0857  0.3182
 1243ERGO   ROH16331   9.102  15.798   6.772  0.0053 -0.1680  0.0542
 1243ERGO    R116332   9.061  15.768   7.050  0.0786 -0.1194  0.0709
 1243ERGO    R216333   9.267  15.780   7.234  0.1148  0.0083  0.0239
 1243ERGO    R316334   9.111  15.970   7.348  0.0618 -0.0280  0.0119
 1243ERGO    R416335   9.216  15.816   7.574  0.0728 -0.0093  0.0193
 1243ERGO    R516336   9.007  15.859   7.533  0.0676 -0.0541 -0.0008
 1243ERGO    C116337   9.040  16.015   7.879 -0.0014 -0.0536  0.0055
 1243ERGO    C216338   9.094  16.072   8.257  0.2495  0.0015  0.0979
 1244ERGO   ROH16339  15.185   4.856  10.016  0.0946  0.1971 -0.0302
 1244ERGO    R116340  15.257   4.783   9.752  0.1690  0.1585  0.0015
 1244ERGO    R216341  15.079   4.793   9.541  0.1929 -0.0000 -0.0225
 1244ERGO    R316342  15.271   4.947   9.427  0.1249  0.0701 -0.0460
 1244ERGO    R416343  15.115   4.842   9.201  0.1270  0.0233 -0.0274
 1244ERGO    R516344  15.331   4.828   9.228  0.1373  0.0959 -0.0590
 1244ERGO    C116345  15.317   5.016   8.896  0.0249  0.1028 -0.0523
 1244ERGO    C216346  15.342   5.106   8.615 -0.1848 -0.1694 -0.2151
 1245ERGO   ROH16347  14.468   6.670   6.926 -0.0195  0.0845  0.0573
 1245ERGO    R116348  14.357   6.716   7.182 -0.1420 -0.2628  0.0720
 1245ERGO    R216349  14.371   6.531   7.386  0.3387 -0.2903  0.0272
 1245ERGO    R316350  14.480   6.739   7.524 -0.1850 -0.0310  0.0731
 1245ERGO    R416351  14.371   6.560   7.730  0.4211 -0.4561  0.0421
 1245ERGO    R516352  14.329   6.773   7.707 -0.2060 -0.5513  0.1649
 1245ERGO    C116353  14.473   6.771   8.061 -0.0226 -0.3093  0.0938
 1245ERGO    C216354  14.522   6.848   8.427  0.4270 -0.0462 -0.2971
 1246ERGO   ROH16355   0.551   5.934   6.040 -0.0469  0.0919  0.0247
 1246ERGO    R116356   0.709   6.002   6.264  0.0298 -0.0571  0.0171
 1246ERGO    R216357   0.613   6.159   6.471  0.2213  0.1253 -0.0318
 1246ERGO    R316358   0.693   5.949   6.624 -0.0660  0.0569  0.0308
 1246ERGO    R416359   0.681   6.176   6.809 -0.0521  0.0615  0.0292
 1246ERGO    R516360   0.851   6.044   6.777 -0.1212 -0.0671  0.1688
 1246ERGO    C116361   0.796   5.988   7.150 -0.4809 -0.0399  0.1233
 1246ERGO    C216362   0.716   6.012   7.505  0.2080 -0.1343 -0.3222
 1247ERGO   ROH16363  14.012   0.966  10.378 -0.0257  0.2184  0.0069
 1247ERGO    R116364  13.917   0.824  10.152  0.0175  0.1513  0.0308
 1247ERGO    R216365  13.817   0.951   9.928 -0.0861  0.0813  0.0381
 1247ERGO    R316366  14.004   0.802   9.799 -0.0240  0.1746  0.0187
 1247ERGO    R416367  13.810   0.873   9.591 -0.0248  0.1715  0.0152
 1247ERGO    R516368  13.879   0.672   9.642  0.0328  0.1777 -0.0310
 1247ERGO    C116369  13.981   0.687   9.275  0.0692  0.3114 -0.0163
 1247ERGO    C216370  13.881   0.786   9.003  0.2059  0.2186 -0.1331
 1248ERGO   ROH16371   8.038  15.624   6.898  0.1075 -0.0549 -0.1146
 1248ERGO    R116372   8.163  15.640   7.151  0.0174  0.1390 -0.0796
 1248ERGO    R216373   8.122  15.851   7.325 -0.3724  0.0742 -0.0799
 1248ERGO    R316374   8.055  15.653   7.499 -0.1028 -0.0462 -0.1090
 1248ERGO    R416375   8.063  15.897   7.662 -0.1152 -0.1170 -0.0066
 1248ERGO    R516376   8.170  15.710   7.701  0.0330 -0.0688 -0.1805
 1248ERGO    C116377   7.966  15.737   8.022  0.2878 -0.3415  0.0087
 1248ERGO    C216378   7.692  15.767   8.282  0.6268 -0.4218 -0.1451
 1249ERGO   ROH16379   5.734   4.985   6.311  0.2800 -0.0323  0.0766
 1249ERGO    R116380   5.760   4.946   6.591  0.2317  0.1934  0.1171
 1249ERGO    R216381   5.744   5.155   6.772  0.0942  0.3378 -0.0334
 1249ERGO    R316382   5.552   4.999   6.885  0.1327  0.3328  0.0174
 1249ERGO    R416383   5.676   5.140   7.110  0.2732  0.1912 -0.0046
 1249ERGO    R516384   5.650   4.924   7.090  0.2191  0.2220 -0.0774
 1249ERGO    C116385   5.456   4.985   7.414  0.4134  0.1011  0.0598
 1249ERGO    C216386   5.299   4.905   7.707  0.0542  0.2666 -0.0816
 1250ERGO   ROH16387   4.022  14.905  10.170 -0.2793  0.2103 -0.0182
 1250ERGO    R116388   3.917  15.020   9.933  0.0076  0.3200 -0.0959
 1250ERGO    R216389   4.078  15.137   9.741  0.2897 -0.0043 -0.0718
 1250ERGO    R316390   3.951  14.964   9.575  0.0605  0.1540 -0.0650
 1250ERGO    R416391   4.073  15.162   9.396  0.3277 -0.0210 -0.0732
 1250ERGO    R516392   3.863  15.102   9.400  0.2479  0.2590 -0.0749
 1250ERGO    C116393   3.950  15.013   9.040  0.1347  0.1179 -0.0676
 1250ERGO    C216394   4.081  15.071   8.747  0.0706  0.0832  0.1909
 1251ERGO   ROH16395   1.324  10.063   9.474 -0.1219  0.1878  0.0154
 1251ERGO    R116396   1.362  10.020   9.196 -0.1646 -0.0218  0.0405
 1251ERGO    R216397   1.152   9.977   9.022 -0.2182  0.1802  0.0539
 1251ERGO    R316398   1.264  10.185   8.887  0.0889 -0.0501 -0.0578
 1251ERGO    R416399   1.103  10.043   8.686 -0.3477  0.2229  0.0803
 1251ERGO    R516400   1.315  10.095   8.671 -0.2483 -0.1882 -0.0872
 1251ERGO    C116401   1.180  10.276   8.364 -0.1347  0.0316 -0.0093
 1251ERGO    C216402   1.153  10.275   8.044 -0.1284 -0.1577  0.2083
 1252ERGO   ROH16403  12.799  10.218   6.782  0.2774 -0.1798  0.0453
 1252ERGO    R116404  12.666  10.148   7.022  0.1047 -0.0062  0.0015
 1252ERGO    R216405  12.763   9.956   7.196 -0.1140 -0.0082  0.1196
 1252ERGO    R316406  12.740  10.156   7.378 -0.0780  0.0696  0.0402
 1252ERGO    R416407  12.838   9.927   7.532 -0.1538  0.0952  0.1383
 1252ERGO    R516408  12.662  10.048   7.577 -0.1287  0.1626  0.0749
 1252ERGO    C116409  12.860  10.098   7.899 -0.1433  0.2285  0.0746
 1252ERGO    C216410  12.872  10.092   8.258  0.2330 -0.1124  0.0222
 1253ERGO   ROH16411   8.962   0.609   6.920 -0.2713 -0.0494  0.0371
 1253ERGO    R116412   9.155   0.662   7.120 -0.0573 -0.0717 -0.1573
 1253ERGO    R216413   9.086   0.753   7.372  0.2220  0.0898 -0.1328
 1253ERGO    R316414   9.230   0.537   7.454  0.1622  0.0382 -0.1644
 1253ERGO    R416415   9.255   0.730   7.673  0.2124 -0.0023 -0.1346
 1253ERGO    R516416   9.419   0.632   7.568  0.1864 -0.0306 -0.1477
 1253ERGO    C116417   9.490   0.515   7.924  0.1508 -0.1044 -0.1653
 1253ERGO    C216418   9.697   0.260   8.139  0.1971  0.1241  0.0660
 1254ERGO   ROH16419   6.255   3.471   6.426  0.0980 -0.1400 -0.2400
 1254ERGO    R116420   6.126   3.444   6.677  0.1183  0.0908 -0.2021
 1254ERGO    R216421   5.947   3.240   6.731 -0.0408  0.2626 -0.0677
 1254ERGO    R316422   6.113   3.194   6.941 -0.0408  0.2318 -0.0745
 1254ERGO    R416423   5.846   3.126   7.041 -0.0444  0.2379 -0.0780
 1254ERGO    R516424   5.987   3.264   7.133 -0.0347  0.2205 -0.0661
 1254ERGO    C116425   5.943   3.016   7.419 -0.0465  0.1945 -0.0905
 1254ERGO    C216426   5.883   2.747   7.670 -0.0295 -0.0884 -0.1306
 1255ERGO   ROH16427   6.129  12.977   6.501 -0.0249  0.1416  0.2002
 1255ERGO    R116428   6.260  12.774   6.648  0.1333  0.0708 -0.0272
 1255ERGO    R216429   6.501  12.816   6.777  0.0784  0.1358  0.0827
 1255ERGO    R316430   6.364  12.724   6.993  0.1006 -0.2596 -0.0659
 1255ERGO    R416431   6.637  12.770   7.091 -0.1117  0.4114  0.2076
 1255ERGO    R516432   6.522  12.585   7.108  0.3399  0.1148  0.0544
 1255ERGO    C116433   6.589  12.657   7.477 -0.2015  0.2008  0.1407
 1255ERGO    C216434   6.585  12.584   7.795  0.4048  0.3065 -0.2151
 1256ERGO   ROH16435   8.007  15.494  10.386  0.5014 -0.1971  0.0982
 1256ERGO    R116436   7.879  15.460  10.136  0.2898 -0.0535  0.1840
 1256ERGO    R216437   7.929  15.624   9.919  0.1479  0.0370  0.2172
 1256ERGO    R316438   7.981  15.388   9.794 -0.0025  0.0836  0.0649
 1256ERGO    R416439   7.974  15.589   9.578  0.2503  0.2487  0.2076
 1256ERGO    R516440   7.859  15.403   9.588  0.0895  0.3375  0.0263
 1256ERGO    C116441   8.049  15.347   9.262  0.1688  0.4157  0.0591
 1256ERGO    C216442   8.085  15.501   9.052  0.2238  0.0565 -0.0759
 1257ERGO   ROH16443   7.038  16.875   6.205  0.1256  0.1827 -0.0453
 1257ERGO    R116444   7.145  16.924   6.463  0.0899  0.1855 -0.0317
 1257ERGO    R216445   7.144  17.175   6.579 -0.1000  0.1487  0.0431
 1257ERGO    R316446   7.020  17.045   6.783  0.0005 -0.0067  0.0084
 1257ERGO    R416447   7.176  17.256   6.913  0.0338 -0.0714  0.0867
 1257ERGO    R516448   7.182  17.043   6.959  0.0796 -0.1070 -0.0602
 1257ERGO    C116449   7.077  17.182   7.299  0.2061 -0.3455  0.0795
 1257ERGO    C216450   7.025  17.296   7.574 -0.2551 -0.2832  0.1590
 1258ERGO   ROH16451  16.793  17.447  10.127 -0.1306  0.0829  0.0621
 1258ERGO    R116452  16.759  17.473   9.847 -0.0144  0.0668  0.0450
 1258ERGO    R216453  16.968  17.442   9.668  0.0601  0.0378  0.1277
 1258ERGO    R316454  16.801  17.260   9.555  0.0902  0.0422  0.0792
 1258ERGO    R416455  16.924  17.398   9.328  0.1218  0.0603  0.1178
 1258ERGO    R516456  16.711  17.373   9.364  0.1215  0.0488  0.0735
 1258ERGO    C116457  16.742  17.202   9.024  0.1859  0.0775  0.0667
 1258ERGO    C216458  16.714  17.190   8.738 -0.0495 -0.2007 -0.2054
 1259ERGO   ROH16459  16.867   2.107   7.181 -0.0502  0.1780 -0.0309
 1259ERGO    R116460  16.934   2.320   7.355 -0.1738  0.0482  0.1827
 1259ERGO    R216461  16.978   2.284   7.625  0.1566 -0.2564  0.0994
 1259ERGO    R316462  17.214   2.407   7.570 -0.0666  0.1495  0.0042
 1259ERGO    R416463  17.195   2.411   7.863  0.2954 -0.3909  0.0455
 1259ERGO    R516464  17.230   2.582   7.732 -0.0931 -0.1102  0.2936
 1259ERGO    C116465  17.543   2.600   7.949  0.1668 -0.0883 -0.0753
 1259ERGO    C216466  17.821   2.588   8.025 -0.3127  0.0684  0.2538
 1260ERGO   ROH16467  13.856  12.170   6.905 -0.3318 -0.0934  0.0369
 1260ERGO    R116468  13.994  12.187   7.151 -0.0992 -0.2910 -0.0780
 1260ERGO    R216469  13.938  12.380   7.341  0.4309 -0.1197 -0.0913
 1260ERGO    R316470  13.909  12.165   7.504  0.1370 -0.0160  0.0028
 1260ERGO    R416471  13.977  12.387   7.684  0.4580 -0.0093 -0.0951
 1260ERGO    R516472  14.079  12.194   7.671  0.1965 -0.1692 -0.0185
 1260ERGO    C116473  13.973  12.189   8.037  0.1977  0.1523 -0.0089
 1260ERGO    C216474  13.904  12.251   8.346  0.0985  0.0150 -0.0420
 1261ERGO   ROH16475   2.196   7.781   5.947 -0.1220 -0.1690 -0.0268
 1261ERGO    R116476   2.219   7.905   6.201 -0.0395 -0.1517 -0.0435
 1261ERGO    R216477   2.000   7.993   6.344  0.0022 -0.2252  0.0595
 1261ERGO    R316478   2.105   7.836   6.539  0.1539 -0.1781  0.0186
 1261ERGO    R416479   1.927   8.021   6.681 -0.1054 -0.4429  0.0569
 1261ERGO    R516480   2.137   7.985   6.724 -0.0643 -0.2060  0.0849
 1261ERGO    C116481   1.983   7.890   7.060 -0.0257 -0.5256  0.0170
 1261ERGO    C216482   1.852   8.013   7.299  0.2836 -0.2151  0.3584
 1262ERGO   ROH16483   3.674  10.286   6.036  0.0059 -0.1760  0.0183
 1262ERGO    R116484   3.641  10.199   6.304  0.0295 -0.1976  0.0142
 1262ERGO    R216485   3.778   9.982   6.407  0.1600 -0.1082  0.0313
 1262ERGO    R316486   3.853  10.160   6.597  0.0182 -0.0575  0.0414
 1262ERGO    R416487   3.778   9.919   6.747  0.1801 -0.1184  0.0295
 1262ERGO    R516488   3.702  10.121   6.778  0.0318 -0.1723  0.0295
 1262ERGO    C116489   3.849  10.051   7.123  0.0586 -0.0767  0.0379
 1262ERGO    C216490   3.838   9.870   7.426  0.4055  0.1056  0.0295
 1263ERGO   ROH16491   3.451   8.210   9.139  0.1959 -0.0503 -0.0213
 1263ERGO    R116492   3.352   8.317   8.896  0.0922  0.0377  0.0588
 1263ERGO    R216493   3.518   8.422   8.702  0.0138  0.0504 -0.0007
 1263ERGO    R316494   3.388   8.245   8.541 -0.1127  0.1242  0.0190
 1263ERGO    R416495   3.468   8.464   8.362  0.1077  0.0170 -0.0194
 1263ERGO    R516496   3.266   8.383   8.387  0.0315  0.1958 -0.0334
 1263ERGO    C116497   3.316   8.323   8.014  0.0436  0.0669 -0.0118
 1263ERGO    C216498   3.208   8.437   7.656 -0.2108 -0.2075 -0.1079
 1264ERGO   ROH16499  14.065  10.515   6.660  0.0943  0.1466 -0.0314
 1264ERGO    R116500  14.110  10.649   6.905 -0.0502  0.1407 -0.0004
 1264ERGO    R216501  13.944  10.618   7.124 -0.1142  0.0442 -0.0592
 1264ERGO    R316502  14.176  10.554   7.250 -0.1289  0.1324  0.0121
 1264ERGO    R416503  13.985  10.600   7.467 -0.1727  0.2024 -0.0434
 1264ERGO    R516504  14.180  10.694   7.444 -0.1829  0.2183 -0.0497
 1264ERGO    C116505  14.227  10.529   7.784 -0.2205  0.3773  0.0328
 1264ERGO    C216506  14.361  10.620   8.096  0.0312 -0.3201  0.0633
 1265ERGO   ROH16507  15.801   1.515  10.169 -0.0842 -0.2962  0.0145
 1265ERGO    R116508  15.830   1.635   9.915  0.1318 -0.2132  0.0768
 1265ERGO    R216509  16.057   1.603   9.760  0.1448 -0.3977  0.1400
 1265ERGO    R316510  15.877   1.521   9.573  0.1128 -0.1126  0.0389
 1265ERGO    R416511  16.112   1.605   9.418  0.2619 -0.2800  0.1580
 1265ERGO    R516512  15.907   1.674   9.391  0.3371 -0.0446  0.1247
 1265ERGO    C116513  15.976   1.529   9.044  0.2998  0.0560  0.0735
 1265ERGO    C216514  16.044   1.554   8.741  0.0185  0.1639 -0.0577
 1266ERGO   ROH16515   3.193  11.867   9.754  0.0064 -0.2834 -0.0838
 1266ERGO    R116516   3.195  11.791   9.481  0.0167 -0.0720 -0.1431
 1266ERGO    R216517   2.981  11.839   9.312  0.0218  0.0511 -0.1104
 1266ERGO    R316518   3.171  11.961   9.160  0.0198  0.1756 -0.0159
 1266ERGO    R416519   2.982  11.849   8.967  0.2051  0.0128 -0.1130
 1266ERGO    R516520   3.197  11.817   8.971  0.2310  0.1708  0.0118
 1266ERGO    C116521   3.160  11.969   8.623  0.3101  0.1073 -0.0255
 1266ERGO    C216522   2.988  12.001   8.362 -0.2468 -0.0026 -0.1847
 1267ERGO   ROH16523   7.730   5.418   6.564  0.2478  0.1118  0.2183
 1267ERGO    R116524   7.575   5.327   6.783  0.0771  0.1032  0.0951
 1267ERGO    R216525   7.605   5.075   6.892 -0.0046  0.1029  0.1103
 1267ERGO    R316526   7.638   5.214   7.123 -0.1891  0.0939  0.1446
 1267ERGO    R416527   7.550   4.948   7.209 -0.0615  0.0217  0.0690
 1267ERGO    R516528   7.460   5.138   7.264 -0.2056 -0.0387  0.0582
 1267ERGO    C116529   7.550   5.005   7.610 -0.2678 -0.0339  0.0771
 1267ERGO    C216530   7.655   4.707   7.948 -0.3456 -0.0027 -0.3584
 1268ERGO   ROH16531  16.844   4.159   6.105  0.1372  0.1449  0.1103
 1268ERGO    R116532  17.049   4.114   6.295  0.1055  0.0998  0.1367
 1268ERGO    R216533  17.316   4.103   6.224  0.1074 -0.1610  0.1366
 1268ERGO    R316534  17.342   4.294   6.415  0.2499 -0.0525  0.0088
 1268ERGO    R416535  17.612   4.188   6.381  0.1448 -0.3202  0.1529
 1268ERGO    R516536  17.503   4.206   6.568  0.1253 -0.0865  0.1075
 1268ERGO    C116537  17.808   4.418   6.651  0.3002 -0.3112  0.0424
 1268ERGO    C216538  18.102   4.512   6.588 -0.0528  0.1248 -0.0052
 1269ERGO   ROH16539  16.634  13.640   6.649 -0.0262 -0.1761 -0.0374
 1269ERGO    R116540  16.687  13.461   6.861 -0.1016 -0.1518  0.0013
 1269ERGO    R216541  16.761  13.547   7.113 -0.0188 -0.1301 -0.0339
 1269ERGO    R316542  16.550  13.396   7.192 -0.0944  0.0106  0.0382
 1269ERGO    R416543  16.696  13.455   7.440  0.0975 -0.1702 -0.0211
 1269ERGO    R516544  16.637  13.258   7.367 -0.0977 -0.1091 -0.0494
 1269ERGO    C116545  16.459  13.259   7.704  0.0941 -0.0615  0.0541
 1269ERGO    C216546  16.389  13.132   7.922  0.0249 -0.2256 -0.0321
 1270ERGO   ROH16547  12.001  12.449  10.188  0.0370 -0.1073 -0.0752
 1270ERGO    R116548  12.008  12.343   9.926  0.2449 -0.0650 -0.0887
 1270ERGO    R216549  11.818  12.405   9.735  0.0811 -0.4537 -0.0617
 1270ERGO    R316550  12.035  12.474   9.588 -0.0740  0.0440 -0.0747
 1270ERGO    R416551  11.822  12.435   9.391 -0.0059 -0.4146 -0.0600
 1270ERGO    R516552  12.018  12.341   9.390  0.2100  0.0178 -0.0832
 1270ERGO    C116553  12.029  12.518   9.052 -0.2020  0.0752 -0.0714
 1270ERGO    C216554  12.137  12.578   8.779  0.1500 -0.2419  0.0113
 1271ERGO   ROH16555  10.419   6.447   6.861 -0.5509  0.3227  0.1129
 1271ERGO    R116556  10.575   6.492   7.093 -0.3730  0.2426  0.0074
 1271ERGO    R216557  10.468   6.593   7.327 -0.1746  0.2292  0.0894
 1271ERGO    R316558  10.578   6.370   7.436 -0.1500  0.1892 -0.0082
 1271ERGO    R416559  10.534   6.551   7.663 -0.3628  0.0335  0.1067
 1271ERGO    R516560  10.722   6.454   7.609 -0.2794  0.1407  0.1404
 1271ERGO    C116561  10.677   6.317   7.962 -0.4493 -0.1179  0.0251
 1271ERGO    C216562  10.594   6.208   8.253 -0.0114 -0.0577 -0.2900
 1272ERGO   ROH16563  14.760  11.744   6.460  0.2363 -0.1220 -0.1469
 1272ERGO    R116564  14.824  11.548   6.654  0.3351 -0.0382 -0.0984
 1272ERGO    R216565  15.039  11.573   6.825  0.0485  0.3397  0.1990
 1272ERGO    R316566  14.850  11.534   7.016 -0.1425 -0.0606 -0.0537
 1272ERGO    R416567  15.094  11.419   7.130 -0.0064  0.4434  0.2647
 1272ERGO    R516568  14.902  11.319   7.109  0.2044  0.0250 -0.0024
 1272ERGO    C116569  14.949  11.293   7.487 -0.2179  0.1280  0.0658
 1272ERGO    C216570  15.119  11.347   7.827  0.2174  0.4497 -0.0251
 1273ERGO   ROH16571  14.109  15.688  10.241 -0.1881  0.2242 -0.1985
 1273ERGO    R116572  14.115  15.530  10.006  0.2813  0.1053 -0.1173
 1273ERGO    R216573  13.895  15.500   9.840  0.3527 -0.6323 -0.1157
 1273ERGO    R316574  14.069  15.586   9.650  0.1197 -0.2121 -0.1498
 1273ERGO    R416575  13.831  15.509   9.500  0.1907 -0.5885 -0.0838
 1273ERGO    R516576  14.034  15.440   9.464  0.3135 -0.1955 -0.2026
 1273ERGO    C116577  13.958  15.595   9.124 -0.1223 -0.1683 -0.0974
 1273ERGO    C216578  14.055  15.583   8.876  0.1223 -0.0681 -0.2644
 1274ERGO   ROH16579  10.489   9.393   6.789  0.0195  0.0311  0.0145
 1274ERGO    R116580  10.500   9.466   7.063  0.2091 -0.0388  0.0272
 1274ERGO    R216581  10.273   9.515   7.213  0.3214  0.2849  0.0997
 1274ERGO    R316582  10.381   9.328   7.378  0.0799  0.0790  0.0310
 1274ERGO    R416583  10.182   9.466   7.543  0.2180  0.2425  0.0651
 1274ERGO    R516584  10.392   9.436   7.591  0.1796 -0.0288  0.0814
 1274ERGO    C116585  10.231   9.261   7.890 -0.0689  0.0244 -0.0196
 1274ERGO    C216586  10.219   9.196   8.241 -0.1790 -0.0366 -0.0401
 1275ERGO   ROH16587  13.360  11.060   6.746 -0.2435  0.2397  0.1433
 1275ERGO    R116588  13.328  10.965   7.011 -0.0715  0.0825  0.1096
 1275ERGO    R216589  13.461  10.743   7.107  0.0383  0.0624 -0.0904
 1275ERGO    R316590  13.541  10.915   7.301  0.1038 -0.0282 -0.0354
 1275ERGO    R416591  13.542  10.651   7.430 -0.0249 -0.0674 -0.1100
 1275ERGO    R516592  13.440  10.830   7.501  0.0505 -0.0398 -0.0660
 1275ERGO    C116593  13.665  10.760   7.801 -0.0004 -0.2281 -0.0697
 1275ERGO    C216594  13.858  10.835   8.046  0.0563  0.1075 -0.0712
 1276ERGO   ROH16595   0.975  15.350   6.319 -0.2302 -0.0362  0.0065
 1276ERGO    R116596   0.928  15.413   6.591  0.0537  0.0023  0.0494
 1276ERGO    R216597   0.700  15.334   6.726  0.0133  0.3409  0.1930
 1276ERGO    R316598   0.879  15.228   6.901 -0.0263  0.0327  0.0551
 1276ERGO    R416599   0.665  15.335   7.069  0.0631 -0.0201  0.2032
 1276ERGO    R516600   0.877  15.380   7.087  0.0938 -0.1705  0.2265
 1276ERGO    C116601   0.812  15.237   7.434  0.0550 -0.5196  0.0798
 1276ERGO    C216602   0.662  15.042   7.762 -0.1758  0.0938  0.0133
 1277ERGO   ROH16603  10.941   1.911  10.368  0.1960  0.2094 -0.1168
 1277ERGO    R116604  10.845   2.009  10.120  0.0623  0.0306 -0.1374
 1277ERGO    R216605  11.007   2.034   9.897 -0.0301 -0.0139 -0.2037
 1277ERGO    R316606  10.814   1.884   9.780 -0.0014 -0.1663 -0.0619
 1277ERGO    R416607  10.946   2.021   9.557 -0.3264  0.0248 -0.1555
 1277ERGO    R516608  10.732   2.020   9.601 -0.2949 -0.1864  0.0446
 1277ERGO    C116609  10.728   1.872   9.250 -0.4720 -0.0958  0.0059
 1277ERGO    C216610  10.814   1.832   8.861 -0.1434 -0.1622  0.1005
 1278ERGO   ROH16611  11.872  15.195  10.625  0.1180 -0.1013 -0.0860
 1278ERGO    R116612  12.010  15.267  10.388 -0.0007 -0.0686 -0.1461
 1278ERGO    R216613  12.131  15.080  10.223  0.0877 -0.0293 -0.1264
 1278ERGO    R316614  11.977  15.198  10.032 -0.0531 -0.1939 -0.1176
 1278ERGO    R416615  12.199  15.078   9.884  0.0817  0.0597 -0.1283
 1278ERGO    R516616  12.135  15.285   9.874 -0.1534 -0.0100 -0.1193
 1278ERGO    C116617  12.095  15.187   9.508 -0.0537 -0.0431 -0.1214
 1278ERGO    C216618  12.138  15.206   9.145  0.0720  0.2127 -0.1508
 1279ERGO   ROH16619  14.254   9.318   6.786  0.2120 -0.1534 -0.1136
 1279ERGO    R116620  14.202   9.195   7.036  0.1362 -0.0165 -0.0601
 1279ERGO    R216621  14.184   8.921   7.065 -0.1660  0.0084  0.0322
 1279ERGO    R316622  14.374   8.961   7.255 -0.0685 -0.1416 -0.0323
 1279ERGO    R416623  14.175   8.788   7.384 -0.1651  0.0299  0.0410
 1279ERGO    R516624  14.251   8.978   7.460  0.0172 -0.0311  0.0082
 1279ERGO    C116625  14.349   8.749   7.748 -0.0732 -0.0984 -0.0145
 1279ERGO    C216626  14.647   8.725   8.004  0.0549 -0.2092 -0.2023
 1280ERGO   ROH16627   3.483  15.586   6.515  0.0235 -0.1615 -0.0285
 1280ERGO    R116628   3.615  15.397   6.679  0.0795 -0.0684  0.0327
 1280ERGO    R216629   3.723  15.463   6.924 -0.1378 -0.0046  0.1070
 1280ERGO    R316630   3.568  15.257   7.012 -0.0154 -0.1526 -0.0131
 1280ERGO    R416631   3.727  15.337   7.246 -0.4346  0.1771  0.1853
 1280ERGO    R516632   3.710  15.136   7.162 -0.0663  0.1023  0.2573
 1280ERGO    C116633   3.583  15.072   7.516 -0.4926  0.1441  0.1183
 1280ERGO    C216634   3.692  15.034   7.874  0.0405  0.0806 -0.0418
 1281ERGO   ROH16635   4.448  16.404   6.542 -0.2397 -0.1162 -0.1893
 1281ERGO    R116636   4.271  16.289   6.731 -0.0419 -0.2059 -0.0533
 1281ERGO    R216637   4.353  16.203   6.979  0.1679 -0.0495 -0.0636
 1281ERGO    R316638   4.155  16.367   7.067  0.0718 -0.1877 -0.0188
 1281ERGO    R416639   4.226  16.204   7.301  0.1152 -0.2546 -0.0823
 1281ERGO    R516640   4.027  16.231   7.216  0.1162 -0.3169 -0.0994
 1281ERGO    C116641   3.967  16.359   7.570 -0.0057 -0.5035 -0.0510
 1281ERGO    C216642   4.020  16.250   7.855  0.0034  0.1192  0.1632
 1282ERGO   ROH16643   2.882  13.566   6.469  0.2720 -0.0198  0.1307
 1282ERGO    R116644   2.842  13.583   6.748  0.1892 -0.1020  0.1245
 1282ERGO    R216645   2.591  13.579   6.863  0.1477 -0.0151  0.0402
 1282ERGO    R316646   2.696  13.374   7.008 -0.0045 -0.1237 -0.0003
 1282ERGO    R416647   2.573  13.551   7.207  0.1453 -0.0625  0.0363
 1282ERGO    R516648   2.779  13.479   7.207  0.0887 -0.2240  0.0137
 1282ERGO    C116649   2.660  13.343   7.543  0.0010 -0.1920 -0.0039
 1282ERGO    C216650   2.548  13.326   7.842 -0.2990 -0.1074  0.0618
 1283ERGO   ROH16651   3.280  12.296   9.446 -0.1165 -0.1432  0.0955
 1283ERGO    R116652   3.328  12.417   9.195  0.0072 -0.1454  0.1166
 1283ERGO    R216653   3.497  12.306   9.006 -0.1089 -0.2897  0.0911
 1283ERGO    R316654   3.279  12.328   8.845 -0.0922 -0.0316  0.1024
 1283ERGO    R416655   3.507  12.332   8.662 -0.0980 -0.1721  0.1006
 1283ERGO    R516656   3.347  12.480   8.673  0.0386 -0.0319  0.1569
 1283ERGO    C116657   3.308  12.368   8.310 -0.0759  0.1386  0.1166
 1283ERGO    C216658   3.109  12.297   8.000  0.1816 -0.0283  0.2534
 1284ERGO   ROH16659   1.292  17.849   6.602  0.0121  0.0064  0.1115
 1284ERGO    R116660   1.202  17.694   6.821  0.0714  0.0270  0.1501
 1284ERGO    R216661   1.292  17.735   7.079 -0.0263  0.2010  0.1575
 1284ERGO    R316662   1.027  17.756   7.134 -0.0586  0.0233  0.0783
 1284ERGO    R416663   1.158  17.768   7.396 -0.1613 -0.0511  0.1302
 1284ERGO    R516664   0.999  17.632   7.337 -0.0648 -0.1065 -0.0017
 1284ERGO    C116665   0.831  17.806   7.632 -0.2702 -0.3649  0.0399
 1284ERGO    C216666   0.689  17.829   7.919  0.1554 -0.2950  0.1817
 1285ERGO   ROH16667   0.383   1.897  10.050 -0.1302 -0.1253 -0.0665
 1285ERGO    R116668   0.463   1.980   9.791 -0.0661 -0.0969 -0.0355
 1285ERGO    R216669   0.585   1.809   9.611 -0.1180 -0.0994 -0.0542
 1285ERGO    R316670   0.383   1.890   9.448 -0.0598  0.0219 -0.0712
 1285ERGO    R416671   0.615   1.860   9.271 -0.1084 -0.3790 -0.0997
 1285ERGO    R516672   0.489   2.037   9.291  0.0951 -0.2064 -0.1975
 1285ERGO    C116673   0.443   1.966   8.919 -0.0482 -0.4280 -0.1421
 1285ERGO    C216674   0.478   1.931   8.615 -0.0999  0.3043 -0.0832
 1286ERGO   ROH16675   8.636  14.507   6.802 -0.0567  0.2812 -0.0895
 1286ERGO    R116676   8.648  14.532   7.083  0.0406  0.0647 -0.0736
 1286ERGO    R216677   8.465  14.680   7.227  0.1716  0.0626  0.0875
 1286ERGO    R316678   8.433  14.448   7.365  0.0771 -0.0205 -0.0688
 1286ERGO    R416679   8.296  14.651   7.527  0.2796 -0.0357  0.1405
 1286ERGO    R516680   8.451  14.513   7.595  0.2223 -0.1941 -0.0250
 1286ERGO    C116681   8.168  14.416   7.832  0.2536 -0.1710  0.0245
 1286ERGO    C216682   8.099  14.335   8.156  0.2462  0.1972 -0.1978
 1287ERGO   ROH16683   2.961   1.301   9.970  0.0530 -0.2097 -0.1047
 1287ERGO    R116684   2.961   1.447   9.728  0.1162 -0.1077 -0.0454
 1287ERGO    R216685   3.124   1.382   9.514  0.0700 -0.1087 -0.0893
 1287ERGO    R316686   2.889   1.379   9.378  0.0556  0.0725 -0.0673
 1287ERGO    R416687   3.095   1.400   9.170  0.0438 -0.0992 -0.0853
 1287ERGO    R516688   2.923   1.532   9.197  0.1543  0.0346 -0.0751
 1287ERGO    C116689   2.857   1.408   8.842  0.0151  0.0764 -0.0622
 1287ERGO    C216690   2.826   1.423   8.513 -0.0288  0.1145 -0.0113
 1288ERGO   ROH16691   2.868  14.773   6.554  0.0359  0.0286  0.1297
 1288ERGO    R116692   2.734  14.674   6.783 -0.0848  0.0440  0.0667
 1288ERGO    R216693   2.865  14.541   6.986 -0.2373 -0.2207 -0.0002
 1288ERGO    R316694   2.747  14.729   7.142 -0.0361 -0.1748  0.0995
 1288ERGO    R416695   2.816  14.513   7.327 -0.0644 -0.2439  0.0235
 1288ERGO    R516696   2.620  14.604   7.301 -0.0229 -0.1212  0.1496
 1288ERGO    C116697   2.677  14.674   7.672  0.2250 -0.2143  0.1308
 1288ERGO    C216698   2.863  14.669   8.002  0.0707 -0.2408  0.0160
 1289ERGO   ROH16699   1.847  15.563   6.551  0.1189  0.2038 -0.1077
 1289ERGO    R116700   1.744  15.557   6.815  0.1055  0.0760 -0.1137
 1289ERGO    R216701   1.907  15.534   7.037  0.0938 -0.0961 -0.1125
 1289ERGO    R316702   1.777  15.760   7.115  0.1487 -0.1055  0.0027
 1289ERGO    R416703   1.853  15.627   7.365  0.1678 -0.2054 -0.0699
 1289ERGO    R516704   1.653  15.692   7.309  0.1754 -0.1506 -0.0030
 1289ERGO    C116705   1.699  15.892   7.630  0.2624 -0.2780  0.0629
 1289ERGO    C216706   1.662  16.061   7.988 -0.2510 -0.1161 -0.1489
 1290ERGO   ROH16707  16.583  10.034   6.790 -0.0122  0.1267  0.0065
 1290ERGO    R116708  16.729   9.879   6.976  0.2314  0.3467  0.0071
 1290ERGO    R216709  16.878   9.991   7.180 -0.2529  0.5814  0.2571
 1290ERGO    R316710  16.728   9.827   7.336  0.0119  0.0364 -0.0358
 1290ERGO    R416711  16.974   9.870   7.489 -0.2145  0.4898  0.2077
 1290ERGO    R516712  16.886   9.678   7.435  0.3006  0.3185 -0.0674
 1290ERGO    C116713  16.889   9.645   7.815  0.0564 -0.0752 -0.0959
 1290ERGO    C216714  16.943   9.624   8.110 -0.0318  0.0996  0.2025
 1291ERGO   ROH16715   2.554   3.979   6.407 -0.2558 -0.1708  0.0150
 1291ERGO    R116716   2.542   4.140   6.639 -0.0126 -0.1658  0.0276
 1291ERGO    R216717   2.313   4.161   6.793  0.0093  0.1809  0.0214
 1291ERGO    R316718   2.480   4.087   6.994 -0.1099 -0.1001  0.0204
 1291ERGO    R416719   2.267   4.238   7.127  0.1822  0.3332  0.0114
 1291ERGO    R516720   2.481   4.275   7.143  0.2584 -0.0689 -0.0141
 1291ERGO    C116721   2.397   4.213   7.510  0.1709  0.1581  0.0047
 1291ERGO    C216722   2.233   4.128   7.815  0.1344  0.3327 -0.0206
 1292ERGO   ROH16723  13.927  16.296   6.776  0.2002  0.1114 -0.0657
 1292ERGO    R116724  13.893  16.218   7.046  0.1469 -0.0214 -0.1093
 1292ERGO    R216725  14.035  16.334   7.253 -0.0946  0.0781  0.0087
 1292ERGO    R316726  13.787  16.378   7.356 -0.2059 -0.2469 -0.1097
 1292ERGO    R416727  13.957  16.327   7.590 -0.2261  0.1060 -0.0210
 1292ERGO    R516728  13.771  16.225   7.539 -0.0541 -0.1929 -0.0537
 1292ERGO    C116729  13.678  16.365   7.882 -0.4071 -0.1826 -0.1495
 1292ERGO    C216730  13.815  16.574   8.169 -0.2357 -0.0761 -0.0688
 1293ERGO   ROH16731   1.723  11.312   9.823  0.0555  0.0252  0.0645
 1293ERGO    R116732   1.603  11.330   9.568  0.1128 -0.0398  0.0320
 1293ERGO    R216733   1.591  11.567   9.426  0.0510 -0.0511  0.0132
 1293ERGO    R316734   1.710  11.420   9.231  0.1638 -0.0156  0.0555
 1293ERGO    R416735   1.558  11.625   9.087 -0.0443 -0.2160 -0.0062
 1293ERGO    R516736   1.547  11.409   9.056  0.1531 -0.2374  0.0791
 1293ERGO    C116737   1.651  11.520   8.706  0.0061 -0.2788  0.0220
 1293ERGO    C216738   1.759  11.465   8.371  0.4217 -0.3098 -0.1429
 1294ERGO   ROH16739   8.399  15.262  10.344 -0.2493  0.0868  0.0730
 1294ERGO    R116740   8.327  15.303  10.073 -0.2962  0.1259  0.0902
 1294ERGO    R216741   8.413  15.522   9.929 -0.2409  0.1012  0.0758
 1294ERGO    R316742   8.502  15.333   9.755 -0.3556  0.0688  0.0535
 1294ERGO    R416743   8.447  15.568   9.588  0.0227  0.1983  0.1142
 1294ERGO    R516744   8.370  15.366   9.558 -0.1945  0.3024 -0.0155
 1294ERGO    C116745   8.551  15.416   9.227  0.0687  0.2243  0.1155
 1294ERGO    C216746   8.561  15.369   8.876 -0.2941  0.2395  0.1863
 1295ERGO   ROH16747  10.095   0.542   6.857  0.1011 -0.1570  0.1845
 1295ERGO    R116748  10.287   0.578   7.062  0.0438  0.0005  0.2107
 1295ERGO    R216749  10.350   0.827   7.165 -0.1172  0.0591  0.1619
 1295ERGO    R316750  10.288   0.709   7.402 -0.0897  0.0819  0.1816
 1295ERGO    R416751  10.389   0.974   7.476 -0.2264  0.1534  0.1325
 1295ERGO    R516752  10.459   0.782   7.552 -0.1411  0.2021  0.1862
 1295ERGO    C116753  10.353   0.948   7.879 -0.2642  0.2298  0.1340
 1295ERGO    C216754  10.333   1.114   8.175 -0.1880 -0.1670 -0.3735
 1296ERGO   ROH16755   6.856   2.316   6.675 -0.1408  0.3311 -0.1448
 1296ERGO    R116756   6.839   2.297   6.956 -0.0756  0.1625 -0.1519
 1296ERGO    R216757   6.970   2.472   7.126  0.0233  0.0151 -0.0767
 1296ERGO    R316758   6.721   2.506   7.229  0.0610  0.0328  0.0102
 1296ERGO    R416759   6.898   2.645   7.416  0.1384  0.0408 -0.0629
 1296ERGO    R516760   6.752   2.491   7.466  0.1481  0.0486  0.0017
 1296ERGO    C116761   6.623   2.777   7.683  0.2407  0.0724  0.0269
 1296ERGO    C216762   6.520   2.944   7.953  0.1213  0.0892 -0.0324
 1297ERGO   ROH16763   6.167  12.809   9.966  0.0842  0.3374  0.1177
 1297ERGO    R116764   6.301  12.811   9.716  0.0451  0.0198  0.0902
 1297ERGO    R216765   6.229  12.645   9.508 -0.1861 -0.0361  0.2098
 1297ERGO    R316766   6.212  12.878   9.369  0.0611 -0.1016  0.0627
 1297ERGO    R416767   6.263  12.673   9.165 -0.0597 -0.2651  0.2008
 1297ERGO    R516768   6.377  12.856   9.197  0.0922 -0.3479  0.1226
 1297ERGO    C116769   6.267  12.909   8.836  0.2457 -0.4601  0.0577
 1297ERGO    C216770   6.233  12.887   8.481 -0.3202 -0.0437 -0.0459
 1298ERGO   ROH16771  11.534  17.018   6.591  0.0119 -0.1158 -0.0190
 1298ERGO    R116772  11.668  16.985   6.838 -0.0320 -0.0980  0.0073
 1298ERGO    R216773  11.677  17.184   7.030  0.0085 -0.0529 -0.0432
 1298ERGO    R316774  11.578  16.988   7.190 -0.0772  0.0216 -0.0040
 1298ERGO    R416775  11.621  17.214   7.370  0.3231 -0.0548  0.0118
 1298ERGO    R516776  11.697  17.012   7.396  0.1244 -0.1490 -0.0948
 1298ERGO    C116777  11.495  17.047   7.718  0.4258  0.0137  0.0809
 1298ERGO    C216778  11.166  16.940   7.958  0.0365  0.0507 -0.1778
 1299ERGO   ROH16779   1.687  16.081   6.541  0.1229  0.1304 -0.0782
 1299ERGO    R116780   1.671  16.125   6.820  0.0506  0.2075 -0.0948
 1299ERGO    R216781   1.495  16.307   6.931 -0.1720  0.0428 -0.1716
 1299ERGO    R316782   1.417  16.092   7.078  0.0675 -0.0016 -0.1033
 1299ERGO    R416783   1.387  16.321   7.259 -0.2129  0.0266 -0.1838
 1299ERGO    R516784   1.498  16.138   7.299 -0.0007  0.1686 -0.1124
 1299ERGO    C116785   1.250  16.128   7.588 -0.0119 -0.0244 -0.1267
 1299ERGO    C216786   0.996  16.027   7.794  0.1304 -0.1785  0.3315
 1300ERGO   ROH16787   8.188  11.982  10.092  0.1890  0.0310 -0.1388
 1300ERGO    R116788   8.015  11.983   9.868  0.1241  0.0788 -0.0875
 1300ERGO    R216789   7.988  12.202   9.701  0.1844  0.0596 -0.1111
 1300ERGO    R316790   8.049  12.022   9.507  0.0328  0.0011 -0.1073
 1300ERGO    R416791   7.952  12.258   9.362  0.5266  0.2229 -0.1251
 1300ERGO    R516792   7.879  12.054   9.341  0.1957  0.3359 -0.2293
 1300ERGO    C116793   7.989  12.121   8.982  0.5837  0.2632 -0.1297
 1300ERGO    C216794   8.048  12.124   8.610  0.1029  0.4100  0.1032
 1301ERGO   ROH16795   2.239  13.180   9.932  0.5276  0.1082 -0.1422
 1301ERGO    R116796   2.264  13.290   9.673  0.3201 -0.1077 -0.2580
 1301ERGO    R216797   2.207  13.146   9.443 -0.1668 -0.2079 -0.0880
 1301ERGO    R316798   2.042  13.356   9.391  0.0191 -0.0392 -0.0106
 1301ERGO    R416799   2.143  13.275   9.129 -0.2216 -0.1747 -0.0633
 1301ERGO    R516800   2.151  13.475   9.214  0.0386 -0.1710 -0.0879
 1301ERGO    C116801   1.951  13.546   8.897 -0.0789  0.0031  0.0236
 1301ERGO    C216802   1.851  13.579   8.486  0.0904  0.0127 -0.0705
 1302ERGO   ROH16803   1.968  15.766  10.358 -0.2147  0.1310  0.0023
 1302ERGO    R116804   2.113  15.745  10.116 -0.1518  0.2623  0.0275
 1302ERGO    R216805   2.081  15.533   9.941  0.1079  0.2030  0.0455
 1302ERGO    R316806   2.035  15.732   9.761 -0.0836  0.1342  0.0169
 1302ERGO    R416807   2.160  15.519   9.605  0.1083  0.2269  0.0449
 1302ERGO    R516808   2.225  15.726   9.615 -0.0837  0.2889  0.0107
 1302ERGO    C116809   2.163  15.696   9.240 -0.0712  0.1761  0.0176
 1302ERGO    C216810   2.099  15.761   8.982 -0.1641  0.1047  0.0931
 1303ERGO   ROH16811  12.669   1.302  10.445 -0.2308 -0.0441  0.0539
 1303ERGO    R116812  12.666   1.414  10.185 -0.4655 -0.1488  0.0100
 1303ERGO    R216813  12.848   1.344   9.991 -0.2206  0.2558  0.0892
 1303ERGO    R316814  12.625   1.292   9.845 -0.0593 -0.3983  0.0428
 1303ERGO    R416815  12.840   1.312   9.647 -0.0730  0.4606  0.0641
 1303ERGO    R516816  12.652   1.422   9.646 -0.4679 -0.1516  0.1318
 1303ERGO    C116817  12.626   1.244   9.309  0.1644 -0.0343  0.0059
 1303ERGO    C216818  12.582   1.176   9.023 -0.0335  0.0233  0.0247
 1304ERGO   ROH16819  14.881   4.627   6.251  0.0242  0.0215  0.0355
 1304ERGO    R116820  14.883   4.569   6.528  0.0781  0.1924  0.0736
 1304ERGO    R216821  15.117   4.539   6.672  0.1123  0.1781  0.0292
 1304ERGO    R316822  15.005   4.729   6.831  0.2387  0.3309 -0.0648
 1304ERGO    R416823  15.185   4.578   7.009 -0.3315 -0.0989  0.1590
 1304ERGO    R516824  14.973   4.618   7.042 -0.3084  0.3047 -0.1556
 1304ERGO    C116825  15.120   4.780   7.354 -0.4713 -0.1168  0.1464
 1304ERGO    C216826  15.352   4.730   7.601 -0.0554 -0.1863 -0.0933
 1305ERGO   ROH16827   3.137  17.456   6.686  0.0836  0.1854  0.1601
 1305ERGO    R116828   3.132  17.483   6.968 -0.0722  0.0731  0.1697
 1305ERGO    R216829   2.965  17.332   7.129 -0.0378 -0.1176  0.0326
 1305ERGO    R316830   3.197  17.268   7.255 -0.0479  0.0098  0.1168
 1305ERGO    R416831   2.987  17.183   7.440 -0.0708 -0.2321 -0.0198
 1305ERGO    R516832   3.155  17.314   7.486 -0.1944 -0.1211  0.1163
 1305ERGO    C116833   3.218  17.036   7.739 -0.0996 -0.1794  0.0287
 1305ERGO    C216834   3.157  16.868   8.039  0.2191  0.1010 -0.2881
 1306ERGO   ROH16835   2.274  16.678  10.343  0.0834  0.1493 -0.1406
 1306ERGO    R116836   2.309  16.577  10.081  0.1630  0.1204 -0.1196
 1306ERGO    R216837   2.117  16.603   9.884  0.1966  0.0452 -0.1653
 1306ERGO    R316838   2.322  16.715   9.744  0.1990  0.0763 -0.1361
 1306ERGO    R416839   2.168  16.566   9.544  0.0790  0.2997 -0.2125
 1306ERGO    R516840   2.381  16.548   9.583  0.0834  0.1819 -0.2901
 1306ERGO    C116841   2.389  16.649   9.215  0.0128  0.4770 -0.2125
 1306ERGO    C216842   2.258  16.620   8.811 -0.0290 -0.0753  0.1744
 1307ERGO   ROH16843   5.586  10.601   6.484 -0.0827  0.0157  0.0920
 1307ERGO    R116844   5.556  10.549   6.761 -0.2026  0.0847  0.0936
 1307ERGO    R216845   5.762  10.452   6.918 -0.3300 -0.0965  0.1629
 1307ERGO    R316846   5.705  10.669   7.070 -0.1584 -0.0128  0.1084
 1307ERGO    R416847   5.780  10.462   7.262 -0.3469 -0.0170  0.1611
 1307ERGO    R516848   5.597  10.580   7.264 -0.2436  0.1324  0.1227
 1307ERGO    C116849   5.736  10.672   7.606 -0.1957  0.1080  0.1088
 1307ERGO    C216850   5.875  10.611   7.887 -0.3995  0.0050 -0.1639
 1308ERGO   ROH16851  15.799   6.671   6.865 -0.3034  0.0676  0.1647
 1308ERGO    R116852  15.837   6.951   6.880 -0.1284  0.0515  0.0553
 1308ERGO    R216853  15.640   7.124   6.969 -0.0148  0.2092  0.0132
 1308ERGO    R316854  15.834   7.205   7.141  0.0554  0.1505 -0.0385
 1308ERGO    R416855  15.654   7.435   7.119  0.1160  0.1970  0.0270
 1308ERGO    R516856  15.870   7.436   7.087  0.1035  0.1416 -0.0339
 1308ERGO    C116857  15.845   7.692   7.368  0.2581  0.1348 -0.0137
 1308ERGO    C216858  15.850   8.091   7.355 -0.2684 -0.0283  0.2196
 1309ERGO   ROH16859  10.098  15.160   7.117 -0.0251 -0.1609 -0.1484
 1309ERGO    R116860   9.999  15.166   7.382 -0.1169 -0.1649 -0.1823
 1309ERGO    R216861   9.813  14.984   7.475 -0.0464 -0.2518 -0.2100
 1309ERGO    R316862   9.999  14.941   7.668 -0.0865 -0.1101 -0.1390
 1309ERGO    R416863   9.741  14.921   7.807 -0.1211 -0.1541 -0.2073
 1309ERGO    R516864   9.909  15.050   7.862 -0.1846 -0.0704 -0.2054
 1309ERGO    C116865   9.874  14.845   8.183 -0.2025  0.0359 -0.1390
 1309ERGO    C216866   9.795  14.756   8.608  0.0754 -0.1068 -0.0471
 1310ERGO   ROH16867  15.255  12.717   6.405 -0.0755  0.1539 -0.0083
 1310ERGO    R116868  15.337  12.717   6.675  0.1002  0.1040 -0.0610
 1310ERGO    R216869  15.168  12.648   6.882  0.1511  0.3390  0.0587
 1310ERGO    R316870  15.365  12.471   6.943 -0.0146  0.1144 -0.0373
 1310ERGO    R416871  15.221  12.512   7.195  0.0931  0.2160  0.0164
 1310ERGO    R516872  15.436  12.535   7.163  0.1147 -0.0029 -0.0400
 1310ERGO    C116873  15.438  12.268   7.435 -0.0960 -0.0666 -0.0983
 1310ERGO    C216874  15.373  12.135   7.848 -0.0607  0.0577 -0.2635
 1311ERGO   ROH16875  12.793   3.585   6.723 -0.1240  0.0512  0.0286
 1311ERGO    R116876  12.875   3.538   6.990 -0.1543 -0.0096  0.0284
 1311ERGO    R216877  13.130   3.595   7.080 -0.0691 -0.3011 -0.0018
 1311ERGO    R316878  12.997   3.738   7.268  0.1136 -0.1106 -0.0153
 1311ERGO    R416879  13.202   3.592   7.418 -0.1189 -0.4059  0.0075
 1311ERGO    R516880  12.988   3.593   7.458 -0.1211 -0.0979 -0.0190
 1311ERGO    C116881  13.118   3.725   7.792  0.0236 -0.2881  0.0003
 1311ERGO    C216882  13.156   3.773   8.197  0.1037  0.3280  0.2095
 1312ERGO   ROH16883   4.123  14.024   9.904 -0.1661 -0.0601 -0.2626
 1312ERGO    R116884   4.168  14.145   9.652 -0.1089 -0.0457 -0.2442
 1312ERGO    R216885   4.422  14.196   9.554 -0.0928  0.0169 -0.1526
 1312ERGO    R316886   4.332  14.054   9.341  0.0207  0.0026 -0.1928
 1312ERGO    R416887   4.496  14.267   9.224  0.3136 -0.1538 -0.1053
 1312ERGO    R516888   4.290  14.219   9.173  0.3210 -0.0178 -0.3019
 1312ERGO    C116889   4.455  14.174   8.832  0.6567 -0.2665 -0.1154
 1312ERGO    C216890   4.515  14.195   8.536 -0.2188  0.1755 -0.2085
 1313ERGO   ROH16891   3.223   3.508   9.719  0.3214  0.3317 -0.2114
 1313ERGO    R116892   3.139   3.339   9.508  0.2358  0.2171 -0.0877
 1313ERGO    R216893   2.942   3.413   9.328  0.0613  0.0616  0.0354
 1313ERGO    R316894   3.134   3.353   9.145 -0.0521  0.0864 -0.0919
 1313ERGO    R416895   2.880   3.288   9.012 -0.1343  0.0136  0.0918
 1313ERGO    R516896   3.052   3.156   9.036 -0.0852  0.0551 -0.0132
 1313ERGO    C116897   3.023   3.159   8.655 -0.3546  0.0089  0.0052
 1313ERGO    C216898   2.996   3.232   8.242 -0.1012 -0.0881 -0.0810
 1314ERGO   ROH16899  17.463  10.819   6.396  0.1600  0.2947 -0.0575
 1314ERGO    R116900  17.463  10.908   6.664  0.0149  0.1410 -0.0040
 1314ERGO    R216901  17.301  10.798   6.858  0.0669 -0.1217 -0.1038
 1314ERGO    R316902  17.536  10.765   6.991  0.0689  0.0152 -0.0711
 1314ERGO    R416903  17.331  10.766   7.201  0.0350 -0.1762 -0.1058
 1314ERGO    R516904  17.509  10.892   7.192 -0.0532 -0.0486 -0.0476
 1314ERGO    C116905  17.569  10.716   7.525  0.0184 -0.0793 -0.0763
 1314ERGO    C216906  17.677  10.757   7.856  0.2538  0.0392  0.0792
 1315ERGO   ROH16907  14.547   1.405   6.622  0.1382  0.0813 -0.1426
 1315ERGO    R116908  14.581   1.552   6.861  0.0000  0.0121 -0.0800
 1315ERGO    R216909  14.370   1.615   7.029 -0.0796 -0.1315 -0.1292
 1315ERGO    R316910  14.526   1.496   7.217 -0.0944 -0.1321 -0.1160
 1315ERGO    R416911  14.319   1.636   7.370 -0.1134 -0.1364 -0.1332
 1315ERGO    R516912  14.535   1.654   7.396 -0.1143 -0.1326 -0.1126
 1315ERGO    C116913  14.436   1.535   7.745 -0.1470 -0.1397 -0.1231
 1315ERGO    C216914  14.311   1.427   8.064 -0.0232 -0.4224 -0.0652
 1316ERGO   ROH16915   3.690  12.634   9.674 -0.0495 -0.1133  0.0500
 1316ERGO    R116916   3.551  12.681   9.431 -0.0376 -0.3276  0.0005
 1316ERGO    R216917   3.577  12.916   9.288 -0.4445 -0.2318  0.0797
 1316ERGO    R316918   3.641  12.747   9.085 -0.0100 -0.0552  0.0564
 1316ERGO    R416919   3.566  12.998   8.953 -0.6308 -0.1949  0.0931
 1316ERGO    R516920   3.484  12.801   8.912 -0.1464 -0.4100  0.0572
 1316ERGO    C116921   3.620  12.888   8.567 -0.3314 -0.0076  0.0790
 1316ERGO    C216922   3.581  12.944   8.310  0.0627 -0.0610  0.2004
 1317ERGO   ROH16923   8.409  11.074  10.050  0.2186 -0.0495 -0.1023
 1317ERGO    R116924   8.377  11.203   9.800  0.0367 -0.0743 -0.0930
 1317ERGO    R216925   8.591  11.272   9.639 -0.0689  0.0733 -0.1737
 1317ERGO    R316926   8.455  11.129   9.453 -0.0390 -0.0245 -0.1207
 1317ERGO    R416927   8.672  11.256   9.304 -0.0746 -0.0236 -0.1706
 1317ERGO    R516928   8.459  11.266   9.257 -0.0777 -0.0916 -0.1685
 1317ERGO    C116929   8.591  11.113   8.933 -0.0497 -0.1719 -0.1190
 1317ERGO    C216930   8.496  11.136   8.593 -0.0813 -0.0378  0.0560
 1318ERGO   ROH16931  15.444   1.060   6.649  0.2042  0.0997  0.0076
 1318ERGO    R116932  15.361   1.002   6.913  0.0413  0.1144 -0.0391
 1318ERGO    R216933  15.538   0.980   7.123 -0.0448 -0.2400  0.0043
 1318ERGO    R316934  15.376   1.166   7.238  0.1999 -0.0381  0.0318
 1318ERGO    R416935  15.564   1.090   7.450 -0.0894 -0.5576  0.1182
 1318ERGO    R516936  15.346   1.088   7.463 -0.1098 -0.1769 -0.0522
 1318ERGO    C116937  15.427   1.328   7.748  0.1143 -0.5530  0.2103
 1318ERGO    C216938  15.496   1.449   8.078 -0.0284 -0.0925  0.0107
 1319ERGO   ROH16939  12.312   2.914   6.949 -0.0905 -0.1246 -0.1149
 1319ERGO    R116940  12.379   2.838   7.213 -0.1001 -0.0756 -0.0982
 1319ERGO    R216941  12.282   2.969   7.436  0.0052  0.0557 -0.1286
 1319ERGO    R316942  12.201   2.720   7.508 -0.1301  0.1255 -0.0344
 1319ERGO    R416943  12.224   2.867   7.761 -0.0668  0.2145 -0.0905
 1319ERGO    R516944  12.318   2.676   7.712 -0.1638  0.1447 -0.0106
 1319ERGO    C116945  12.114   2.573   8.018 -0.2357  0.3725  0.0203
 1319ERGO    C216946  12.055   2.316   8.282 -0.3009 -0.1820  0.5928
 1320ERGO   ROH16947  12.810   6.734   6.766  0.0581  0.0181 -0.0030
 1320ERGO    R116948  12.807   6.788   7.044 -0.0256  0.0400 -0.0085
 1320ERGO    R216949  12.579   6.874   7.176 -0.1289 -0.1875 -0.0395
 1320ERGO    R316950  12.632   6.660   7.336  0.0805 -0.1192 -0.0125
 1320ERGO    R416951  12.532   6.867   7.518 -0.0196 -0.1524 -0.0227
 1320ERGO    R516952  12.719   6.757   7.537  0.0721 -0.0109 -0.0577
 1320ERGO    C116953  12.553   6.663   7.868  0.2404 -0.0677  0.0123
 1320ERGO    C216954  12.426   6.540   8.120 -0.0332  0.4248  0.1003
 1321ERGO   ROH16955  10.235  14.267   7.135 -0.0695 -0.1817  0.0127
 1321ERGO    R116956  10.280  14.187   7.403  0.1545 -0.2381 -0.0400
 1321ERGO    R216957  10.514  14.066   7.485  0.4388  0.2110 -0.1583
 1321ERGO    R316958  10.517  14.268   7.667  0.0441  0.1258 -0.0457
 1321ERGO    R416959  10.654  14.046   7.801  0.2093  0.2158 -0.0541
 1321ERGO    R516960  10.484  14.160   7.877  0.0029 -0.0282 -0.1279
 1321ERGO    C116961  10.738  14.225   8.155 -0.2947  0.1387  0.1123
 1321ERGO    C216962  10.808  14.222   8.428 -0.2647  0.0102  0.1975
 1322ERGO   ROH16963   8.994  14.222  10.517 -0.1567 -0.0377 -0.1035
 1322ERGO    R116964   8.842  14.300  10.292 -0.0741  0.0160 -0.1393
 1322ERGO    R216965   8.917  14.508  10.127  0.0875 -0.0749 -0.1708
 1322ERGO    R316966   8.894  14.320   9.932 -0.0179 -0.0964 -0.1398
 1322ERGO    R416967   8.943  14.570   9.788  0.1374 -0.1358 -0.1796
 1322ERGO    R516968   8.778  14.432   9.755  0.0503 -0.0488 -0.1619
 1322ERGO    C116969   8.936  14.430   9.407  0.0674 -0.1916 -0.1555
 1322ERGO    C216970   8.897  14.519   9.066  0.4723 -0.4573  0.0184
 1323ERGO   ROH16971  15.442  16.134  10.438 -0.1823 -0.1989  0.0906
 1323ERGO    R116972  15.468  15.980  10.202 -0.1376 -0.1718  0.0787
 1323ERGO    R216973  15.279  15.983  10.001  0.0147  0.0321 -0.0612
 1323ERGO    R316974  15.492  16.045   9.844  0.1860 -0.1189  0.1060
 1323ERGO    R416975  15.300  15.919   9.662  0.0235  0.4421 -0.1438
 1323ERGO    R516976  15.509  15.862   9.691 -0.0743  0.0448 -0.1322
 1323ERGO    C116977  15.513  15.940   9.318  0.1893  0.5393 -0.0349
 1323ERGO    C216978  15.369  15.993   8.965  0.1970  0.1595  0.0527
 1324ERGO   ROH16979   5.508  14.178   6.237 -0.2335 -0.2912  0.0853
 1324ERGO    R116980   5.565  14.099   6.503 -0.1911 -0.1713  0.1126
 1324ERGO    R216981   5.732  14.244   6.668 -0.0743 -0.1557 -0.0164
 1324ERGO    R316982   5.517  14.238   6.836 -0.0285  0.0348  0.0522
 1324ERGO    R416983   5.748  14.286   7.011  0.0880 -0.2777 -0.0076
 1324ERGO    R516984   5.599  14.128   7.032 -0.0850 -0.1189 -0.0085
 1324ERGO    C116985   5.556  14.305   7.368  0.2254 -0.1701  0.0619
 1324ERGO    C216986   5.502  14.408   7.733  0.0510  0.2961 -0.0871
 1325ERGO   ROH16987   5.264   2.177   6.457  0.0738 -0.1760 -0.1554
 1325ERGO    R116988   5.200   2.325   6.689  0.1487 -0.1229 -0.1685
 1325ERGO    R216989   4.942   2.346   6.785  0.1643 -0.0144 -0.1498
 1325ERGO    R316990   5.054   2.254   7.015  0.1499 -0.0282 -0.1476
 1325ERGO    R416991   4.816   2.402   7.102  0.1128 -0.0893 -0.1560
 1325ERGO    R516992   5.021   2.432   7.172  0.0957 -0.0610 -0.1236
 1325ERGO    C116993   4.849   2.349   7.503  0.0691 -0.1459 -0.1576
 1325ERGO    C216994   4.653   2.310   7.847 -0.2813 -0.1551 -0.1243
 1326ERGO   ROH16995  16.198   4.801  10.118 -0.0182 -0.0273 -0.0399
 1326ERGO    R116996  16.233   4.944   9.876 -0.1854  0.0137 -0.0410
 1326ERGO    R216997  16.440   4.892   9.701  0.0240  0.4105  0.0728
 1326ERGO    R316998  16.238   4.865   9.521  0.1607 -0.0346 -0.0280
 1326ERGO    R416999  16.481   4.885   9.358  0.2222  0.1928  0.0976
 1326ERGO    R517000  16.301   5.007   9.339  0.0489 -0.0865 -0.1051
 1326ERGO    C117001  16.314   4.856   8.989  0.4661 -0.3519  0.0174
 1326ERGO    C217002  16.435   4.807   8.772  0.3237 -0.2200  0.1284
 1327ERGO   ROH17003  12.107  11.481   6.838 -0.0126 -0.1408 -0.0844
 1327ERGO    R117004  11.992  11.484   7.096 -0.0309  0.0493 -0.0949
 1327ERGO    R217005  12.005  11.268   7.268 -0.2079  0.1090 -0.0118
 1327ERGO    R317006  12.109  11.452   7.439 -0.0845  0.0969 -0.0702
 1327ERGO    R417007  12.184  11.193   7.554 -0.1956  0.0720 -0.0281
 1327ERGO    R517008  12.080  11.355   7.656 -0.0997  0.1525 -0.0420
 1327ERGO    C117009  12.386  11.322   7.881 -0.0727  0.0390 -0.0925
 1327ERGO    C217010  12.694  11.366   8.022 -0.0722  0.1419 -0.1539
 1328ERGO   ROH17011  15.564   2.899  10.248 -0.0227 -0.0363 -0.0179
 1328ERGO    R117012  15.620   2.736  10.024  0.0639  0.0117 -0.0319
 1328ERGO    R217013  15.423   2.605   9.881  0.1382 -0.1464  0.0055
 1328ERGO    R317014  15.535   2.734   9.670 -0.0074 -0.0503 -0.0145
 1328ERGO    R417015  15.467   2.468   9.567  0.3881 -0.1857  0.0557
 1328ERGO    R517016  15.662   2.565   9.558  0.2556  0.0915  0.0607
 1328ERGO    C117017  15.598   2.510   9.186  0.3969 -0.1184  0.0662
 1328ERGO    C217018  15.619   2.401   8.839 -0.0261  0.0029 -0.0447
 1329ERGO   ROH17019  13.442   6.865   6.747 -0.0058 -0.0648  0.0217
 1329ERGO    R117020  13.301   6.836   6.990 -0.0045 -0.0924  0.0186
 1329ERGO    R217021  13.366   6.644   7.178  0.1079  0.0009  0.0730
 1329ERGO    R317022  13.378   6.858   7.345 -0.0453  0.0536  0.0197
 1329ERGO    R417023  13.391   6.624   7.522  0.5193  0.0944  0.0531
 1329ERGO    R517024  13.251   6.791   7.537  0.2663 -0.1196  0.1745
 1329ERGO    C117025  13.418   6.814   7.879  0.6148  0.1984 -0.0085
 1329ERGO    C217026  13.522   6.979   8.169  0.1061 -0.3741 -0.0565
 1330ERGO   ROH17027   3.378  17.549  10.092 -0.0597  0.0004 -0.0688
 1330ERGO    R117028   3.438  17.460   9.830  0.1269  0.1523 -0.0789
 1330ERGO    R217029   3.245  17.357   9.660  0.3136 -0.0988 -0.1366
 1330ERGO    R317030   3.338  17.549   9.491  0.0573  0.0838 -0.0781
 1330ERGO    R417031   3.194  17.361   9.318  0.1615  0.0257 -0.1142
 1330ERGO    R517032   3.399  17.429   9.293  0.0915  0.2406 -0.1679
 1330ERGO    C117033   3.251  17.544   8.961 -0.1677  0.2695 -0.0464
 1330ERGO    C217034   3.227  17.548   8.641  0.1667  0.1790  0.1135
 1331ERGO   ROH17035  12.875   3.208  10.451  0.0096  0.1009 -0.0626
 1331ERGO    R117036  12.878   3.138  10.177 -0.0325  0.0521 -0.0510
 1331ERGO    R217037  12.647   3.111  10.028 -0.0616 -0.0346  0.0023
 1331ERGO    R317038  12.770   3.289   9.863 -0.1412 -0.0301 -0.0527
 1331ERGO    R417039  12.603   3.127   9.685 -0.0364 -0.1771 -0.0076
 1331ERGO    R517040  12.817   3.163   9.665 -0.0576 -0.0733 -0.0025
 1331ERGO    C117041  12.693   3.302   9.332 -0.0964 -0.2559 -0.0650
 1331ERGO    C217042  12.625   3.129   9.109  0.0892  0.2593 -0.0920
 1332ERGO   ROH17043  17.077   2.596   9.770  0.1494 -0.2452 -0.1401
 1332ERGO    R117044  17.216   2.482   9.552  0.1974 -0.1153 -0.1775
 1332ERGO    R217045  17.087   2.356   9.343  0.2565 -0.1798 -0.1679
 1332ERGO    R317046  17.229   2.531   9.192  0.1058 -0.0605 -0.1757
 1332ERGO    R417047  17.084   2.366   8.998  0.2589 -0.2276 -0.1698
 1332ERGO    R517048  17.299   2.403   9.002  0.2346 -0.0270 -0.1595
 1332ERGO    C117049  17.215   2.536   8.654  0.1189 -0.1435 -0.1785
 1332ERGO    C217050  17.235   2.624   8.343  0.3246 -0.4573  0.2631
 1333ERGO   ROH17051  11.182  15.913  10.585  0.1453 -0.1479  0.0647
 1333ERGO    R117052  11.112  15.891  10.312  0.1023 -0.0822  0.0694
 1333ERGO    R217053  10.975  16.089  10.176 -0.0099 -0.0903  0.1625
 1333ERGO    R317054  11.186  16.072  10.005 -0.0325  0.0577  0.1195
 1333ERGO    R417055  10.952  16.098   9.831 -0.0832 -0.1302  0.1667
 1333ERGO    R517056  11.103  15.943   9.821  0.0303 -0.0145  0.1452
 1333ERGO    C117057  11.136  16.088   9.470 -0.1472 -0.0143  0.1289
 1333ERGO    C217058  11.175  16.164   9.163 -0.0355  0.1746 -0.2691
 1334ERGO   ROH17059   4.984  14.854  10.012  0.0263 -0.0619  0.0260
 1334ERGO    R117060   5.047  15.023   9.794 -0.1138  0.0682  0.0850
 1334ERGO    R217061   5.232  14.954   9.600 -0.0018  0.3202  0.1020
 1334ERGO    R317062   5.026  15.006   9.431 -0.0260  0.1469  0.0746
 1334ERGO    R417063   5.259  14.977   9.257 -0.0111  0.1221  0.0865
 1334ERGO    R517064   5.122  15.145   9.262 -0.0731  0.0815 -0.0114
 1334ERGO    C117065   5.082  15.039   8.898 -0.0392 -0.1560  0.0516
 1334ERGO    C217066   5.080  15.154   8.611 -0.0280 -0.0823  0.1455
 1335ERGO   ROH17067   7.592   0.054   6.843  0.2175  0.1604  0.1292
 1335ERGO    R117068   7.677   0.159   7.092 -0.0640  0.0951  0.2580
 1335ERGO    R217069   7.574   0.072   7.333  0.0600 -0.3799  0.1569
 1335ERGO    R317070   7.836   0.030   7.393  0.1472  0.1197  0.1565
 1335ERGO    R417071   7.718   0.132   7.642 -0.0759 -0.2455  0.1944
 1335ERGO    R517072   7.893   0.212   7.539 -0.2263  0.1621  0.2518
 1335ERGO    C117073   8.048   0.128   7.877 -0.0731  0.3019  0.2158
 1335ERGO    C217074   8.200   0.054   8.035  0.0853  0.0105  0.0652
 1336ERGO   ROH17075  16.265  15.164   6.685  0.1575  0.0826 -0.0016
 1336ERGO    R117076  16.395  15.145   6.936  0.0715  0.0619  0.0428
 1336ERGO    R217077  16.319  15.296   7.155  0.0193  0.0729  0.0228
 1336ERGO    R317078  16.302  15.053   7.275 -0.0577  0.0729  0.0094
 1336ERGO    R417079  16.369  15.239   7.492 -0.2026  0.0635  0.0548
 1336ERGO    R517080  16.475  15.056   7.440 -0.1690  0.0686  0.1237
 1336ERGO    C117081  16.382  14.977   7.801 -0.4042  0.0580  0.0608
 1336ERGO    C217082  16.301  14.930   8.115 -0.1914  0.0005 -0.1539
 1337ERGO   ROH17083   9.669   9.902  10.428  0.3860 -0.0136  0.0095
 1337ERGO    R117084   9.776   9.863  10.169  0.1841 -0.1772 -0.0513
 1337ERGO    R217085   9.709   9.646  10.011 -0.2116 -0.0904 -0.0024
 1337ERGO    R317086   9.646   9.839   9.830 -0.0442 -0.0113  0.0205
 1337ERGO    R417087   9.770   9.626   9.671 -0.1265 -0.0651  0.0105
 1337ERGO    R517088   9.828   9.836   9.674  0.0040 -0.0946  0.0709
 1337ERGO    C117089   9.747   9.796   9.303  0.0804  0.0238  0.0394
 1337ERGO    C217090   9.715   9.847   9.018 -0.1330 -0.1468 -0.2904
 1338ERGO   ROH17091   0.522  16.417   6.415 -0.4616  0.0736 -0.1109
 1338ERGO    R117092   0.529  16.454   6.695 -0.1530  0.1019 -0.1204
 1338ERGO    R217093   0.301  16.448   6.852  0.0189  0.1596  0.1204
 1338ERGO    R317094   0.439  16.259   6.989  0.1297  0.1525  0.0056
 1338ERGO    R417095   0.182  16.280   7.129  0.1703  0.0642  0.1303
 1338ERGO    R517096   0.380  16.297   7.218  0.2179  0.0872  0.0484
 1338ERGO    C117097   0.244  16.004   7.420  0.3624  0.0018  0.0282
 1338ERGO    C217098   0.205  15.871   7.685  0.0736  0.0299 -0.0334
 1339ERGO   ROH17099   3.638   9.624   9.544  0.2804 -0.0617  0.0484
 1339ERGO    R117100   3.516   9.751   9.322  0.2110 -0.0213  0.1093
 1339ERGO    R217101   3.662   9.867   9.118  0.1480 -0.1144  0.0094
 1339ERGO    R317102   3.510   9.706   8.961 -0.0293 -0.0534  0.1157
 1339ERGO    R417103   3.533   9.956   8.810  0.0219 -0.0845  0.0707
 1339ERGO    R517104   3.349   9.853   8.864 -0.0054  0.0221  0.1884
 1339ERGO    C117105   3.315   9.856   8.484 -0.2179 -0.0099  0.2060
 1339ERGO    C217106   3.293   9.837   8.094 -0.1200  0.1639  0.3642
 1340ERGO   ROH17107  14.540  10.492   6.774 -0.1519  0.0586  0.0786
 1340ERGO    R117108  14.546  10.416   7.047 -0.0487  0.1132  0.0917
 1340ERGO    R217109  14.779  10.343   7.176 -0.0020  0.1401  0.0160
 1340ERGO    R317110  14.703  10.536   7.352  0.0663  0.1732  0.0107
 1340ERGO    R417111  14.836  10.334   7.517  0.0270  0.1400  0.0117
 1340ERGO    R517112  14.636  10.415   7.547  0.0488  0.1990  0.0240
 1340ERGO    C117113  14.797  10.509   7.880  0.1081  0.1708  0.0042
 1340ERGO    C217114  14.846  10.535   8.255  0.1508 -0.5602  0.1012
 1341ERGO   ROH17115   5.378  17.795   9.967  0.0632 -0.0009  0.0303
 1341ERGO    R117116   5.219  17.801   9.734 -0.0274  0.0659  0.0937
 1341ERGO    R217117   5.229  18.008   9.551  0.0985 -0.0113  0.0161
 1341ERGO    R317118   5.276  17.807   9.374 -0.1679 -0.1222  0.0652
 1341ERGO    R417119   5.196  18.035   9.208  0.0365 -0.0756  0.0165
 1341ERGO    R517120   5.108  17.835   9.206 -0.1866  0.0138  0.1014
 1341ERGO    C117121   5.221  17.862   8.842 -0.2497 -0.2169  0.0628
 1341ERGO    C217122   5.210  17.854   8.521 -0.0169 -0.0762 -0.1861
 1342ERGO   ROH17123   8.864   4.695   6.550  0.0970 -0.2187 -0.2293
 1342ERGO    R117124   8.915   4.554   6.790  0.1284 -0.2325 -0.2423
 1342ERGO    R217125   9.168   4.531   6.898  0.1377 -0.1868 -0.2405
 1342ERGO    R317126   9.048   4.633   7.120  0.1100 -0.2333 -0.2360
 1342ERGO    R417127   9.289   4.498   7.221  0.1837 -0.1042 -0.2505
 1342ERGO    R517128   9.084   4.466   7.288  0.2093 -0.2014 -0.2289
 1342ERGO    C117129   9.246   4.574   7.616  0.1844 -0.0998 -0.2521
 1342ERGO    C217130   9.270   4.791   7.982 -0.2904  0.1268 -0.0541
 1343ERGO   ROH17131  12.563   3.564  10.222  0.1676  0.1839  0.0985
 1343ERGO    R117132  12.447   3.637   9.975  0.0652  0.0760  0.1145
 1343ERGO    R217133  12.577   3.795   9.789 -0.0716  0.1230  0.0586
 1343ERGO    R317134  12.522   3.588   9.622  0.0094  0.0640  0.1038
 1343ERGO    R417135  12.538   3.822   9.447 -0.3060  0.0725  0.0796
 1343ERGO    R517136  12.373   3.680   9.460 -0.1748 -0.0751  0.1893
 1343ERGO    C117137  12.463   3.643   9.091 -0.3664 -0.0123  0.1343
 1343ERGO    C217138  12.374   3.563   8.721  0.1263  0.0539  0.1745
 1344ERGO   ROH17139   1.153  14.793  10.455 -0.0507 -0.0488  0.0647
 1344ERGO    R117140   0.913  14.849  10.315 -0.0583 -0.0906  0.0599
 1344ERGO    R217141   0.850  15.101  10.222 -0.1164 -0.0936  0.0862
 1344ERGO    R317142   0.822  14.971   9.985 -0.0720 -0.0732  0.0702
 1344ERGO    R417143   0.749  15.248   9.926 -0.1587 -0.0877  0.1044
 1344ERGO    R517144   0.629  15.071   9.885 -0.1023 -0.1207  0.0808
 1344ERGO    C117145   0.662  15.212   9.532 -0.1418 -0.0651  0.1001
 1344ERGO    C217146   0.790  15.358   9.205 -0.0824 -0.2143 -0.3090
 1345ERGO   ROH17147  11.040   8.193   6.838  0.4280  0.1485 -0.0085
 1345ERGO    R117148  11.138   8.304   7.079  0.2707  0.0280  0.1135
 1345ERGO    R217149  10.988   8.477   7.234  0.1689 -0.0510  0.1031
 1345ERGO    R317150  11.044   8.298   7.430  0.0405 -0.1491  0.0518
 1345ERGO    R417151  10.964   8.541   7.573  0.2783 -0.1059  0.1218
 1345ERGO    R517152  11.148   8.428   7.602  0.1852 -0.2789  0.0668
 1345ERGO    C117153  11.002   8.409   7.954  0.2214 -0.2300  0.0846
 1345ERGO    C217154  10.729   8.399   8.181 -0.0581  0.0150  0.3508
 1346W        W17155   6.530  15.981  16.386  0.0957 -0.1284  0.3495
 1347W        W17156   0.845  17.720  12.281 -0.0536 -0.3337  0.4000
 1348W        W17157  13.293  10.647   0.284 -0.2963 -0.0069 -0.3060
 1349W        W17158  15.202   3.648  14.224 -0.0514 -0.0541 -0.2474
 1350W        W17159  12.430  11.739   0.636 -0.0075  0.0363 -0.2881
 1351W        W17160  10.955  12.090   5.498  0.0620 -0.1366  0.0506
 1352W        W17161   1.516  16.483  13.297 -0.2886 -0.0421  0.1646
 1353W        W17162   1.966   5.022  16.348  0.0511 -0.1048  0.4005
 1354W        W17163   1.996  13.492   4.415 -0.2111  0.0274  0.1767
 1355W        W17164   1.406   6.863   0.655 -0.4056 -0.2430 -0.3506
 1356W        W17165  16.304   0.805   1.593 -0.0630  0.1338  0.3544
 1357W        W17166   9.123  11.430   3.630 -0.2295 -0.0014 -0.1591
 1358W        W17167   1.841   1.550  16.291 -0.0474  0.0898 -0.0427
 1359W        W17168   8.044   3.845   2.549 -0.0038 -0.1226 -0.0843
 1360W        W17169   8.683  11.897   2.610  0.0356  0.0482  0.0861
 1361W        W17170  15.588   2.228  13.102 -0.2622 -0.0035 -0.0879
 1362W        W17171   6.207  11.381  15.630 -0.0585 -0.0426  0.2359
 1363W        W17172   5.009   0.172  16.266  0.0285  0.0296 -0.1242
 1364W        W17173   9.808  11.679   4.769 -0.3007 -0.0564 -0.1857
 1365W        W17174   1.892   6.088  12.992 -0.1851 -0.0242 -0.2831
 1366W        W17175  14.680  13.098   4.674 -0.1573 -0.4147 -0.0792
 1367W        W17176  12.727  11.292   0.637  0.0337  0.0513  0.0322
 1368W        W17177  10.939  14.404  16.426  0.2054 -0.0762 -0.0583
 1369W        W17178  11.132   7.671   4.978  0.1263  0.1873 -0.0838
 1370W        W17179  14.938   7.968  12.472  0.0457  0.1821 -0.1296
 1371W        W17180   0.015   9.319  15.463  0.2475 -0.0959 -0.0742
 1372W        W17181  10.099   4.036  12.946 -0.0268 -0.1330  0.0934
 1373W        W17182  15.788   4.694  14.218 -0.2734  0.1241 -0.3676
 1374W        W17183  17.694   4.960  14.084 -0.1813 -0.1132 -0.2170
 1375W        W17184  15.283  13.685   5.938 -0.0800  0.0450  0.1502
 1376W        W17185   5.739   1.468  11.459  0.0936  0.1184 -0.0828
 1377W        W17186   0.844   2.271   4.903  0.0062 -0.1222 -0.0048
 1378W        W17187   7.272  10.269  16.385 -0.0316  0.1233 -0.1679
 1379W        W17188  10.435  12.932  15.520  0.2615 -0.0071  0.1093
 1380W        W17189   9.200   9.409  14.420 -0.0315  0.0914  0.2206
 1381W        W17190  17.313  17.170   1.698  0.0936 -0.0797 -0.0007
 1382W        W17191  16.725  10.691   1.895 -0.1208  0.0058 -0.0474
 1383W        W17192   1.965   4.352  12.840 -0.0868  0.1495  0.1215
 1384W        W17193   7.231   9.423   0.207 -0.2605  0.0693  0.0327
 1385W        W17194  14.740  13.917  14.364  0.3741  0.1006 -0.2368
 1386W        W17195   1.463   1.722   4.727 -0.1106  0.4555 -0.3253
 1387W        W17196  15.582   2.333  14.320  0.0913  0.0299  0.3146
 1388W        W17197   7.738   0.086  11.851  0.0602  0.1045 -0.0075
 1389W        W17198   9.469   7.984  12.213 -0.2225  0.1044  0.3100
 1390W        W17199   9.897  17.823  12.270 -0.0953  0.2076  0.2041
 1391W        W17200   6.295  17.443   4.901  0.3804  0.1204 -0.2848
 1392W        W17201   8.097  17.772   3.298 -0.1194  0.1335  0.1417
 1393W        W17202   5.872  16.191   5.501  0.2404  0.1123  0.0368
 1394W        W17203  11.193  12.202  16.524 -0.2880  0.1595  0.1364
 1395W        W17204   2.426   3.681   0.736  0.1052 -0.2020  0.2552
 1396W        W17205  17.593  15.656   3.630  0.1218 -0.2604 -0.0246
 1397W        W17206   1.881   5.933  14.865 -0.0584 -0.0225 -0.2046
 1398W        W17207   3.715  14.580   5.116  0.1594  0.1073  0.2125
 1399W        W17208  13.971   9.014   4.541 -0.0931  0.0758 -0.1130
 1400W        W17209  12.685   7.586   0.602 -0.0461  0.0235 -0.1373
 1401W        W17210   8.319  15.112   5.249 -0.1375  0.0490  0.0146
 1402W        W17211  11.547  11.837   3.003 -0.0236  0.2429 -0.4057
 1403W        W17212   8.699  14.657   1.576  0.2306 -0.1809  0.0941
 1404W        W17213  14.196  13.332   4.829 -0.2488 -0.0181 -0.1394
 1405W        W17214   3.268  17.597   1.052 -0.3560 -0.2447 -0.1299
 1406W        W17215  16.695   5.912   1.140 -0.0356 -0.0124 -0.0161
 1407W        W17216  15.314   9.922   5.875 -0.0521  0.2402  0.0734
 1408W        W17217  11.524   5.158  15.159 -0.3620  0.0848 -0.2905
 1409W        W17218  11.957  15.455   4.901 -0.1854  0.0624 -0.0203
 1410W        W17219   7.090   0.409  16.194 -0.0985  0.1306 -0.3901
 1411W        W17220   0.625  10.885   1.064 -0.1464 -0.2723 -0.0135
 1412W        W17221   9.757   9.346   1.722  0.0972  0.0781  0.2125
 1413W        W17222  15.822   8.744   0.160  0.0702  0.2132  0.0684
 1414W        W17223  11.347   7.562  14.980  0.3162  0.2345 -0.1810
 1415W        W17224   5.283  11.219  10.837  0.0449 -0.0259 -0.0526
 1416W        W17225   5.842   6.472   6.050  0.0111 -0.1463  0.0901
 1417W        W17226   5.630  14.255   5.092  0.1048 -0.0933  0.0920
 1418W        W17227  10.601   0.146  14.763 -0.2469  0.0479  0.1200
 1419W        W17228   0.218   9.165   2.239  0.1919 -0.0430  0.0801
 1420W        W17229   6.552  17.839   0.630  0.0989 -0.0068  0.1527
 1421W        W17230  15.447   3.062   4.874  0.0214 -0.1679  0.0847
 1422W        W17231  13.883  16.797  16.107 -0.1419  0.1298  0.1887
 1423W        W17232  16.333  10.510   0.226  0.0172 -0.2551  0.1947
 1424W        W17233   0.568  16.647  16.057  0.0228  0.1923 -0.1437
 1425W        W17234  13.678  16.311  12.561 -0.1910 -0.3030 -0.0053
 1426W        W17235  15.676   7.098   2.670  0.0639  0.0051 -0.0674
 1427W        W17236   8.668   8.660   4.627  0.1509 -0.2832  0.3291
 1428W        W17237   5.185  13.917  14.421  0.3356 -0.0298  0.3318
 1429W        W17238  12.533  13.128  12.740 -0.0626  0.0155 -0.1900
 1430W        W17239   9.218   5.866  14.834  0.0009 -0.0998 -0.1914
 1431W        W17240  17.595   3.852  13.949 -0.1596 -0.0117  0.0028
 1432W        W17241   2.737  14.975   1.495 -0.0969 -0.0103 -0.2000
 1433W        W17242   9.520  16.356  13.006  0.3317  0.1760  0.0097
 1434W        W17243  13.893   6.923   5.509 -0.1186  0.1839  0.1574
 1435W        W17244   8.824  11.711  15.936  0.2488  0.2849 -0.2151
 1436W        W17245   2.552   1.848   0.619  0.0162 -0.0726  0.2032
 1437W        W17246   2.229  10.304   3.471  0.0012  0.0864  0.1028
 1438W        W17247  14.828   2.456   2.721 -0.0387 -0.1707  0.3008
 1439W        W17248  16.754   1.905   1.702  0.0814 -0.0192 -0.0062
 1440W        W17249  17.812   8.152   2.249 -0.2137 -0.0315 -0.0243
 1441W        W17250  15.235  17.455  16.334  0.1814  0.0065 -0.0165
 1442W        W17251  10.254  14.171   0.424 -0.2588 -0.4047  0.4660
 1443W        W17252   7.650   3.646  12.683 -0.2804 -0.1774 -0.4145
 1444W        W17253   1.900  14.857  14.717 -0.1063  0.1913  0.0874
 1445W        W17254   5.461   6.393  15.376 -0.0305 -0.2515  0.1521
 1446W        W17255  12.346  11.449   5.357  0.2863 -0.1625 -0.1142
 1447W        W17256   0.539  14.390  14.199 -0.0526  0.4021 -0.1391
 1448W        W17257   4.682  15.950   4.092  0.0807 -0.1585 -0.0532
 1449W        W17258  15.181  11.370   1.161  0.1007 -0.0665 -0.0125
 1450W        W17259   5.276  11.143   3.673  0.0102  0.1836 -0.0059
 1451W        W17260   0.963   5.777   1.156 -0.2614  0.1071 -0.0574
 1452W        W17261  17.768   3.921  12.243 -0.1601 -0.2032  0.1030
 1453W        W17262  12.278   9.600  14.982  0.2246 -0.1649 -0.2026
 1454W        W17263  16.208   7.663  15.378  0.1804 -0.4234  0.0836
 1455W        W17264   6.276   1.536  13.644  0.0743 -0.0978  0.1996
 1456W        W17265   7.475  17.625   4.817 -0.0814  0.1228 -0.1526
 1457W        W17266   5.699   3.944   4.995 -0.0966  0.1700 -0.1077
 1458W        W17267   3.942   4.455   1.774 -0.2453  0.0618  0.2928
 1459W        W17268   3.226  10.892  15.363  0.1645 -0.0194 -0.1071
 1460W        W17269  12.954  17.658   3.348  0.2401 -0.0474  0.3620
 1461W        W17270   7.748   4.137  16.364  0.2180 -0.2121 -0.1767
 1462W        W17271  14.041   8.524  13.263  0.0934  0.1813  0.3601
 1463W        W17272   8.558  10.509  11.862  0.1757 -0.0614 -0.0216
 1464W        W17273  11.795  12.966   5.045  0.3197 -0.2120 -0.1912
 1465W        W17274   7.846  11.282   1.698 -0.2788 -0.2983  0.1804
 1466W        W17275  11.320  17.105   5.706  0.1995 -0.1163 -0.1480
 1467W        W17276   3.979   6.129  14.622 -0.0715 -0.1707  0.0055
 1468W        W17277   4.852  14.665  12.436 -0.1643 -0.0187 -0.0294
 1469W        W17278   1.754  15.640  11.553 -0.0600 -0.0089 -0.6776
 1470W        W17279   6.841   7.479  11.419 -0.0156 -0.0359 -0.3110
 1471W        W17280   0.181   6.587   2.049 -0.0892  0.2733  0.0475
 1472W        W17281   7.175  14.799   5.172 -0.1178  0.2398 -0.2615
 1473W        W17282  15.472   5.006  15.540  0.0217 -0.1121  0.5211
 1474W        W17283  13.338   1.030  16.519  0.3595 -0.1344  0.1978
 1475W        W17284   8.846   9.280  12.820 -0.0785  0.2936  0.1256
 1476W        W17285  14.099  10.077  10.796  0.0173  0.1498  0.0593
 1477W        W17286  16.658  13.831   0.457  0.0749  0.0263 -0.0512
 1478W        W17287   3.127   1.341  12.745  0.1250  0.4044 -0.2449
 1479W        W17288   4.209   1.778  13.475 -0.4306  0.1713 -0.1830
 1480W        W17289   0.415  12.021  13.818 -0.1838 -0.0613  0.0569
 1481W        W17290   7.036  12.853  13.027  0.2559 -0.0016  0.0188
 1482W        W17291   0.499  15.872  11.964 -0.1049  0.0029 -0.2512
 1483W        W17292  16.502   7.965  14.186  0.4974  0.0960  0.0632
 1484W        W17293   2.742   8.577  15.203 -0.1801  0.0359  0.0134
 1485W        W17294   8.480   5.751   3.992 -0.1082  0.0125  0.1403
 1486W        W17295  15.897   7.683  15.771 -0.1351  0.1083 -0.1039
 1487W        W17296  12.494   3.700  15.844  0.3282  0.1054  0.0594
 1488W        W17297   3.834  17.595   5.034 -0.2200 -0.1818  0.1587
 1489W        W17298   1.089   6.832  14.062  0.1998  0.2100  0.0468
 1490W        W17299  17.680   5.090   1.566  0.0009  0.0843 -0.2547
 1491W        W17300  12.106  13.012   6.251  0.0592  0.1849 -0.0684
 1492W        W17301   5.688  14.884   2.279  0.0986 -0.3559  0.0309
 1493W        W17302  13.549  13.569   0.034  0.1892  0.0603 -0.3241
 1494W        W17303   6.099   3.732  13.599  0.0452 -0.0671  0.2409
 1495W        W17304  16.518  10.852   3.020  0.0251  0.1502 -0.0300
 1496W        W17305   5.826   1.716  13.687 -0.0655  0.1061  0.2360
 1497W        W17306   6.225   7.355   5.082  0.2624 -0.0171  0.0326
 1498W        W17307   1.628  13.496  15.119 -0.0284 -0.1625 -0.0292
 1499W        W17308   8.129   5.380   1.481 -0.0677  0.0588  0.2407
 1500W        W17309  10.092   4.921   3.827 -0.0909 -0.0678  0.1834
 1501W        W17310   8.518   3.885  14.007 -0.4138 -0.0036  0.0624
 1502W        W17311  10.779   8.722   2.238  0.0678 -0.2654 -0.0079
 1503W        W17312   8.401   5.707   4.622 -0.0864 -0.0102 -0.4143
 1504W        W17313   3.191   2.076   1.292  0.3258  0.1109  0.0951
 1505W        W17314   3.015   2.791  11.952 -0.2362  0.1449  0.1912
 1506W        W17315   0.709   0.820  15.670 -0.2948  0.0016  0.0447
 1507W        W17316   5.857   8.458  11.192  0.0148 -0.0318 -0.0381
 1508W        W17317   6.318   9.251   4.104  0.1482  0.0082 -0.1569
 1509W        W17318  11.563   5.444  16.490 -0.0197 -0.0889  0.0226
 1510W        W17319   1.479  17.437  15.957  0.0198 -0.0149 -0.0721
 1511W        W17320  10.710  14.869   4.452  0.0278  0.0726 -0.0223
 1512W        W17321   4.352   2.366   4.770  0.0702 -0.1277  0.0104
 1513W        W17322  12.460  12.661  12.828 -0.1184 -0.2645 -0.0999
 1514W        W17323   2.499   8.831   2.437  0.0471 -0.0851 -0.0789
 1515W        W17324  11.543  14.145  15.953  0.0973 -0.1046 -0.0360
 1516W        W17325  14.168  15.451  14.559  0.2859  0.0573 -0.0936
 1517W        W17326   1.371   4.435  14.575  0.0192  0.0778  0.0526
 1518W        W17327  12.576   9.327   4.424 -0.1700 -0.1546  0.0373
 1519W        W17328  10.623   7.800  13.251 -0.2292 -0.3613 -0.0654
 1520W        W17329   6.330   9.124  13.581 -0.1621  0.0275 -0.2002
 1521W        W17330  16.935  11.906  12.533  0.0555 -0.5312 -0.0205
 1522W        W17331  12.441   8.317  16.407  0.0179 -0.0624  0.1288
 1523W        W17332  16.855  14.797   1.856  0.2121  0.0332  0.2376
 1524W        W17333   1.909  15.733   3.661  0.0633 -0.2947  0.3210
 1525W        W17334  10.492  12.028  11.613  0.3289  0.2197  0.3143
 1526W        W17335   8.597  10.675   0.630 -0.1406 -0.2745 -0.1201
 1527W        W17336  11.318  12.255   4.808 -0.0763  0.0952 -0.0295
 1528W        W17337  16.421   8.173   0.260 -0.2081 -0.1194 -0.1335
 1529W        W17338   6.666   5.628  10.499  0.2522 -0.0117  0.0360
 1530W        W17339  11.511   6.913   2.956  0.2030 -0.0995 -0.1806
 1531W        W17340   3.311   4.683  14.735  0.0610 -0.0175  0.1375
 1532W        W17341   5.181   5.408   0.945  0.2575 -0.1919  0.1670
 1533W        W17342  14.650   6.810  16.028 -0.2212 -0.3417 -0.0833
 1534W        W17343   1.180  11.623  16.331  0.1628 -0.1177 -0.0450
 1535W        W17344  16.930  13.886  15.047 -0.2140  0.0973  0.1192
 1536W        W17345   5.859   1.708   1.336 -0.1311 -0.1938 -0.1785
 1537W        W17346   5.727   9.496   4.743 -0.2506 -0.0965 -0.1127
 1538W        W17347   2.109   3.860   1.948 -0.0643  0.0630  0.0009
 1539W        W17348   0.103  14.210   5.067  0.1683 -0.2575  0.2168
 1540W        W17349   9.629  10.284   0.834 -0.0809 -0.1325  0.1334
 1541W        W17350  12.093  17.001  11.295 -0.0413  0.0427  0.1519
 1542W        W17351   8.170  17.719  16.242  0.0875  0.1876  0.2605
 1543W        W17352   6.573   9.912  14.838  0.2917 -0.0507 -0.1153
 1544W        W17353  10.688   5.107  13.146 -0.0780  0.2235  0.3103
 1545W        W17354  14.253   8.034  11.735 -0.2808 -0.5752  0.4372
 1546W        W17355   3.451   7.337   3.586 -0.2276  0.2699 -0.0078
 1547W        W17356   6.177   7.218   2.563 -0.2603 -0.1530  0.4726
 1548W        W17357  12.277   2.013  13.976  0.3323 -0.0100  0.2544
 1549W        W17358   8.743   9.368  13.959 -0.1060 -0.1897 -0.0131
 1550W        W17359  15.715   4.027   4.713  0.0436  0.0893  0.0427
 1551W        W17360  12.235  13.547  12.655  0.1099 -0.2544  0.0617
 1552W        W17361   7.153  15.378   0.286  0.2095 -0.0944 -0.1872
 1553W        W17362  14.012   5.243  13.741 -0.2839 -0.1819  0.3059
 1554W        W17363   5.719   9.416  12.083 -0.1386  0.0556  0.1918
 1555W        W17364   6.891  13.928   1.596  0.1407 -0.0292  0.1076
 1556W        W17365   9.724   3.062   4.937 -0.2887 -0.0627 -0.0185
 1557W        W17366   9.964   6.469   0.762 -0.0977  0.1893  0.1379
 1558W        W17367   0.627  10.324   2.300 -0.1211  0.1265 -0.0232
 1559W        W17368   7.754   9.570   0.004 -0.1805 -0.1789 -0.0239
 1560W        W17369  13.359   1.439   1.358 -0.1136  0.3331  0.1418
 1561W        W17370   1.347   1.267  11.448  0.2598 -0.0801  0.0243
 1562W        W17371  10.900   4.323   0.743  0.0887 -0.2040  0.3004
 1563W        W17372  12.445  17.544  16.209  0.2363  0.2084  0.3508
 1564W        W17373  13.184  15.379  12.717 -0.0797  0.2475 -0.0426
 1565W        W17374   9.267  13.646  13.173 -0.3127  0.1871  0.1465
 1566W        W17375  12.815  13.743   2.649 -0.1224 -0.2981 -0.1799
 1567W        W17376   8.388  13.587   2.232 -0.0710 -0.1455  0.2523
 1568W        W17377   6.310   3.032  12.199 -0.0987 -0.0558 -0.0440
 1569W        W17378  16.963   2.233  12.961 -0.1244  0.0738 -0.2583
 1570W        W17379  12.316   6.325   2.751 -0.3461 -0.0282  0.1230
 1571W        W17380  15.690   6.907   3.087  0.0785 -0.2272 -0.0638
 1572W        W17381  14.576   4.219  16.398  0.3178 -0.0083 -0.0080
 1573W        W17382   2.220   3.289   5.060  0.2050 -0.1621  0.1684
 1574W        W17383   2.287   7.218  15.439 -0.1076 -0.1995  0.0509
 1575W        W17384   6.395  17.686   4.066  0.1219 -0.1855  0.0244
 1576W        W17385  14.402   6.907   4.104 -0.2966 -0.0138 -0.0465
 1577W        W17386  15.204  10.045  15.234 -0.4185 -0.1968 -0.0701
 1578W        W17387   8.828   4.484  14.761 -0.4088 -0.2144 -0.2060
 1579W        W17388   7.809   0.310   4.022 -0.0540  0.0927  0.1985
 1580W        W17389  13.822   2.880  11.494 -0.2121 -0.0190 -0.2320
 1581W        W17390   7.724   3.165   1.226 -0.0432 -0.0280  0.0997
 1582W        W17391  10.364   4.308  15.748  0.2866 -0.0561  0.0585
 1583W        W17392   8.697   2.244  14.922 -0.0604  0.0984 -0.1908
 1584W        W17393   9.438   8.877   4.121 -0.0413  0.0330 -0.0352
 1585W        W17394  16.296   0.170   3.600 -0.2664 -0.1555  0.0371
 1586W        W17395  12.608   0.002   4.196 -0.0094  0.0116  0.0333
 1587W        W17396   7.980   0.790   1.852  0.0736  0.1926  0.1156
 1588W        W17397   2.088   3.703  15.783  0.3685 -0.1867 -0.0480
 1589W        W17398   8.835  13.607   3.092  0.2642 -0.1863 -0.0535
 1590W        W17399  15.613  11.483  13.112 -0.1072 -0.0050  0.2157
 1591W        W17400  17.123  17.341  14.341 -0.0324  0.0053  0.1910
 1592W        W17401  13.208   4.058   3.871 -0.1665 -0.0270  0.0867
 1593W        W17402   3.421  10.761  12.801 -0.1500 -0.0226  0.2566
 1594W        W17403   6.334   6.082  15.678 -0.0706 -0.1224 -0.0679
 1595W        W17404   0.591  12.243  10.959 -0.1010 -0.2586  0.2010
 1596W        W17405   0.752  10.884  11.380  0.1329  0.2667  0.0776
 1597W        W17406   3.550  15.366   4.202 -0.0181  0.0503  0.1707
 1598W        W17407   4.659   7.607  11.995  0.1157  0.2535 -0.0429
 1599W        W17408   8.320   9.516   0.279 -0.1654  0.0055 -0.0566
 1600W        W17409  11.917   0.219  11.924  0.0066 -0.0250  0.2424
 1601W        W17410  11.695   2.666  13.960  0.1275 -0.2530 -0.2450
 1602W        W17411   0.664  13.870   0.262 -0.2655 -0.1211 -0.4932
 1603W        W17412   0.569   7.394  11.937 -0.1116 -0.1260 -0.0611
 1604W        W17413   6.426  16.404   3.997 -0.0095  0.2148  0.0682
 1605W        W17414  12.040  16.638   5.342 -0.0511 -0.2453 -0.2199
 1606W        W17415   3.071   9.319   2.523  0.2198  0.1049 -0.0841
 1607W        W17416  14.548   6.809   0.142  0.0101  0.1824  0.1147
 1608W        W17417   9.383  11.939   0.034  0.1541 -0.3018  0.0011
 1609W        W17418   6.907   9.414   2.787  0.1227  0.0397  0.0020
 1610W        W17419   2.427   9.597  16.428  0.1323  0.1746  0.0221
 1611W        W17420   7.072   9.058  13.240  0.0499  0.3129  0.1152
 1612W        W17421   2.700  14.077  14.624  0.0014 -0.1084 -0.1739
 1613W        W17422  17.683   2.611   3.997  0.1309  0.0253  0.1363
 1614W        W17423  12.789   8.125  13.507 -0.0107 -0.4670  0.1369
 1615W        W17424   9.225  15.781   4.034  0.2349  0.1503 -0.0479
 1616W        W17425  15.980   6.141   1.629  0.2107 -0.0272 -0.0665
 1617W        W17426  11.906  17.344   1.875 -0.0164  0.1696  0.2791
 1618W        W17427  14.159   8.534   3.198 -0.1169 -0.1030  0.1287
 1619W        W17428   9.197   7.991   4.273  0.1622 -0.1279  0.0065
 1620W        W17429   7.404   4.741   0.787  0.0602 -0.1646  0.1374
 1621W        W17430   8.596  16.575   2.509 -0.0161 -0.0123 -0.2630
 1622W        W17431   8.561  17.452   0.179 -0.1114  0.1205  0.2681
 1623W        W17432   8.924  17.951   3.898  0.3120  0.0460  0.2622
 1624W        W17433   7.372  16.756  13.252 -0.0992 -0.1041 -0.3176
 1625W        W17434  14.455  13.285  14.452 -0.1275  0.2021 -0.1656
 1626W        W17435   2.946   5.859   1.956  0.1862 -0.0580  0.1165
 1627W        W17436   2.947  11.165   2.468 -0.1051 -0.0658 -0.0616
 1628W        W17437  17.523   1.792   0.203 -0.2641 -0.0756 -0.0388
 1629W        W17438  17.876   4.265  12.555  0.0070 -0.0260 -0.0076
 1630W        W17439  17.721  15.821  12.761  0.4477  0.2057 -0.2927
 1631W        W17440   6.314  17.569   3.136 -0.1950 -0.0727  0.6680
 1632W        W17441   0.695   3.945  13.184 -0.0744 -0.2592  0.1115
 1633W        W17442   4.718  12.111  12.214 -0.2225  0.1836 -0.0255
 1634W        W17443   5.549  10.211  13.078  0.0671 -0.0447  0.0059
 1635W        W17444   7.440  13.806   1.825  0.0877 -0.1037 -0.1361
 1636W        W17445   2.326   1.884   4.047  0.2280  0.1087 -0.0299
 1637W        W17446  13.904   1.229  14.776 -0.1034 -0.3740  0.0880
 1638W        W17447   5.681   4.098   2.682 -0.4199 -0.3401 -0.0130
 1639W        W17448  13.668  16.386   2.594 -0.3551  0.3294 -0.1646
 1640W        W17449  15.885  13.184   2.775  0.0950  0.0209  0.0455
 1641W        W17450  10.376   8.236  13.075 -0.1520  0.0444  0.1288
 1642W        W17451  16.783   9.454  13.089  0.1771  0.2210  0.0498
 1643W        W17452   2.092  14.778  12.018 -0.2352 -0.2030  0.0350
 1644W        W17453  17.465  15.884   1.189 -0.0753  0.1890  0.0361
 1645W        W17454  13.367  10.954  14.171  0.0901 -0.0598 -0.1897
 1646W        W17455  16.693   7.313  13.454 -0.4022  0.0246  0.0942
 1647W        W17456  12.959   5.059   0.509  0.0205 -0.0160 -0.0940
 1648W        W17457   7.101   1.683   1.807 -0.0502 -0.1148  0.0245
 1649W        W17458   5.929   5.398  13.971 -0.0580 -0.0272 -0.3311
 1650W        W17459  15.058  16.804   1.937 -0.0799 -0.0713 -0.0423
 1651W        W17460   5.109   1.038  11.606 -0.1225 -0.1555 -0.2843
 1652W        W17461  16.408  16.673  16.468 -0.0392 -0.1347  0.1246
 1653W        W17462  15.279  12.705  16.183  0.2998  0.0695  0.0123
 1654W        W17463   0.865  10.014   3.343 -0.1598  0.1692 -0.0408
 1655W        W17464  13.996  16.884   0.397 -0.1547 -0.0730  0.2622
 1656W        W17465  16.393   0.124   4.115 -0.2348 -0.1166 -0.2784
 1657W        W17466  11.315  15.043  15.184  0.0966  0.0099 -0.1316
 1658W        W17467   4.216  16.854  12.466  0.1067 -0.0146  0.0142
 1659W        W17468   9.336   4.106   3.559  0.2129 -0.0558 -0.2317
 1660W        W17469   5.310   5.268  10.297 -0.0235  0.0584  0.2718
 1661W        W17470   5.426  16.623   2.116 -0.0359  0.1977  0.1558
 1662W        W17471   6.899   8.153   2.741 -0.0375 -0.0185  0.0209
 1663W        W17472   3.758  16.504   1.392 -0.0975 -0.2647 -0.1291
 1664W        W17473   0.382   1.310   5.049  0.3344  0.0028 -0.2397
 1665W        W17474  10.927   9.624  11.688  0.0138  0.2671  0.0713
 1666W        W17475   3.673   4.868   2.116  0.0999  0.0261  0.1490
 1667W        W17476   0.604   1.851  15.925  0.0568  0.0871 -0.1058
 1668W        W17477  16.554   8.364  11.624 -0.0788 -0.0126  0.3474
 1669W        W17478   5.293   9.805   4.658 -0.0599 -0.2552  0.0967
 1670W        W17479   2.849  15.003  14.596  0.0357 -0.0204 -0.0869
 1671W        W17480  10.168  13.857  15.593  0.2094  0.0644 -0.0812
 1672W        W17481  17.812  13.557   1.525  0.2621  0.0848  0.2062
 1673W        W17482  16.266  11.699  14.738 -0.0802  0.1517  0.3210
 1674W        W17483   6.556  11.738  15.393  0.0500 -0.0940  0.0926
 1675W        W17484   7.720   7.067  11.943  0.1736  0.1428  0.1110
 1676W        W17485   6.706  10.340   0.255 -0.0925 -0.0632  0.1717
 1677W        W17486   1.124   8.552  15.997  0.0047  0.1141 -0.1838
 1678W        W17487   0.989   5.546   4.515 -0.3927 -0.2841  0.0520
 1679W        W17488  13.194   7.915   2.223 -0.2647  0.0659  0.0473
 1680W        W17489  15.952  15.407   0.055  0.1909 -0.2550 -0.3619
 1681W        W17490   6.102  11.671  12.806  0.0711 -0.1231 -0.0154
 1682W        W17491  11.420   7.780   2.108 -0.3329 -0.0089 -0.3289
 1683W        W17492  13.841  12.579   1.150  0.3017 -0.1665 -0.2182
 1684W        W17493   6.351  15.284  13.248 -0.0249  0.2513  0.0751
 1685W        W17494   9.084  14.136   3.653 -0.4474 -0.2115  0.1002
 1686W        W17495   5.186   8.578  14.091 -0.1008 -0.0464 -0.0137
 1687W        W17496   1.207  13.739  14.279  0.0058 -0.0238  0.1445
 1688W        W17497  17.466  14.710   2.401  0.2710  0.1862  0.0597
 1689W        W17498   0.708  16.250  12.977 -0.2176 -0.1069 -0.0784
 1690W        W17499   1.335  14.276   1.619  0.3916  0.0139  0.0582
 1691W        W17500   5.930   8.745  16.323  0.0439 -0.0145  0.0954
 1692W        W17501  14.584  13.707   2.594  0.2215 -0.1175 -0.0633
 1693W        W17502   4.916  11.771  14.671  0.2484 -0.1757 -0.1905
 1694W        W17503   0.499  15.698   4.665  0.0491 -0.0527  0.2711
 1695W        W17504   0.362   7.656   4.007  0.4675  0.0660  0.1657
 1696W        W17505   5.194   5.058  15.870  0.3280 -0.0599  0.2253
 1697W        W17506   6.858   5.566   0.414 -0.3368 -0.1366 -0.0549
 1698W        W17507   7.431   5.508   4.610  0.0566 -0.0153  0.0703
 1699W        W17508  16.767   5.634   3.884  0.1146 -0.0819 -0.1682
 1700W        W17509  17.432  10.556   3.611  0.0641 -0.0933 -0.2648
 1701W        W17510   6.662   5.262  12.796 -0.0112 -0.1423 -0.0338
 1702W        W17511  12.791  11.724   1.475  0.1628  0.0366 -0.1380
 1703W        W17512  14.325   1.628   3.308  0.0440 -0.1781 -0.0005
 1704W        W17513   4.403  16.395   3.767  0.1286  0.2303  0.2996
 1705W        W17514   5.664  14.822  14.571 -0.2368  0.0117  0.1079
 1706W        W17515   2.359   6.808   4.941 -0.1824 -0.1842  0.0267
 1707W        W17516   9.520  13.888  13.633  0.0738  0.0970 -0.0191
 1708W        W17517   0.816  17.014  15.743 -0.0532 -0.2294 -0.0018
 1709W        W17518  15.080   0.377  12.642 -0.0553 -0.1382  0.3201
 1710W        W17519  15.018  12.192  11.302 -0.5927 -0.1190  0.1501
 1711W        W17520  10.557  16.265  16.038 -0.3441  0.0041  0.0421
 1712W        W17521  14.798   0.322  13.689 -0.3309  0.1238 -0.0883
 1713W        W17522  17.909   5.864  14.242 -0.3573  0.0572  0.1132
 1714W        W17523  17.655   8.717   3.429 -0.1162 -0.2801 -0.1722
 1715W        W17524  12.827  11.301   5.438 -0.0611 -0.0998  0.0601
 1716W        W17525   2.437   7.884   0.644 -0.2933  0.1517 -0.2453
 1717W        W17526   3.711   9.300   5.379 -0.1888  0.1658 -0.3054
 1718W        W17527  11.867   2.388  12.128 -0.0491  0.0416 -0.2912
 1719W        W17528   0.908   5.118  13.658 -0.1334 -0.1078  0.2705
 1720W        W17529   1.965   9.220  16.433 -0.1102  0.0406  0.0889
 1721W        W17530   3.943   8.578   0.332  0.2413  0.1530 -0.3832
 1722W        W17531   9.896   8.989  14.763  0.0315  0.1479  0.0812
 1723W        W17532   8.337  15.942   4.236  0.0605  0.0756 -0.0042
 1724W        W17533   8.962  14.300   1.954 -0.1560  0.2314  0.1791
 1725W        W17534   1.699  14.559  12.340  0.1133 -0.1136  0.5229
 1726W        W17535   1.680  17.259  13.405 -0.1569 -0.0224 -0.1816
 1727W        W17536   1.197   6.766  16.565 -0.0841  0.1284 -0.0359
 1728W        W17537   2.178  13.665   1.484 -0.2814 -0.0315 -0.0889
 1729W        W17538  13.307  10.139  15.255  0.0645 -0.0347  0.2119
 1730W        W17539   9.891  14.930  16.646 -0.3838  0.1217  0.0349
 1731W        W17540  17.830  16.053   3.842 -0.1343 -0.0698  0.0473
 1732W        W17541   0.237  10.468   0.966 -0.2074 -0.1372 -0.3901
 1733W        W17542  13.630  13.553  14.469  0.1585  0.1830 -0.1410
 1734W        W17543  16.009  13.642  11.466  0.0854 -0.3031  0.0897
 1735W        W17544  11.909   3.467  14.451 -0.2340 -0.0451 -0.1551
 1736W        W17545   8.008  16.596  15.716  0.0619 -0.0850 -0.2900
 1737W        W17546  13.002   7.071   4.414 -0.1123  0.0511 -0.0798
 1738W        W17547  16.533   3.003  13.813 -0.0432  0.1844 -0.1531
 1739W        W17548  11.829  12.418   4.862 -0.1852 -0.2292 -0.1860
 1740W        W17549  10.787   8.243   3.394 -0.1812  0.0278 -0.1564
 1741W        W17550   8.641  16.999  14.268 -0.2205 -0.1484 -0.1609
 1742W        W17551   8.180   2.565  16.662  0.0041 -0.0705 -0.1587
 1743W        W17552  11.478  11.608  11.836 -0.0280 -0.2012  0.3088
 1744W        W17553  14.505   6.217  12.146 -0.1475 -0.0472 -0.2375
 1745W        W17554   3.011   6.520  15.591 -0.0349 -0.0391  0.1196
 1746W        W17555   5.686   0.817   6.034 -0.0006 -0.4658 -0.1168
 1747W        W17556  10.801   1.824  12.925 -0.0182 -0.0813  0.0091
 1748W        W17557   7.788   9.532  12.983 -0.0358 -0.0252 -0.0858
 1749W        W17558   0.442   2.885   3.598 -0.3510  0.0119 -0.1680
 1750W        W17559   0.718  12.073  15.828  0.0888  0.2725 -0.1605
 1751W        W17560   3.020   1.007   3.324  0.2291  0.1320  0.0107
 1752W        W17561   0.168   7.146   2.678  0.1559 -0.1613  0.2763
 1753W        W17562   4.253  15.034   3.779 -0.1591  0.2322 -0.1126
 1754W        W17563  16.469  14.527   1.759  0.0016 -0.1964 -0.0326
 1755W        W17564   3.191  11.572   0.527  0.1084  0.0354  0.0488
 1756W        W17565   6.967   2.978  13.993 -0.0596  0.2480 -0.1230
 1757W        W17566   9.278  11.529  15.163 -0.1823 -0.0854 -0.0641
 1758W        W17567   5.220  16.011  16.138  0.0370  0.2148  0.2389
 1759W        W17568  13.503  17.805  11.398  0.3264 -0.2553  0.1149
 1760W        W17569   4.584  14.073   1.388 -0.3134 -0.1584 -0.0711
 1761W        W17570   7.078  13.894   4.500 -0.0123 -0.2101 -0.2038
 1762W        W17571   6.818   8.067  15.088  0.0580  0.1230 -0.2589
 1763W        W17572  12.813  13.796   5.404 -0.4229 -0.2310 -0.2250
 1764W        W17573  13.203   2.383  13.362  0.3188  0.2761  0.0651
 1765W        W17574  16.514   5.355   5.968  0.0043 -0.0959 -0.0102
 1766W        W17575   0.811   8.563  14.630  0.3522  0.1794 -0.1491
 1767W        W17576  17.200  13.395  15.804  0.1549 -0.2085 -0.0867
 1768W        W17577   2.231   6.423  12.617  0.1567  0.2294  0.2871
 1769W        W17578   5.345  13.421   3.145 -0.0368  0.0411  0.3030
 1770W        W17579  11.209   7.200   3.555 -0.3818  0.1865  0.0881
 1771W        W17580   2.419  10.525  11.752 -0.1231 -0.2310  0.4029
 1772W        W17581   8.159  12.350   1.480  0.0585  0.1567  0.1050
 1773W        W17582  10.616  16.840  12.128 -0.0847 -0.1631  0.0399
 1774W        W17583   8.450   3.112   1.598 -0.0437  0.2930 -0.2383
 1775W        W17584   6.323  15.504  15.546 -0.2009  0.1062 -0.0508
 1776W        W17585  11.640   1.377   1.064 -0.1363  0.0890  0.0891
 1777W        W17586   4.884   3.929  15.430 -0.1651 -0.2326 -0.0137
 1778W        W17587  12.343   0.056   0.699  0.2074 -0.1889  0.2256
 1779W        W17588  11.482   6.473  15.313  0.0145  0.1582 -0.0436
 1780W        W17589  14.279   6.145   2.350 -0.0777  0.0297  0.1690
 1781W        W17590   7.807  16.402  13.116  0.5196 -0.0445 -0.1130
 1782W        W17591   8.776  10.232   4.484 -0.0147  0.1678  0.2047
 1783W        W17592  12.643  12.098  11.365  0.4280  0.2885  0.0897
 1784W        W17593   5.407   8.031  16.203  0.3077 -0.1354 -0.2330
 1785W        W17594  16.536  12.468  13.653  0.0286  0.1871  0.1429
 1786W        W17595  12.379  11.359  14.891  0.2097 -0.2791 -0.0792
 1787W        W17596   2.119  16.775  14.405 -0.1689 -0.0743 -0.3316
 1788W        W17597   0.993  17.410  12.675  0.1903 -0.1635 -0.2303
 1789W        W17598  17.897   1.189   4.901  0.0967 -0.0828 -0.4382
 1790W        W17599   8.371   5.824  15.882 -0.0645 -0.1812  0.0536
 1791W        W17600   1.695   0.432   5.201  0.0939  0.1239  0.1712
 1792W        W17601   5.439   2.295  11.781  0.2708 -0.1588 -0.3077
 1793W        W17602  10.183   7.784  14.169  0.3726 -0.0380 -0.1161
 1794W        W17603   0.119   5.568   1.700 -0.3774  0.0385 -0.0386
 1795W        W17604   6.001   6.594  14.507  0.1283  0.0884 -0.0475
 1796W        W17605   3.212   4.353   2.501 -0.0889  0.1212  0.0196
 1797W        W17606   9.276   1.854   3.994 -0.0373  0.0020  0.0816
 1798W        W17607   4.709  12.489   0.777 -0.1397 -0.0081 -0.1728
 1799W        W17608  14.271  16.469   5.229  0.3435  0.0428  0.0749
 1800W        W17609   2.917  17.735   0.336 -0.0327 -0.1218  0.3997
 1801W        W17610  13.876   7.646  11.804  0.0677  0.1336  0.1476
 1802W        W17611   2.391  17.184  11.749 -0.2027 -0.0080  0.1185
 1803W        W17612  11.161  15.050  15.687 -0.1242  0.0601  0.0795
 1804W        W17613  10.674  16.047  13.970 -0.0591 -0.1465 -0.1072
 1805W        W17614  13.869   7.816   5.646  0.2818  0.1815  0.3190
 1806W        W17615   5.741  17.583   3.135 -0.0354  0.0887 -0.0040
 1807W        W17616  16.722  10.075   0.195  0.1173 -0.1179 -0.1566
 1808W        W17617   0.006   8.484   0.921 -0.0661 -0.2158  0.3235
 1809W        W17618   1.842  12.457   0.699  0.2066  0.0482  0.1697
 1810W        W17619   3.266  14.734  15.566  0.0509  0.1806  0.2106
 1811W        W17620   5.349   0.440  14.483  0.1568  0.1306 -0.2771
 1812W        W17621  16.553  10.536   5.746 -0.0047  0.1082  0.0556
 1813W        W17622   1.230   0.953  14.751  0.3174  0.1689 -0.0371
 1814W        W17623   3.233   6.640  12.894  0.0870  0.2515  0.1020
 1815W        W17624  10.855  13.417   0.181  0.1323  0.1764  0.0474
 1816W        W17625   0.607   2.142  14.543  0.0373  0.1264 -0.0815
 1817W        W17626   5.180  15.676   6.651 -0.1025 -0.1173 -0.1116
 1818W        W17627   9.301  10.938  16.555 -0.1898 -0.1304  0.0011
 1819W        W17628  14.838   8.783   2.063  0.2508 -0.0800  0.2569
 1820W        W17629   0.208   2.022  11.663 -0.4184 -0.2292 -0.0887
 1821W        W17630   5.984   9.245   2.952 -0.1446 -0.1563  0.1646
 1822W        W17631   5.977  13.391   5.194  0.0042 -0.0246  0.0230
 1823W        W17632  17.710   0.564   5.440 -0.2295  0.0067 -0.1217
 1824W        W17633   9.336   0.693   4.924  0.3400  0.2586  0.1112
 1825W        W17634  12.104  16.558   3.478 -0.3816 -0.1582 -0.1033
 1826W        W17635  10.121   5.992   0.800 -0.2063  0.2806 -0.0129
 1827W        W17636   1.717   2.937   4.024  0.2893 -0.0391 -0.2173
 1828W        W17637  11.639  12.348   4.387  0.1184  0.1270  0.1605
 1829W        W17638  11.514  12.627   0.216 -0.2390 -0.0448  0.0021
 1830W        W17639  17.070  14.160  11.838 -0.0194 -0.1687  0.1952
 1831W        W17640   9.241   4.582   3.787  0.1633  0.1558  0.2571
 1832W        W17641  15.156   9.264  13.317 -0.0674 -0.1523  0.1350
 1833W        W17642   7.055  13.616   1.103 -0.0133 -0.0471  0.0409
 1834W        W17643   4.780   4.160  10.336 -0.1587 -0.3655  0.1111
 1835W        W17644  16.849  16.891   3.424  0.3650  0.0351 -0.1044
 1836W        W17645   5.605   1.069  11.691  0.0211 -0.0623  0.1557
 1837W        W17646   9.057  17.287   5.769  0.3578  0.0688  0.0046
 1838W        W17647   7.988   5.788  16.207 -0.1772 -0.0688 -0.1350
 1839W        W17648   0.890   6.555   2.739 -0.1548 -0.0773 -0.0564
 1840W        W17649   5.139   0.023   0.508  0.0230 -0.0904 -0.0833
 1841W        W17650  15.212   9.504   4.030 -0.0148  0.2618  0.0893
 1842W        W17651   3.247  15.675   1.694 -0.0528 -0.2607 -0.1518
 1843W        W17652   2.584  17.680   2.897  0.1371 -0.1856  0.0311
 1844W        W17653  10.875  11.418   0.182  0.0477  0.1127 -0.2107
 1845W        W17654   3.150  12.878  14.197  0.1972 -0.1700  0.0412
 1846W        W17655  15.403   1.184  11.509  0.0008  0.0178  0.2134
 1847W        W17656  11.421   8.062  11.973 -0.0519 -0.3163 -0.0057
 1848W        W17657   5.801   6.633  15.733  0.1439 -0.4029  0.0063
 1849W        W17658   3.767   0.417   0.490  0.1399 -0.0856 -0.0437
 1850W        W17659   8.991   7.660  13.746 -0.1411 -0.2940  0.1443
 1851W        W17660   5.760   1.186   3.955 -0.1244  0.1599 -0.1396
 1852W        W17661   6.164  14.563  13.955 -0.1178 -0.0099  0.3576
 1853W        W17662   2.769  17.618   1.533 -0.2728  0.0361 -0.0482
 1854W        W17663   9.952   6.366  14.559 -0.2016 -0.1600 -0.0739
 1855W        W17664   9.823  17.298  12.395 -0.3065 -0.2237 -0.0524
 1856W        W17665  14.618   3.676   3.832 -0.0291  0.3450 -0.1283
 1857W        W17666   7.287   2.090   5.178 -0.0991 -0.1369  0.1040
 1858W        W17667   8.917   1.451   5.603 -0.1640 -0.4417  0.1728
 1859W        W17668   6.265  13.478   1.025 -0.2167  0.3715  0.1125
 1860W        W17669   4.443   7.349   3.668 -0.0715 -0.0598 -0.0137
 1861W        W17670  14.653   2.256  13.173 -0.0241 -0.0436 -0.1176
 1862W        W17671   2.218   6.174  13.879  0.3544 -0.2007 -0.2388
 1863W        W17672  16.322   1.445  12.064 -0.3074 -0.1126  0.0557
 1864W        W17673   7.302  13.853   4.992 -0.0201 -0.2827 -0.1239
 1865W        W17674  13.258  15.043  15.355  0.1657 -0.0687 -0.2531
 1866W        W17675   3.464  16.186   2.530 -0.0690 -0.2333 -0.1834
 1867W        W17676   0.940   0.938   1.881  0.1735  0.1776  0.0959
 1868W        W17677   6.393   9.522  12.706  0.2152 -0.0884  0.3588
 1869W        W17678   2.313  14.074   3.013 -0.0789  0.0512  0.0110
 1870W        W17679  11.660  13.641   3.210  0.2137  0.0248  0.0403
 1871W        W17680   8.580   9.854   1.511 -0.0181 -0.0329  0.2202
 1872W        W17681  12.521  14.066   4.148  0.0365 -0.0550 -0.0439
 1873W        W17682   4.795   5.587  15.147 -0.0346  0.2554 -0.2054
 1874W        W17683   4.645   3.603   5.501 -0.1885 -0.2754  0.1883
 1875W        W17684   1.534   3.997   4.709 -0.0277 -0.0372 -0.0897
 1876W        W17685   7.212  17.332   4.039 -0.1371 -0.1330  0.1349
 1877W        W17686   3.285  16.243  15.402  0.1166  0.0671 -0.0898
 1878W        W17687  13.198  11.285  14.621 -0.4183  0.1076 -0.0460
 1879W        W17688   0.966  16.004  13.894  0.0828  0.1018  0.1411
 1880W        W17689  17.048  11.700   4.876 -0.0153 -0.2535 -0.0153
 1881W        W17690  14.588   9.095   1.114  0.1602 -0.0127 -0.0999
 1882W        W17691  10.671   1.520   5.773  0.0560  0.2496  0.0226
 1883W        W17692  16.539  12.400  16.494  0.2017 -0.1833 -0.2513
 1884W        W17693   1.225   9.500  14.279 -0.1106  0.0152  0.2983
 1885W        W17694  10.359  14.510   3.413 -0.1768 -0.0140  0.0973
 1886W        W17695   4.125   8.749  10.685  0.1374 -0.3913  0.0466
 1887W        W17696  13.539  12.557   2.529  0.5534  0.0592 -0.0006
 1888W        W17697   0.611  10.348  14.143  0.1921  0.2771 -0.1721
 1889W        W17698   1.619   1.953   2.498  0.1234 -0.1210 -0.1312
 1890W        W17699   3.246   6.654   4.480 -0.0702 -0.0965 -0.1840
 1891W        W17700   0.248   5.376   3.484  0.1662  0.2167 -0.2029
 1892W        W17701   5.870   0.882   1.919 -0.1278  0.1967  0.1312
 1893W        W17702  15.633  17.650  14.714  0.1996  0.1762  0.4378
 1894W        W17703   6.695  11.691  14.398  0.0669 -0.1586 -0.1352
 1895W        W17704   9.967   8.264   4.939  0.0491 -0.0875  0.0378
 1896W        W17705  15.564   0.693   1.010  0.0010  0.2785  0.0401
 1897W        W17706  10.546   5.355  14.822 -0.1183  0.0839 -0.1063
 1898W        W17707  11.339   8.984   3.333  0.1226 -0.5022  0.3984
 1899W        W17708   9.078   6.946   5.458 -0.1389  0.0051  0.1520
 1900W        W17709   6.847  15.570  12.341 -0.3215 -0.5930  0.0241
 1901W        W17710  12.737  11.373  15.282  0.0113  0.2485 -0.2334
 1902W        W17711   6.735  10.257   1.089  0.0012 -0.0520 -0.1760
 1903W        W17712   8.662  15.570   1.405 -0.0671  0.0029  0.1481
 1904W        W17713  16.612   4.609  16.181  0.2125 -0.2119  0.0073
 1905W        W17714   5.705   9.690  10.995  0.3608  0.1823 -0.1177
 1906W        W17715   6.505  10.528  12.148 -0.0919 -0.2523  0.1947
 1907W        W17716   1.655   2.224   3.493  0.0317  0.1002 -0.0183
 1908W        W17717  12.701   8.854   0.335 -0.1513  0.2673  0.0582
 1909W        W17718  12.704  17.710  13.065  0.2099 -0.0312  0.1182
 1910W        W17719  14.308   5.111   0.358 -0.0790  0.0612 -0.0234
 1911W        W17720   8.789   0.919   4.873  0.1350  0.1126  0.1969
 1912W        W17721   2.125  17.063   1.749 -0.2906  0.1690 -0.0231
 1913W        W17722  17.551   6.939   1.387  0.1660 -0.1299  0.1782
 1914W        W17723  16.844  11.440   2.267  0.1211 -0.0862  0.0894
 1915W        W17724   1.073  13.261   2.450 -0.0582 -0.1378  0.0876
 1916W        W17725  15.416  16.796   1.459 -0.2592  0.1790  0.0669
 1917W        W17726   1.053   8.777   0.980 -0.0210  0.0999 -0.0873
 1918W        W17727   4.701  11.100  12.156  0.0528  0.3326 -0.1431
 1919W        W17728   4.990   7.788   2.611  0.1262 -0.1392 -0.2807
 1920W        W17729   9.145  11.383  16.285 -0.0883  0.0649  0.1537
 1921W        W17730  14.459  11.964   1.261  0.0631  0.0750  0.0370
 1922W        W17731  16.227  12.262   1.519 -0.0530  0.3722 -0.0533
 1923W        W17732  16.239   9.269  14.784 -0.1548 -0.3424 -0.1876
 1924W        W17733  11.975  16.264   0.099 -0.3541  0.0770 -0.1324
 1925W        W17734   2.879   1.794  14.878 -0.1094  0.3084  0.2562
 1926W        W17735  11.023   6.389  14.445 -0.1540 -0.0465 -0.1018
 1927W        W17736   0.051   1.193   4.249 -0.0448 -0.1490  0.4838
 1928W        W17737   8.196   6.694   0.147  0.1182 -0.0175 -0.1549
 1929W        W17738   1.357   4.763   4.346 -0.0341  0.3291 -0.0534
 1930W        W17739   3.924  16.294   0.931  0.2046 -0.0567 -0.2239
 1931W        W17740  16.630  10.377  12.967 -0.3322  0.0263 -0.1679
 1932W        W17741   8.275   6.324   3.436 -0.0905  0.4415  0.0891
 1933W        W17742   3.981  10.257   1.191 -0.0866 -0.0599  0.0192
 1934W        W17743   4.837  15.746  13.161  0.1748 -0.1114  0.0492
 1935W        W17744  17.184   3.068   1.112 -0.4631 -0.1828 -0.3341
 1936W        W17745   8.022   0.887  14.521 -0.1905 -0.2112  0.1809
 1937W        W17746   6.474   3.385   1.672  0.1743  0.1476 -0.0884
 1938W        W17747   3.759  12.497   1.250  0.1746  0.1282 -0.5929
 1939W        W17748  15.708   0.080   5.701  0.0121  0.1278 -0.2046
 1940W        W17749  12.219   3.703   4.634  0.0569  0.1051 -0.0716
 1941W        W17750  10.241  17.444   2.029 -0.3312  0.3069  0.0889
 1942W        W17751  10.912   6.075   1.340 -0.4123  0.1959 -0.2028
 1943W        W17752  17.744   8.827  11.713  0.0534 -0.1568 -0.0928
 1944W        W17753   2.458  14.640  10.935  0.1072  0.0233 -0.0129
 1945W        W17754  16.756  11.872  14.602 -0.0184  0.1585 -0.1846
 1946W        W17755   5.728  12.041  12.209 -0.3976 -0.1085  0.1439
 1947W        W17756   1.294   4.195   2.916 -0.1639 -0.0968 -0.5232
 1948W        W17757  11.559   4.841   0.526  0.1732  0.2015 -0.0245
 1949W        W17758  12.755   4.635   2.227 -0.2278  0.0210 -0.1577
 1950W        W17759  14.041   7.337  14.259 -0.2087 -0.0782  0.0061
 1951W        W17760  15.150   4.796  14.925  0.0980 -0.0696 -0.2692
 1952W        W17761   7.712   4.799  15.563 -0.1615 -0.2977 -0.0840
 1953W        W17762   7.242   6.371   1.764 -0.3399 -0.0500  0.1648
 1954W        W17763   7.114   9.372   1.145  0.2167 -0.1580 -0.1088
 1955W        W17764   7.622   7.281   4.060  0.1864  0.1653  0.2625
 1956W        W17765  11.433   8.536  15.714 -0.0309 -0.1546  0.0683
 1957W        W17766   6.979   2.493   4.590  0.2451  0.1573 -0.1853
 1958W        W17767  17.326  16.976  12.558 -0.1335 -0.1426 -0.2709
 1959W        W17768   1.611  12.003   5.184 -0.1120  0.2325 -0.1203
 1960W        W17769   6.589   7.099   0.826 -0.0055  0.0304  0.1942
 1961W        W17770  11.590   2.075   2.705 -0.1649 -0.2988 -0.1542
 1962W        W17771   4.136   5.902   5.787 -0.1262  0.0789  0.0921
 1963W        W17772   7.818  15.499  12.721 -0.2609  0.2320 -0.1393
 1964W        W17773   5.032  12.165   6.156  0.0572  0.1818 -0.2601
 1965W        W17774   5.488  17.889   4.457 -0.1330  0.3044 -0.1142
 1966W        W17775  13.997  17.527   1.091  0.1709 -0.0993 -0.0788
 1967W        W17776   7.295  12.013  16.530  0.3322  0.1887 -0.0879
 1968W        W17777   6.325   3.736   2.862  0.1562  0.0253  0.1749
 1969W        W17778   0.208   8.848   3.298 -0.1538 -0.5439  0.1162
 1970W        W17779   5.723   7.393   2.305 -0.0646  0.0253 -0.1262
 1971W        W17780  11.140  14.653   5.614  0.2860  0.0810 -0.1003
 1972W        W17781  13.751  16.753  12.826 -0.3218 -0.0938 -0.0657
 1973W        W17782  10.502   0.631  12.754  0.3296 -0.0865  0.0278
 1974W        W17783   7.346  13.532   4.625 -0.0866  0.2066 -0.0151
 1975W        W17784   2.258  16.833  13.842 -0.1942  0.0329 -0.0934
 1976W        W17785   9.241  12.496  12.755 -0.4122 -0.2021  0.0774
 1977W        W17786   0.678   4.702  11.033 -0.1554 -0.1980  0.0054
 1978W        W17787   2.066   1.406  10.770 -0.1511  0.2804  0.1058
 1979W        W17788   6.067  11.234  13.356  0.1388  0.2166 -0.0951
 1980W        W17789   8.837   6.053   0.191 -0.0576 -0.1645  0.0325
 1981W        W17790   8.843  10.836   1.626  0.3069 -0.1133  0.0317
 1982W        W17791  14.229  14.829   5.493  0.0017 -0.0429 -0.1829
 1983W        W17792   5.618   6.092  14.618  0.0797  0.0895 -0.1939
 1984W        W17793  12.485   3.737   5.173  0.2353  0.2557  0.1352
 1985W        W17794   2.557   7.801  12.348 -0.1217 -0.1360  0.0178
 1986W        W17795   3.724   7.712   3.831  0.1351  0.2762 -0.0446
 1987W        W17796  11.319  10.439   2.448 -0.2642 -0.1312  0.1797
 1988W        W17797  16.678  10.879  14.561  0.1082 -0.1185 -0.3232
 1989W        W17798   8.275   4.526  14.507 -0.1682 -0.1955  0.2926
 1990W        W17799   3.614  10.397  11.611  0.2275 -0.0553 -0.0176
 1991W        W17800  15.920   3.552   1.761 -0.0476 -0.1991  0.0995
 1992W        W17801  12.380  12.547   3.007 -0.3446 -0.0980  0.0893
 1993W        W17802   7.276  16.636   3.258  0.0593  0.1434  0.0629
 1994W        W17803  16.837   8.691   0.849  0.1214 -0.2438 -0.3148
 1995W        W17804   7.408   4.019  14.815  0.2427 -0.0411  0.0787
 1996W        W17805   7.664   3.160   5.522  0.1159 -0.2193 -0.0996
 1997W        W17806  12.109   2.265  12.563  0.0274 -0.1367  0.0875
 1998W        W17807  15.433   5.977   4.300  0.0271  0.1115  0.2296
 1999W        W17808  11.015  15.787  13.740 -0.2208  0.0327 -0.1040
 2000W        W17809  12.121   4.750  16.091 -0.0186 -0.0393 -0.0904
 2001W        W17810  14.659  12.505   3.841 -0.4021  0.1836  0.2222
 2002W        W17811   8.715  16.640  14.833 -0.1263 -0.2254 -0.0170
 2003W        W17812   9.912  14.575  11.982  0.0472  0.1787  0.1398
 2004W        W17813   4.436   2.908  12.894 -0.0297 -0.1478  0.0937
 2005W        W17814   4.021   8.038  15.771  0.1096  0.2852  0.1560
 2006W        W17815  11.981  13.859   0.728 -0.0020  0.0699  0.0521
 2007W        W17816   2.669   3.031   0.202  0.0749  0.2966  0.1148
 2008W        W17817   5.582   4.683   1.258 -0.0223  0.1367 -0.0778
 2009W        W17818   5.477   0.463  16.308  0.0884 -0.0548 -0.0016
 2010W        W17819  17.891   2.529   0.163 -0.0853  0.0509  0.0303
 2011W        W17820   4.282   4.483  15.874  0.2418  0.1734 -0.1577
 2012W        W17821  16.952  13.205   4.974 -0.2844  0.0985 -0.0404
 2013W        W17822   7.776  10.974   5.216  0.1450 -0.1227  0.1880
 2014W        W17823  13.656  16.684  11.476  0.5645 -0.0123 -0.2307
 2015W        W17824  10.299   2.951   3.167  0.1333  0.0572  0.0750
 2016W        W17825  12.930   7.783   4.363 -0.4062 -0.0928 -0.0696
 2017W        W17826   4.752  14.258   0.921  0.2627  0.1231 -0.1742
 2018W        W17827  12.751   3.593   0.947 -0.1954  0.3730  0.3236
 2019W        W17828   3.767   3.690   0.923  0.4171  0.3780 -0.3174
 2020W        W17829   5.816   0.742   1.452  0.2965  0.0589  0.4654
 2021W        W17830   2.799   8.586   0.887  0.0469  0.1133 -0.0794
 2022W        W17831   0.411   6.039   0.897  0.1659 -0.1377 -0.1141
 2023W        W17832  12.425   5.169   0.107  0.0553 -0.0119  0.0346
 2024W        W17833   5.992   0.138  12.662  0.0981  0.2682  0.1402
 2025W        W17834   1.802   4.913   3.515 -0.3743  0.0314 -0.0372
 2026W        W17835  13.973   3.414  14.462 -0.0513  0.2973 -0.0102
 2027W        W17836   2.363   4.582  15.644 -0.2649  0.0820  0.3721
 2028W        W17837   3.870   9.024  12.766 -0.0905 -0.0793 -0.4044
 2029W        W17838  13.472  11.080   0.686  0.1245 -0.2356 -0.2404
 2030W        W17839  12.381   2.789  11.727 -0.1889 -0.3209  0.2355
 2031W        W17840   0.758  11.080  13.724  0.0302 -0.3988  0.2877
 2032W        W17841   6.809  17.343  12.649 -0.0419 -0.1497 -0.2230
 2033W        W17842  11.787   6.247  16.542  0.3749 -0.4137  0.3757
 2034W        W17843   5.062   3.499  14.417 -0.1905 -0.0337  0.0054
 2035W        W17844   4.608   8.633  14.776  0.0335  0.0332  0.1407
 2036W        W17845   2.816  16.860  13.230  0.1267 -0.0613 -0.1301
 2037W        W17846  15.852   6.500   2.624 -0.1495 -0.0597  0.0472
 2038W        W17847   3.540  17.809   0.494  0.1399 -0.2573 -0.3083
 2039W        W17848  15.251  17.279   1.036  0.1018 -0.2559 -0.1004
 2040W        W17849  13.779  10.186   2.994  0.2420  0.0967 -0.0502
 2041W        W17850   9.215  13.236  13.524  0.0984  0.0064 -0.1201
 2042W        W17851  15.410  13.213   4.159  0.0598 -0.1549  0.0078
 2043W        W17852  12.569  12.307   4.755 -0.0504 -0.1345 -0.1699
 2044W        W17853   4.483  17.477   4.982  0.0737  0.3194  0.1339
 2045W        W17854  11.125   4.867  16.036  0.1315  0.0533  0.0726
 2046W        W17855   7.290  16.226   2.255 -0.1307 -0.2881  0.0802
 2047W        W17856   5.694  11.786  15.629 -0.2024  0.2230 -0.3625
 2048W        W17857   6.095  13.855   3.863 -0.0777  0.1486  0.1094
 2049W        W17858   2.687  17.741   3.429 -0.1095 -0.0940  0.1178
 2050W        W17859   0.153  16.266  14.390 -0.1728  0.1542  0.1969
 2051W        W17860  17.728   8.509   1.448 -0.1720  0.1058  0.1135
 2052W        W17861  14.940   4.223   2.081  0.0294 -0.1601 -0.0513
 2053W        W17862  13.127   7.360  14.065 -0.0452  0.0669  0.0845
 2054W        W17863   1.512  14.264  12.680  0.0316  0.2073 -0.0366
 2055W        W17864  17.853   1.300  15.905  0.0895  0.0614 -0.1713
 2056W        W17865   5.035   8.841   4.738  0.3269 -0.2063  0.1327
 2057W        W17866   6.011  10.708  14.147 -0.0642  0.1438 -0.1680
 2058W        W17867   6.191   9.529  16.024  0.0479  0.0607 -0.0633
 2059W        W17868   5.004  12.788  10.842  0.1717 -0.0578 -0.2815
 2060W        W17869   0.263  13.506  15.567  0.1591 -0.0972  0.3596
 2061W        W17870   3.466  13.157  12.710  0.1378 -0.3656 -0.4911
 2062W        W17871   2.806   8.859  11.436 -0.3020  0.1759 -0.3019
 2063W        W17872   0.285   1.285   0.794 -0.0357  0.2545  0.0230
 2064W        W17873  13.150   0.171   3.330 -0.1119  0.0676  0.0292
 2065W        W17874  14.367   6.526   1.451 -0.0641  0.1977  0.0208
 2066W        W17875   6.043  10.730  12.466 -0.0139 -0.3102 -0.2570
 2067W        W17876  12.919   0.912   4.355  0.4045 -0.1174  0.0555
 2068W        W17877   1.450  11.793  13.566 -0.0773 -0.1859 -0.0458
 2069W        W17878  10.950  16.344   5.323 -0.3987  0.0014 -0.2264
 2070W        W17879   6.526  17.158  15.929  0.1394  0.0171 -0.1598
 2071W        W17880  16.833   8.596  13.346 -0.1167 -0.0205  0.3190
 2072W        W17881  15.401   5.667   3.671  0.0983  0.2388  0.0575
 2073W        W17882  17.596  15.691   4.626  0.0422  0.0579 -0.0650
 2074W        W17883   6.246   3.885  16.694  0.1639  0.2414 -0.1090
 2075W        W17884   8.790   8.777  13.006  0.1255 -0.0577 -0.0427
 2076W        W17885   2.700   2.824  12.397 -0.5030 -0.0590 -0.1052
 2077W        W17886  14.226   6.496   5.336  0.0766 -0.0332  0.0100
 2078W        W17887   1.316  11.154   4.637  0.0627  0.0949 -0.1713
 2079W        W17888  17.662  13.935  13.098  0.3198  0.1966  0.0235
 2080W        W17889  13.881  14.703  12.021 -0.1964 -0.0156  0.0086
 2081W        W17890  10.150   7.404  15.861  0.0248  0.2363 -0.0086
 2082W        W17891  13.213  13.927   2.218 -0.0219 -0.1770 -0.1664
 2083W        W17892  16.260  15.938   4.022  0.1561 -0.0474  0.0628
 2084W        W17893  10.241   7.166  12.118 -0.2453 -0.0228  0.0657
 2085W        W17894   1.702   4.208  13.240 -0.5056  0.1583 -0.1244
 2086W        W17895   1.573   6.452  14.630 -0.1735  0.1259 -0.0780
 2087W        W17896  16.273  11.330  13.067 -0.0787  0.3106  0.0502
 2088W        W17897  11.974   6.787  11.413  0.0480 -0.1918 -0.3426
 2089W        W17898   7.942  17.105   4.159  0.0263 -0.0651 -0.2239
 2090W        W17899   2.399   8.667  11.784 -0.2274  0.1422  0.0965
 2091W        W17900  13.295  10.585  12.840  0.0675 -0.0463 -0.0924
 2092W        W17901  14.221   6.520   0.901 -0.3570  0.1524 -0.0156
 2093W        W17902   7.263   5.659   0.660  0.0874  0.1490 -0.1831
 2094W        W17903   0.140  13.034  14.328  0.0523 -0.1466 -0.1791
 2095W        W17904   5.249   7.355   5.018  0.0016 -0.1759  0.0189
 2096W        W17905   4.379   0.389   5.269 -0.1268  0.0789 -0.0503
 2097W        W17906  12.724   7.277   6.044  0.0758  0.3004 -0.1267
 2098W        W17907   4.365  15.542  14.845 -0.0158 -0.1631 -0.1061
 2099W        W17908  13.844  10.593   4.493  0.0200 -0.2246  0.1915
 2100W        W17909   6.515   0.345   0.769 -0.1847 -0.1450 -0.0936
 2101W        W17910   7.353   8.927  14.433  0.2026 -0.0207  0.0564
 2102W        W17911  17.932  12.838  11.578  0.2051 -0.2560  0.0077
 2103W        W17912   1.818   1.296  15.322  0.0429  0.0913 -0.0305
 2104W        W17913   0.743  13.460   6.257 -0.0631  0.1816 -0.1762
 2105W        W17914   4.184   5.387   2.666 -0.4258  0.2084 -0.1125
 2106W        W17915   3.923  13.240  13.072 -0.2430 -0.0835  0.1102
 2107W        W17916   6.701  12.148  15.751  0.0154 -0.0677 -0.2503
 2108W        W17917   7.520   7.647   1.381  0.1518 -0.2041  0.0108
 2109W        W17918   1.201   1.875   1.385  0.0444 -0.0272  0.0118
 2110W        W17919  12.979  14.144   1.785  0.0948  0.0110 -0.1602
 2111W        W17920   4.023  16.602  14.097  0.0648 -0.1401  0.0814
 2112W        W17921  12.840   3.025  13.173  0.1255 -0.2421 -0.1453
 2113W        W17922   3.813   2.629  12.684  0.4706 -0.1043 -0.2150
 2114W        W17923  15.279  17.355   1.908 -0.1380  0.1161  0.1182
 2115W        W17924  11.447  10.620  14.491 -0.2375  0.0932 -0.2650
 2116W        W17925  14.458  17.605   0.786  0.0266  0.0752 -0.1531
 2117W        W17926   7.591   2.906  15.281 -0.2510  0.1533 -0.2192
 2118W        W17927   5.467   2.538  15.995  0.1882  0.1219 -0.2770
 2119W        W17928   4.337   8.885   0.514 -0.1544  0.0503  0.0901
 2120W        W17929   4.371  12.465  12.195 -0.0759  0.0140 -0.2044
 2121W        W17930   8.154   4.405  14.995 -0.1805 -0.0481 -0.1801
 2122W        W17931   6.938   7.733   5.239 -0.0801 -0.2014  0.3150
 2123W        W17932  13.814   6.553  11.859  0.2003 -0.1441  0.3430
 2124W        W17933   8.448  10.176  13.465  0.3221 -0.0832 -0.1417
 2125W        W17934   7.967   8.580  13.915 -0.0705 -0.1339 -0.2137
 2126W        W17935  14.712   6.067  11.084  0.1195 -0.2751 -0.1778
 2127W        W17936   2.364   6.378  14.835  0.0898  0.0210 -0.0296
 2128W        W17937  16.835   7.902  16.048 -0.1765 -0.1664 -0.1509
 2129W        W17938   1.382  16.966   2.398 -0.2197 -0.2224  0.2225
 2130W        W17939   8.312   2.363  16.200  0.2440  0.1060  0.5538
 2131W        W17940  12.014   3.208   3.914 -0.2782 -0.4248  0.0492
 2132W        W17941   5.440  12.017   0.704 -0.2321 -0.1400  0.0244
 2133W        W17942   3.462   8.966   2.516 -0.1305  0.1012 -0.1083
 2134W        W17943   6.239   8.448   4.876  0.0082 -0.1316 -0.2010
 2135W        W17944   3.156   5.799  12.317 -0.0824  0.1328 -0.1103
 2136W        W17945  14.365  15.238   1.541  0.2893  0.0738  0.0878
 2137W        W17946   3.630  14.327  16.404 -0.2502  0.1964 -0.0294
 2138W        W17947  13.340   9.837   5.394  0.2118  0.0823 -0.1429
 2139W        W17948   7.330  12.575   3.975 -0.3209 -0.3166 -0.0641
 2140W        W17949  10.546  13.779  12.874  0.2616  0.0074 -0.0593
 2141W        W17950  15.848   0.468  14.420 -0.0648  0.1349 -0.0776
 2142W        W17951   9.545   2.722  15.033  0.1151 -0.0558 -0.1651
 2143W        W17952   6.843   5.559  14.396 -0.1188  0.0924 -0.0690
 2144W        W17953   5.506   6.534   2.272  0.1845  0.3108 -0.0898
 2145W        W17954   8.993  10.692  12.817  0.2741 -0.0555 -0.2114
 2146W        W17955   6.553  14.835  14.135  0.2208  0.0741 -0.0707
 2147W        W17956  11.411  12.750  15.908 -0.0199 -0.1947  0.2592
 2148W        W17957   1.677   4.746  12.747 -0.0364 -0.1201 -0.0393
 2149W        W17958  12.896   2.572   4.633  0.0318  0.0367 -0.1094
 2150W        W17959   6.806   4.471  12.945  0.0038 -0.1095 -0.0825
 2151W        W17960  12.197   3.995  14.727  0.0880 -0.2880  0.1215
 2152W        W17961   5.868   3.028   3.315  0.1400 -0.2555  0.2592
 2153W        W17962  15.417  10.753  16.406 -0.2634 -0.0781 -0.0175
 2154W        W17963   0.352  16.761   4.690 -0.0756  0.1412  0.0792
 2155W        W17964   7.307   1.601   5.272  0.0952 -0.1077 -0.3879
 2156W        W17965  14.195  10.687  15.455 -0.0474 -0.3904 -0.0004
 2157W        W17966  13.519   0.197  12.659 -0.2403  0.0434 -0.0397
 2158W        W17967  11.017   1.026  13.851 -0.1621  0.0845 -0.0045
 2159W        W17968   6.753   5.666  15.257 -0.3402  0.1601  0.0495
 2160W        W17969   6.727   0.562  15.693 -0.0868 -0.0969 -0.2038
 2161W        W17970   1.341  12.838  13.339 -0.2216 -0.0009  0.1110
 2162W        W17971   0.539   0.812  12.258  0.0733 -0.2481  0.0052
 2163W        W17972  11.234   6.364  13.107 -0.0066 -0.2654 -0.5292
 2164W        W17973   4.040   2.303   1.307  0.1562 -0.2625  0.1933
 2165W        W17974  10.665   5.594  12.344 -0.1352 -0.0760  0.1557
 2166W        W17975  13.725   9.589   5.246  0.0523 -0.1014  0.3455
 2167W        W17976   4.122   7.802   3.597  0.1088  0.0749  0.0202
 2168W        W17977   5.873  16.215  14.582  0.2313 -0.1473 -0.0508
 2169W        W17978  11.543   8.012   1.188  0.0122 -0.0904 -0.2030
 2170W        W17979  17.189   6.053   2.685 -0.2260 -0.0288 -0.2384
 2171W        W17980   1.819  10.031   0.901 -0.1461  0.2404  0.0356
 2172W        W17981  17.893   8.931   1.220 -0.0607 -0.2534  0.0655
 2173W        W17982  17.683   3.091   1.031 -0.0354  0.0945  0.1225
 2174W        W17983   4.882  14.527  11.512  0.2855 -0.2399  0.0035
 2175W        W17984   0.587   2.302   2.767 -0.0346 -0.1116  0.2445
 2176W        W17985   4.954  15.882   1.662  0.0278 -0.1932  0.3478
 2177W        W17986  11.923   0.129   4.996 -0.1585 -0.0472  0.1508
 2178W        W17987  13.042   9.844  14.928  0.2949 -0.0355  0.0353
 2179W        W17988   0.289   6.077  15.360 -0.2997  0.2349  0.0197
 2180W        W17989   1.215   0.812   3.273  0.0375  0.0285  0.3028
 2181W        W17990   4.368   7.228  11.492 -0.1813  0.0944  0.1719
 2182W        W17991  14.530  13.794  14.810  0.1146  0.0760 -0.0266
 2183W        W17992   0.012  13.837   4.741 -0.2454  0.1424  0.3054
 2184W        W17993  12.128   3.461  13.823 -0.3595  0.1106 -0.1437
 2185W        W17994   6.853  13.362   3.211 -0.0671  0.4772  0.0363
 2186W        W17995   9.415  10.874  12.485  0.0267 -0.0486 -0.1551
 2187W        W17996   1.515   2.896  12.601  0.0393 -0.3772  0.0197
 2188W        W17997  17.437   4.971  16.197  0.3554  0.2451 -0.0658
 2189W        W17998   2.791   7.033  13.602 -0.1398 -0.1676  0.0244
 2190W        W17999   0.654   8.183   3.187 -0.1250  0.0789  0.2027
 2191W        W18000  13.133  13.321   0.814  0.1441  0.0793  0.2016
 2192W        W18001   7.700   1.752   3.420 -0.0394  0.2206 -0.0836
 2193W        W18002   0.508  15.787   1.354 -0.1581 -0.2989 -0.3692
 2194W        W18003   6.863   1.529   2.656  0.1062  0.0776  0.0459
 2195W        W18004  15.605   1.488  15.422 -0.1237 -0.0410 -0.0231
 2196W        W18005   1.184  12.439   1.939 -0.2756 -0.2523 -0.0056
 2197W        W18006   9.372  11.577  14.017 -0.0052  0.1044 -0.3655
 2198W        W18007  17.260   4.190  15.761  0.0686  0.2014 -0.2398
 2199W        W18008   5.367   9.729  13.084  0.0505 -0.0832  0.2427
 2200W        W18009   7.153  12.705  11.521  0.0656  0.0120 -0.0042
 2201W        W18010   8.200   5.076   3.923  0.1179 -0.3857  0.1989
 2202W        W18011   0.125  12.427  13.641 -0.1249 -0.0315 -0.0387
 2203W        W18012  12.116   5.873  12.080  0.0323 -0.0889 -0.2055
 2204W        W18013   2.825   2.313  11.739  0.1246  0.0483  0.0124
 2205W        W18014  11.211   4.786  15.101 -0.1516 -0.1522  0.0024
 2206W        W18015  11.799   9.602  12.826  0.0236  0.4427  0.1829
 2207W        W18016   7.633  11.640   1.172  0.0488  0.2613 -0.1023
 2208W        W18017   8.437   8.519   1.701  0.0568 -0.0847 -0.0092
 2209W        W18018  12.728   0.693  12.083  0.3972 -0.0262 -0.1886
 2210W        W18019   4.819   5.488  10.979 -0.1839  0.0976  0.1633
 2211W        W18020   1.343   5.453  10.148  0.2745 -0.3721  0.1131
 2212W        W18021  13.467  17.549  13.385 -0.0191 -0.0260  0.0438
 2213W        W18022  14.122  13.553   3.253 -0.2193 -0.3133  0.2326
 2214W        W18023  14.233   5.807  12.130 -0.0779 -0.0192 -0.0794
 2215W        W18024   5.794   0.321   1.088 -0.0661  0.1663 -0.0701
 2216W        W18025  17.407   5.927  14.523 -0.0086  0.1219  0.1319
 2217W        W18026   4.507   6.094  16.359 -0.2715  0.0644  0.0855
 2218W        W18027   9.159   4.327  14.424  0.0858  0.2199 -0.2642
 2219W        W18028  12.917   7.027  16.426  0.2385  0.0396  0.2426
 2220W        W18029   4.020   4.011  16.702  0.2638  0.0494 -0.3455
 2221W        W18030  15.499   8.508  16.427 -0.1116 -0.0983 -0.0683
 2222W        W18031  16.299   0.246   2.312 -0.0258  0.2412 -0.1605
 2223W        W18032   7.561   3.675  13.757  0.1287  0.2120 -0.1283
 2224W        W18033  10.706   8.017  14.376  0.0646  0.1026  0.2550
 2225W        W18034  15.360   7.663   1.916  0.1576  0.1931  0.2929
 2226W        W18035   5.839   4.495   0.358 -0.0786 -0.2776 -0.2562
 2227W        W18036   5.648  14.293  15.765  0.0598  0.0526  0.0630
 2228W        W18037   8.469  12.623   3.349  0.3080 -0.1760 -0.0214
 2229W        W18038   2.569   5.561   3.155  0.3388  0.1025 -0.3045
 2230W        W18039   6.316  16.763  16.290 -0.2693 -0.0885  0.5036
 2231W        W18040  13.048  16.930   2.476  0.2763  0.1649  0.0869
 2232W        W18041  10.157   2.989   0.827  0.0574 -0.0732 -0.1950
 2233W        W18042   0.927   8.805  15.063 -0.0648  0.0099 -0.1900
 2234W        W18043  16.457   8.349   3.612 -0.0665  0.0747  0.0659
 2235W        W18044   0.874   7.298   3.735  0.2063  0.0349 -0.2920
 2236W        W18045  15.055  12.777   4.003 -0.0277 -0.1498 -0.1650
 2237W        W18046   9.040   6.766   1.298  0.0637 -0.3342  0.0405
 2238W        W18047   4.394   1.949   0.405 -0.1572  0.1742  0.0774
 2239W        W18048   5.168   6.561  10.580 -0.3740  0.0816 -0.1414
 2240W        W18049  16.461   2.703   2.810  0.0763  0.0162  0.1120
 2241W        W18050  12.363  12.737  16.111  0.1527  0.1663  0.3304
 2242W        W18051  12.298  12.005  14.058  0.2448  0.2097  0.0022
 2243W        W18052   6.834   5.169   0.072  0.1598 -0.0944  0.3491
 2244W        W18053   3.604  12.941  11.265 -0.0926  0.1640  0.0100
 2245W        W18054  17.309   7.410   0.603 -0.0909  0.1998 -0.1018
 2246W        W18055   5.919  17.618  14.731  0.1396  0.0056 -0.0159
 2247W        W18056  17.015  15.909  16.164  0.2429  0.0797 -0.0896
 2248W        W18057   2.145   1.307  13.682 -0.0935  0.1250  0.0306
 2249W        W18058   9.049   7.442   5.411 -0.4525  0.0675  0.0047
 2250W        W18059   8.855  17.776   5.978 -0.0828  0.1365 -0.3966
 2251W        W18060   1.539   8.640   0.437  0.0360  0.0302  0.2707
 2252W        W18061   2.751   1.241   3.723  0.0145 -0.4546  0.0920
 2253W        W18062   2.311  16.602  14.912 -0.1306 -0.0614  0.1009
 2254W        W18063   1.517  13.336   4.138 -0.0819 -0.1280 -0.2090
 2255W        W18064  14.960   1.775  16.664  0.2523 -0.2320 -0.0116
 2256W        W18065   2.311  13.016  13.092  0.0548  0.1613  0.2316
 2257W        W18066   1.893  14.130  16.614 -0.1435 -0.3582 -0.1652
 2258W        W18067  14.806  12.536  13.424  0.1842 -0.0346  0.2463
 2259W        W18068  17.801   6.105  15.794 -0.2313  0.2635  0.0378
 2260W        W18069   7.061   5.329  16.334 -0.0054  0.0230  0.1401
 2261W        W18070   5.543  17.217   2.909  0.3186  0.2723 -0.0791
 2262W        W18071   9.330  12.183   5.538  0.0332 -0.0208  0.0804
 2263W        W18072  14.737  15.371   3.257 -0.1657 -0.2037  0.1070
 2264W        W18073  15.226   2.808  15.045  0.0230 -0.3214  0.0412
 2265W        W18074   9.222  11.767  11.494  0.0336 -0.1757  0.1169
 2266W        W18075   6.893   1.617   4.447 -0.0199  0.0063 -0.0077
 2267W        W18076  15.993   1.215   0.371 -0.4888  0.0928 -0.1372
 2268W        W18077   0.033   2.803  11.978  0.2089  0.1605 -0.2058
 2269W        W18078   1.855   5.476   2.852  0.1949 -0.0168 -0.0068
 2270W        W18079  13.989  16.738   2.992  0.0311  0.2727  0.0547
 2271W        W18080   6.284  13.015  16.033 -0.0041 -0.2492  0.1043
 2272W        W18081  11.191  13.139   2.351  0.1199 -0.0414  0.1181
 2273W        W18082   8.412  15.254   4.760 -0.1003  0.1323 -0.0520
 2274W        W18083  17.701  17.786   0.552  0.0584 -0.0897 -0.2728
 2275W        W18084   6.181   0.948  15.398 -0.0726 -0.0994  0.2814
 2276W        W18085  16.093   9.359   0.384  0.2990 -0.2318 -0.0158
 2277W        W18086   8.513  10.348   3.343  0.1050  0.0777  0.2012
 2278W        W18087   3.165   9.967   3.752  0.1536  0.0878 -0.1857
 2279W        W18088  13.510   1.514  14.803  0.1999 -0.0628 -0.2318
 2280W        W18089  17.231  14.515   0.444 -0.0320  0.4793 -0.0713
 2281W        W18090  17.863  13.207   5.304 -0.2720  0.1632  0.0096
 2282W        W18091   9.419   2.926   1.663 -0.0482  0.1684  0.1219
 2283W        W18092   5.939  13.778   3.326 -0.1440 -0.2582 -0.0782
 2284W        W18093   9.469  12.550   2.273  0.2668  0.4431 -0.0680
 2285W        W18094   5.229   8.944   2.148 -0.3564 -0.0595 -0.0110
 2286W        W18095  17.511   7.370   1.999 -0.0530  0.2467  0.2936
 2287W        W18096   2.238   0.261  11.499 -0.0617  0.0896  0.0531
 2288W        W18097  17.188  10.703  12.198  0.1743  0.3882  0.1834
 2289W        W18098   4.255  15.554  12.202 -0.1533 -0.0491 -0.0558
 2290W        W18099   4.891  16.990  14.266  0.2047 -0.1599 -0.1105
 2291W        W18100  10.144  13.982  14.362  0.2157 -0.1981  0.2989
 2292W        W18101   1.905  12.039   2.518  0.0150  0.1089  0.1674
 2293W        W18102   1.441  17.403  12.969  0.2400  0.0629 -0.2465
 2294W        W18103  12.356  11.817  15.186 -0.0111  0.1622  0.2133
 2295W        W18104   0.796   4.398  12.926  0.2319 -0.0947 -0.0004
 2296W        W18105  17.458   9.244  11.927  0.1435  0.0709 -0.1549
 2297W        W18106   9.461   0.198  12.042  0.1404  0.2721  0.2718
 2298W        W18107   0.785   8.180   1.530 -0.1349  0.0256 -0.0927
 2299W        W18108   6.955   0.183  14.807  0.2573 -0.0077  0.3101
 2300W        W18109  12.237  14.340   4.411  0.0506  0.2642 -0.3966
 2301W        W18110  13.380   7.824  11.693  0.0598  0.0756 -0.1273
 2302W        W18111  17.899  17.430   3.783 -0.0228 -0.1100 -0.2948
 2303W        W18112   5.181   4.023   1.523 -0.0138 -0.0959  0.0165
 2304W        W18113  15.805   5.577  11.194  0.1631 -0.0018  0.1152
 2305W        W18114   2.491   0.067  11.897 -0.2619  0.2183 -0.3370
 2306W        W18115   9.365   9.061   3.384 -0.1124  0.0500 -0.0361
 2307W        W18116  14.019   5.220   3.939 -0.0525 -0.1289  0.2171
 2308W        W18117   5.574   8.310  11.638 -0.0720 -0.1602  0.0873
 2309W        W18118   3.000  15.812   2.194 -0.3451  0.2761  0.1265
 2310W        W18119   0.398  14.112   3.286  0.1561 -0.1674  0.0575
 2311W        W18120  17.166  15.290   5.297  0.0669 -0.2412  0.0852
 2312W        W18121   4.621  17.911   1.243 -0.1277 -0.1975  0.3175
 2313W        W18122  12.486   0.550   4.823  0.1135 -0.3629 -0.0727
 2314W        W18123   9.326   2.080   0.482 -0.0085 -0.0223 -0.1300
 2315W        W18124  12.007  15.807  12.965  0.0993  0.1307 -0.1747
 2316W        W18125  12.278  12.225   0.577 -0.0617  0.1161 -0.1127
 2317W        W18126  17.255  17.801  14.130  0.0069 -0.0860 -0.1401
 2318W        W18127   8.676  13.708  12.069  0.0088  0.0415 -0.4983
 2319W        W18128   6.857   8.101  15.685 -0.2573 -0.0729  0.2094
 2320W        W18129   9.157  13.631  12.307 -0.0596 -0.2003  0.2832
 2321W        W18130   4.581   6.284   4.652  0.3133 -0.2421 -0.1071
 2322W        W18131  11.614   8.229  13.920  0.1369  0.2315 -0.5072
 2323W        W18132   4.934   4.348  16.383  0.0135  0.1460 -0.3738
 2324W        W18133  12.837  11.781   0.977  0.0952 -0.0420  0.0709
 2325W        W18134  14.977  10.667   1.615  0.1664 -0.1542  0.1021
 2326W        W18135  17.903  16.808  16.052 -0.0581  0.0279 -0.1509
 2327W        W18136  17.342   5.013   2.196  0.1491 -0.1174  0.0399
 2328W        W18137  13.719  16.884  13.335  0.0955  0.0643 -0.1353
 2329W        W18138   4.142   5.623   4.017  0.0690  0.0010 -0.0799
 2330W        W18139  10.715   1.393  13.948 -0.0219 -0.2155 -0.1161
 2331W        W18140  14.237   4.045   0.671 -0.1582 -0.0835  0.1829
 2332W        W18141   9.577  10.431  13.889  0.2987  0.0284  0.2647
 2333W        W18142  15.559   5.149   1.142  0.1857  0.2137 -0.0014
 2334W        W18143   2.918   1.434   1.884  0.2123  0.2606 -0.1328
 2335W        W18144   5.201  13.103   2.778 -0.3575  0.0322 -0.0281
 2336W        W18145   5.240   0.692  15.026  0.1081 -0.0079 -0.1350
 2337W        W18146  14.711   4.525   4.236 -0.0976 -0.0166  0.0459
 2338W        W18147   9.670   9.228  12.080 -0.1677 -0.2660  0.0217
 2339W        W18148  15.167  15.585   1.203  0.1952  0.0348  0.0770
 2340W        W18149  12.945   6.914   1.902  0.0203  0.0549  0.1071
 2341W        W18150  15.891   8.335  13.439 -0.1071  0.1366  0.2278
 2342W        W18151   7.029   4.353   3.269  0.0731 -0.3432  0.3570
 2343W        W18152   2.560   0.212   0.596  0.1030 -0.0519  0.1204
 2344W        W18153  12.966  11.000   0.932 -0.0069  0.2090 -0.1413
 2345W        W18154  13.888  16.933  14.511  0.1456  0.0206  0.1499
 2346W        W18155  17.110  13.276  14.171 -0.5001 -0.0957 -0.0806
 2347W        W18156  11.931   5.416  16.109  0.0392  0.2136 -0.1001
 2348W        W18157   0.183  12.885   0.171 -0.0148 -0.2964 -0.0025
 2349W        W18158  14.582   2.688   0.653  0.1073  0.0186  0.1701
 2350W        W18159  17.774  14.818  14.648  0.3085 -0.3676 -0.1250
 2351W        W18160   4.775  15.720  14.661 -0.0120  0.1448  0.1367
 2352W        W18161   9.358  10.865   4.831  0.2483 -0.2168 -0.2474
 2353W        W18162   8.050  10.669  12.824  0.1795 -0.0742  0.0540
 2354W        W18163   4.130   0.235  15.984  0.2441 -0.0536  0.1192
 2355W        W18164   4.605   4.723  16.261 -0.1160  0.2547  0.0741
 2356W        W18165   6.853   2.574  15.282 -0.0748 -0.2928  0.0470
 2357W        W18166   3.264   5.966  16.077 -0.1733  0.0681 -0.0410
 2358W        W18167  14.423   4.548  16.026 -0.0771  0.2386 -0.0927
 2359W        W18168   3.472  12.586   3.449 -0.2225 -0.2905 -0.1736
 2360W        W18169   4.311   7.456  12.337 -0.0751 -0.4429 -0.1372
 2361W        W18170  15.964  17.300  12.867  0.2398  0.2252  0.0985
 2362W        W18171  15.178   9.787   0.045  0.0688  0.1381 -0.1119
 2363W        W18172  15.276  11.940   1.174 -0.1829  0.2791  0.1689
 2364W        W18173   7.805   1.894   1.254  0.3134  0.1215  0.3374
 2365W        W18174  12.576   8.039   2.457 -0.1921 -0.1364  0.0032
 2366W        W18175  11.260   8.687   3.765  0.2275  0.3145 -0.1074
 2367W        W18176   2.417   9.965  14.031  0.4069 -0.2055 -0.0494
 2368W        W18177   7.382   5.660  13.983  0.1789  0.3934 -0.2572
 2369W        W18178  11.246   5.984   5.734 -0.2244 -0.0431  0.0091
 2370W        W18179  14.067   0.761  12.022 -0.3080 -0.0418  0.0595
 2371W        W18180   3.185  14.473  15.976 -0.0452 -0.1295  0.1171
 2372W        W18181   2.046  11.413   4.056  0.1217  0.1828 -0.1951
 2373W        W18182  10.967  12.360   1.227  0.0715 -0.2921 -0.0267
 2374W        W18183  10.072  10.732  10.675  0.1910 -0.2596  0.1189
 2375W        W18184   4.442   3.363  15.052 -0.4399  0.2673  0.1831
 2376W        W18185  15.388  13.106   6.158 -0.1459  0.0534 -0.1717
 2377W        W18186  11.845   4.098   3.942  0.2364 -0.0433 -0.0866
 2378W        W18187  15.938   2.401  13.454 -0.0451  0.2166 -0.0565
 2379W        W18188  17.078   0.149   1.706 -0.2133  0.0595  0.2453
 2380W        W18189  10.197   7.364  13.238 -0.0888 -0.1262  0.2666
 2381W        W18190  10.095  14.101  12.775  0.2648 -0.0964 -0.0165
 2382W        W18191   7.488   7.551  12.554 -0.2468  0.1325  0.3266
 2383W        W18192  10.165   7.105  13.843 -0.1758 -0.0274 -0.1182
 2384W        W18193   9.817  12.186   3.733 -0.2003  0.1103  0.1329
 2385W        W18194  10.026  17.003   1.732  0.3520 -0.2363  0.0565
 2386W        W18195  16.834   8.101   2.304  0.0129  0.2630 -0.3226
 2387W        W18196  12.078  10.351   3.230  0.1273 -0.2447  0.2275
 2388W        W18197   3.973  14.101   1.721  0.0352 -0.0574 -0.1986
 2389W        W18198   0.047   9.699   3.103 -0.0633  0.1331 -0.2298
 2390W        W18199  10.205   4.885  12.936 -0.0900  0.3423  0.0766
 2391W        W18200   8.126  16.048   5.028 -0.1489 -0.1291 -0.0547
 2392W        W18201  16.446  15.118   6.224  0.0714 -0.0218  0.0940
 2393W        W18202  17.073  17.435  15.259 -0.4398  0.0129  0.1227
 2394W        W18203   3.338  11.427  15.363  0.0510  0.2198  0.2014
 2395W        W18204   7.932   2.101   2.546  0.4613 -0.2166  0.1301
 2396W        W18205  15.877  14.933   1.011 -0.1395 -0.0576 -0.0856
 2397W        W18206  17.115  17.737   1.348  0.1132  0.4240 -0.3710
 2398W        W18207   7.535   5.685  13.072  0.3196  0.1980  0.0077
 2399W        W18208  15.623   0.491  13.968  0.1437  0.1870 -0.0739
 2400W        W18209  15.920  12.310  15.816 -0.0860  0.1280  0.1291
 2401W        W18210   7.026   0.567   3.178 -0.0833  0.2936  0.0639
 2402W        W18211   4.057   4.916  15.744  0.2731 -0.1269  0.0034
 2403W        W18212   8.471  12.298  11.402 -0.1075 -0.0179 -0.1770
 2404W        W18213   4.747   4.113   4.903  0.0814  0.1537 -0.0126
 2405W        W18214  15.940   8.919   5.305  0.2114  0.0100 -0.0711
 2406W        W18215   4.161   6.300  11.367 -0.0213 -0.0288 -0.1639
 2407W        W18216  13.022   0.712  15.019  0.0562  0.0510  0.0952
 2408W        W18217   6.378   4.850   1.710  0.2069  0.0713  0.3616
 2409W        W18218   0.384   9.900   3.456  0.0075  0.0084 -0.1573
 2410W        W18219   0.497  14.263   4.053 -0.0655 -0.1646  0.2330
 2411W        W18220   6.617   4.115   2.404  0.0041 -0.0003  0.0338
 2412W        W18221   5.351   9.558   2.006  0.2050  0.0004  0.0189
 2413W        W18222  10.364   4.427  13.690  0.1384 -0.0850 -0.0631
 2414W        W18223   6.881   4.293  13.407 -0.1507  0.1721 -0.0324
 2415W        W18224   0.286  11.352  16.294  0.3164  0.1069 -0.6759
 2416W        W18225  11.194  10.282  12.862 -0.1057  0.1790 -0.0784
 2417W        W18226   9.492  14.172   0.072 -0.1997  0.0126 -0.1102
 2418W        W18227   9.363   7.483  15.323  0.3480  0.2639 -0.1080
 2419W        W18228  17.098   2.198  15.337 -0.0475  0.0027 -0.1085
 2420W        W18229   0.205   8.503  11.763  0.2098  0.2541 -0.3119
 2421W        W18230   5.376   4.451   0.539  0.0338  0.2129 -0.0651
 2422W        W18231   0.068   8.486  14.084 -0.2023  0.2183 -0.1143
 2423W        W18232  16.691   0.844   0.012  0.0261 -0.0479 -0.2798
 2424W        W18233   8.937  13.701   3.641 -0.1842  0.1905 -0.1940
 2425W        W18234  12.497  12.355  15.182 -0.1963 -0.1142  0.2030
 2426W        W18235   6.559   3.506  12.776  0.0142  0.0954  0.2362
 2427W        W18236   8.074   9.252   5.205 -0.1148 -0.1136 -0.2277
 2428W        W18237   1.331   7.184   3.295 -0.1626  0.1990  0.0211
 2429W        W18238  15.291   8.923   5.363  0.0200 -0.1859  0.1680
 2430W        W18239   6.928   0.238   5.617 -0.0464 -0.2944 -0.0660
 2431W        W18240  12.810  16.443  13.724 -0.0735 -0.0899  0.4939
 2432W        W18241   5.953   2.090   0.441 -0.2060  0.0054  0.2077
 2433W        W18242   7.260  15.533   5.697  0.2198 -0.1582  0.2254
 2434W        W18243   9.250   1.768  11.137  0.1014 -0.2163  0.2027
 2435W        W18244  10.915   6.440  12.395  0.0455  0.1059 -0.1847
 2436W        W18245   6.627  16.244   4.698 -0.2084  0.0923 -0.0100
 2437W        W18246   1.577   3.726  13.430  0.2091  0.0234  0.2833
 2438W        W18247   7.511  17.926  15.865  0.1711 -0.1804 -0.0075
 2439W        W18248   1.904  12.542  14.888 -0.0340 -0.1113  0.2624
 2440W        W18249   6.107   4.487  14.905  0.0067 -0.1495  0.0423
 2441W        W18250  13.098   0.948   2.360  0.3355  0.1471 -0.1892
 2442W        W18251   2.290  17.830   1.475  0.1333 -0.0329 -0.0196
 2443W        W18252   8.088  11.893   0.979 -0.4313  0.0004  0.2207
 2444W        W18253  15.588  14.527   5.644 -0.2979 -0.2231  0.2503
 2445W        W18254   3.219  15.560   3.874  0.1325  0.0578 -0.2935
 2446W        W18255  13.236  17.794  12.929  0.0236  0.2462  0.0764
 2447W        W18256   1.327  10.849  12.722  0.0894 -0.0577  0.0290
 2448W        W18257  13.897   9.610  11.490  0.0523 -0.1236 -0.1973
 2449W        W18258   9.110   2.741  14.681 -0.1425 -0.2136  0.1305
 2450W        W18259   4.280  12.928  12.420  0.0231  0.0875 -0.1635
 2451W        W18260   5.773  10.636  13.259  0.0680 -0.2759  0.2001
 2452W        W18261   0.636  17.005   1.892 -0.2702 -0.0958  0.1711
 2453W        W18262  12.120  17.790  12.309 -0.0933 -0.1779 -0.2533
 2454W        W18263   7.082  17.441   4.526 -0.3501  0.1929  0.2274
 2455W        W18264  13.109   1.633  16.027 -0.4677  0.0415 -0.1325
 2456W        W18265  14.878  17.768   4.246 -0.1095  0.4299  0.0538
 2457W        W18266   2.270   9.954  13.528 -0.1209 -0.0223  0.0486
 2458W        W18267  15.925   1.954   4.338 -0.1863 -0.4455 -0.1611
 2459W        W18268   8.545   8.776   2.137  0.1005 -0.2460 -0.0050
 2460W        W18269  11.809   8.696  16.703  0.3664 -0.0330 -0.1493
 2461W        W18270  11.546   6.887   2.461 -0.1823 -0.0478  0.2231
 2462W        W18271   0.960   9.488   0.666 -0.0939 -0.2919  0.1013
 2463W        W18272   8.071   7.550  15.219  0.2652 -0.0614  0.0950
 2464W        W18273  10.914   3.955  13.523 -0.0671  0.0966  0.1702
 2465W        W18274   4.126  14.429  16.417 -0.0466  0.1057 -0.0755
 2466W        W18275   6.565  11.480   5.233  0.3028 -0.2865  0.1946
 2467W        W18276   7.138   5.496   1.715 -0.3403 -0.3022  0.1118
 2468W        W18277   1.617  16.612   0.878 -0.0391  0.0647 -0.1065
 2469W        W18278   1.017  10.448  12.735 -0.1509 -0.0494  0.0241
 2470W        W18279   5.929  13.534  12.011  0.0793 -0.0607 -0.0587
 2471W        W18280   3.147   1.719   0.908 -0.0776  0.4560  0.0351
 2472W        W18281   3.746   9.389  14.031 -0.1527 -0.2527  0.2264
 2473W        W18282  15.696   2.331  11.124  0.2513 -0.1995  0.1526
 2474W        W18283  10.030  10.738   4.795 -0.0795 -0.1737 -0.0979
 2475W        W18284   5.972  10.220  16.397 -0.0719  0.3532  0.1564
 2476W        W18285  14.198  16.716   1.725 -0.3083  0.2620 -0.1007
 2477W        W18286   4.212  16.328   2.437 -0.0813  0.2609  0.2389
 2478W        W18287  14.686   2.163   5.352  0.0832 -0.0285  0.1040
 2479W        W18288   8.697   8.329  13.350 -0.2182  0.2353 -0.1277
 2480W        W18289   3.857  14.726   0.015  0.1821  0.1297  0.1348
 2481W        W18290  15.165   1.237   5.101 -0.0986  0.1540 -0.0376
 2482W        W18291   4.107   7.683   4.479 -0.0991  0.1798  0.0015
 2483W        W18292  11.312  16.114   1.662  0.1342 -0.1510 -0.0492
 2484W        W18293   4.736  12.257  14.614  0.1598 -0.1725  0.1473
 2485W        W18294  10.310  11.796  16.131 -0.0205  0.3046 -0.3446
 2486W        W18295  13.209  14.785   2.578 -0.1874  0.0022 -0.2102
 2487W        W18296   3.058   9.353   0.194  0.0120 -0.3070  0.1065
 2488W        W18297   6.836  12.356  16.278 -0.2209  0.0468  0.1614
 2489W        W18298   3.539  15.547   0.148  0.0742  0.2780  0.3587
 2490W        W18299  11.820   2.833   3.561  0.2787  0.0071 -0.0411
 2491W        W18300  13.767   8.057  11.548 -0.2039 -0.0956  0.1562
 2492W        W18301  12.529   3.320   0.404 -0.2396  0.1582  0.1878
 2493W        W18302  10.069  17.028   6.015 -0.0628  0.2061 -0.0859
 2494W        W18303  12.857   1.859  13.273  0.1174 -0.0818 -0.2959
 2495W        W18304  15.551  15.494  12.482 -0.0025  0.1005 -0.4181
 2496W        W18305   8.753  11.434   2.759 -0.0006  0.2638  0.0401
 2497W        W18306  14.097  12.341  12.041  0.1211 -0.0825  0.0051
 2498W        W18307  16.736   9.423  14.430  0.3059  0.1026 -0.0149
 2499W        W18308   8.583  14.483   1.134  0.0880 -0.0546 -0.1089
 2500W        W18309  17.570  14.033  13.977 -0.3015  0.0577 -0.0006
 2501W        W18310   4.025  13.563   1.779 -0.0393 -0.0120 -0.1183
 2502W        W18311  12.395   3.692   0.117 -0.0732 -0.0311  0.1224
 2503W        W18312   0.740   1.738   0.990 -0.1235 -0.2850  0.3655
 2504W        W18313   9.794   8.738   3.120  0.3766  0.0903 -0.0425
 2505W        W18314  11.626  16.652   3.867 -0.0698  0.0248  0.2529
 2506W        W18315   7.824  15.197  15.390  0.0790 -0.2365  0.0158
 2507W        W18316   5.807   6.011   0.436 -0.1828  0.0284 -0.1490
 2508W        W18317   2.325   9.656  10.919 -0.0068  0.3242  0.2189
 2509W        W18318  16.148  13.462  14.126  0.1778  0.1068  0.1386
 2510W        W18319  16.631   4.493  14.172 -0.1276 -0.0198 -0.0317
 2511W        W18320  17.293   1.952  13.341  0.0569 -0.0042  0.0110
 2512W        W18321  10.215  14.858   2.122 -0.0871 -0.0985  0.1761
 2513W        W18322  16.781   5.065  16.013 -0.1513 -0.1794  0.0932
 2514W        W18323  17.512   8.782   1.863 -0.0053  0.1569 -0.0238
 2515W        W18324   7.139  12.238  11.382  0.0324 -0.0186  0.1492
 2516W        W18325   1.417  12.016  11.841  0.1121  0.2300  0.0210
 2517W        W18326   8.955   5.980   1.693 -0.1192 -0.1078 -0.2890
 2518W        W18327   1.263   5.630  15.000 -0.4200  0.3754 -0.2974
 2519W        W18328   9.683  11.695   4.273  0.0765 -0.0384  0.1124
 2520W        W18329  10.431  10.535   1.428 -0.1762  0.0026 -0.0535
 2521W        W18330   0.827   1.149  15.195  0.0971  0.0799  0.2641
 2522W        W18331   5.631   4.230  13.764  0.1554 -0.3453 -0.0793
 2523W        W18332  13.013  10.308  12.515 -0.2743 -0.2476 -0.1828
 2524W        W18333   1.300  14.616  15.466  0.1182  0.2197 -0.1273
 2525W        W18334   6.170   8.590  13.202 -0.1717  0.1553  0.2570
 2526W        W18335  12.798  12.736  14.867  0.0884 -0.1651 -0.0854
 2527W        W18336   4.393  16.486   0.667 -0.0562  0.1246 -0.0916
 2528W        W18337   6.814  10.882   4.338 -0.1099  0.1252 -0.2424
 2529W        W18338   3.988  12.051   4.703 -0.1762 -0.0312 -0.1768
 2530W        W18339   3.060   0.396  14.021  0.2432 -0.0607  0.2275
 2531W        W18340  10.587  17.593  13.006 -0.0894  0.1608  0.3948
 2532W        W18341   2.493  14.290   3.673 -0.1293  0.2198  0.0234
 2533W        W18342   4.527  17.009  15.499  0.0910 -0.0655 -0.1668
 2534W        W18343   2.399   3.850   2.417 -0.0032 -0.2101  0.1940
 2535W        W18344   9.290  14.903  14.382  0.1396 -0.0010 -0.1003
 2536W        W18345   0.993  14.296   0.191 -0.2765 -0.2290 -0.0886
 2537W        W18346   1.977   5.702  15.742 -0.0037 -0.1817 -0.2651
 2538W        W18347   1.295   2.801  10.868 -0.1378 -0.1430 -0.2557
 2539W        W18348  10.662   1.425   4.409 -0.0999  0.1479  0.0540
 2540W        W18349  12.771  17.248   5.839  0.3759  0.0840 -0.0256
 2541W        W18350   1.249  15.694  12.277  0.2147 -0.0552 -0.1098
 2542W        W18351  14.364  17.520   3.030  0.2168  0.0486 -0.2158
 2543W        W18352   9.080   8.712   3.741 -0.0182  0.0475  0.1577
 2544W        W18353   3.810   4.013   1.998 -0.2239  0.0472 -0.1709
 2545W        W18354  12.748   7.098  15.949  0.3470  0.3006 -0.2202
 2546W        W18355   2.712   6.074  13.448 -0.2727 -0.2856 -0.1089
 2547W        W18356  16.985  11.546   6.181 -0.2027 -0.1742 -0.1338
 2548W        W18357  17.331   0.270   2.485  0.2241 -0.0068 -0.0111
 2549W        W18358  17.012  15.548  11.452  0.0206  0.3634  0.4995
 2550W        W18359   6.527  10.371   5.126 -0.0962  0.1592 -0.0050
 2551W        W18360  17.264  17.578   5.367  0.0977  0.1064  0.1645
 2552W        W18361   0.126  11.859   5.090  0.1392 -0.0310  0.0916
 2553W        W18362   7.975   9.994   2.861 -0.1447  0.0143 -0.3140
 2554W        W18363  17.866  12.457   0.118 -0.0811 -0.2886 -0.0948
 2555W        W18364   2.490   9.867  14.929  0.0689  0.0026  0.0400
 2556W        W18365  16.096  12.516  13.418  0.1477 -0.1266  0.0055
 2557W        W18366  16.209   8.682   1.548  0.1505 -0.1537 -0.1118
 2558W        W18367  13.873   4.158  12.060 -0.1076  0.2935  0.0659
 2559W        W18368  13.527   5.547  14.000 -0.2601 -0.3145 -0.2759
 2560W        W18369  14.852   4.751  11.608  0.0725 -0.0828  0.1894
 2561W        W18370   6.629   9.769  15.813 -0.0897  0.1544  0.0514
 2562W        W18371   5.025   5.925   1.762  0.1234  0.0497 -0.1517
 2563W        W18372  10.567   3.478  12.367  0.1180 -0.0548 -0.2851
 2564W        W18373   5.929   9.516   3.842  0.2472 -0.4772 -0.6323
 2565W        W18374  17.862  16.090  16.504 -0.1834  0.4301  0.1500
 2566W        W18375  17.028  15.156  12.248  0.0504  0.2855  0.0269
 2567W        W18376  13.700   7.336  12.605 -0.1092 -0.1777 -0.2894
 2568W        W18377   2.572  17.769   1.969 -0.1155 -0.1268 -0.2343
 2569W        W18378   5.577   4.618  14.930 -0.1963 -0.0351  0.0343
 2570W        W18379  15.156  14.563   4.107  0.1617 -0.1958  0.0149
 2571W        W18380   6.136   2.153  12.747 -0.0874  0.1334  0.1695
 2572W        W18381   8.854  15.587  16.613 -0.0787  0.0115 -0.0628
 2573W        W18382   3.824  13.111  15.867 -0.1347  0.0121  0.1596
 2574W        W18383   4.884  11.980   0.612 -0.0092  0.0845 -0.3563
 2575W        W18384   6.012   9.097  13.930 -0.2266 -0.1711  0.0264
 2576W        W18385   8.903  15.973   3.039  0.0181  0.2113 -0.0133
 2577W        W18386  17.092  11.587   2.695 -0.1105  0.0628 -0.2241
 2578W        W18387  12.894  11.896  15.271  0.1864 -0.2257 -0.1544
 2579W        W18388   3.877  10.653   5.416  0.2482 -0.0881  0.0070
 2580W        W18389   9.100  13.406   4.917  0.1090 -0.3200 -0.1493
 2581W        W18390  16.080   2.122   0.208 -0.1676 -0.0950  0.0518
 2582W        W18391   2.066   2.302  11.775 -0.1370 -0.1029  0.1628
 2583W        W18392  15.126  17.578   5.154 -0.3602  0.1437 -0.0008
 2584W        W18393  13.919   4.803  16.264  0.2199 -0.0276  0.0498
 2585W        W18394  13.675   1.006   4.992  0.1487  0.0643 -0.2165
 2586W        W18395   9.279   5.186  14.292 -0.1487 -0.1293  0.0248
 2587W        W18396  16.736  13.887   4.189  0.0897 -0.0882  0.1505
 2588W        W18397   5.424   3.001   0.884  0.3425  0.2898 -0.3101
 2589W        W18398   4.391   7.804  16.693 -0.0239  0.2418  0.0622
 2590W        W18399   2.281   2.858   1.500 -0.0001 -0.0691  0.3012
 2591W        W18400   0.184   8.055  14.388  0.1596 -0.0658 -0.0542
 2592W        W18401   4.752   6.382  14.611 -0.1335 -0.3263  0.0369
 2593W        W18402  16.418   0.576   1.145 -0.2849  0.1539  0.0111
 2594W        W18403   9.655   2.438   0.422 -0.2466  0.2300 -0.4111
 2595W        W18404  16.561   4.321   3.200 -0.6086 -0.2213  0.0914
 2596W        W18405   6.628   5.029   4.766  0.1283  0.3724  0.1456
 2597W        W18406   8.883   6.905  15.363  0.1333  0.0946  0.0218
 2598W        W18407  12.840  16.954   1.451 -0.0318  0.2608  0.0331
 2599W        W18408   0.502   0.781   2.937  0.4054 -0.2724  0.1623
 2600W        W18409  14.362  13.928  16.136 -0.1637 -0.0754 -0.0676
 2601W        W18410  14.366  16.129  13.142 -0.1015  0.1844 -0.0582
 2602W        W18411   5.476   8.453  15.425  0.0517 -0.1203 -0.4612
 2603W        W18412  11.677   7.372   1.172 -0.0409 -0.3415 -0.2102
 2604W        W18413   4.933   2.821  11.987 -0.3924 -0.0201 -0.0656
 2605W        W18414  13.212   0.122   6.064  0.0425  0.1830  0.2291
 2606W        W18415  15.792   4.725  13.526  0.3241  0.0208  0.4044
 2607W        W18416   1.525  13.385  13.610  0.0462  0.0198 -0.1931
 2608W        W18417  13.866   8.323  14.613  0.1960 -0.0134  0.3129
 2609W        W18418  13.682   3.165  16.389  0.0323  0.3753  0.0335
 2610W        W18419  17.787   8.614  12.179  0.0672 -0.0900  0.2103
 2611W        W18420   2.413  13.717   6.368 -0.2308 -0.1108  0.2725
 2612W        W18421  12.777   9.312  16.460 -0.1201  0.1620 -0.0944
 2613W        W18422   7.807   2.644   2.487 -0.0266  0.0247 -0.2985
 2614W        W18423   5.121  16.357   1.548  0.0626  0.2229  0.2706
 2615W        W18424   8.327   1.229   2.099 -0.0027  0.2844  0.0332
 2616W        W18425  15.253   5.364  15.862  0.0201 -0.0756 -0.4031
 2617W        W18426  12.473  15.436   0.575 -0.2869  0.2315  0.0598
 2618W        W18427  16.231  11.413   1.571 -0.3129  0.2405  0.0587
 2619W        W18428   2.394  14.021   2.505  0.2499 -0.2998  0.0814
 2620W        W18429   9.346  16.518   1.440 -0.0438 -0.2216 -0.0648
 2621W        W18430  15.558  13.147  10.860  0.2048 -0.0560 -0.1361
 2622W        W18431   6.123   9.971  13.787  0.3789  0.0579  0.4156
 2623W        W18432  11.874   4.217   1.787 -0.2454 -0.2207 -0.2237
 2624W        W18433  15.804   9.078  10.569 -0.1155  0.0200 -0.0749
 2625W        W18434  10.857   3.164   5.714 -0.2027 -0.0392 -0.1223
 2626W        W18435  10.917  16.907  16.433 -0.0990 -0.0013  0.0093
 2627W        W18436  14.889  14.482  12.193 -0.0624 -0.1227  0.2596
 2628W        W18437   4.162   5.607  16.469 -0.0491  0.0689 -0.1597
 2629W        W18438  15.408   3.673   2.526 -0.1035 -0.0231  0.0591
 2630W        W18439   5.527   7.952  15.271 -0.4551  0.2320  0.1302
 2631W        W18440   5.060   5.909  15.691  0.0781 -0.0610 -0.0180
 2632W        W18441   7.694   8.229  16.691 -0.1351  0.1980 -0.1748
 2633W        W18442  11.586   3.498  14.828  0.0933 -0.0456 -0.0512
 2634W        W18443  11.616  17.188  14.610  0.1792 -0.1669  0.3810
 2635W        W18444   3.961   2.754  11.663 -0.0629  0.4937  0.0124
 2636W        W18445  16.152  10.106  14.344 -0.0348 -0.1446  0.2786
 2637W        W18446  14.333   3.341  16.430  0.1011 -0.0496 -0.1396
 2638W        W18447   1.880  10.705  14.779  0.3721  0.2433  0.2117
 2639W        W18448  16.820  16.217  15.389 -0.0752 -0.2229 -0.0461
 2640W        W18449  14.447   4.213  13.941  0.2271  0.0511  0.0641
 2641W        W18450   1.130  10.086   1.948 -0.3781  0.2171  0.1867
 2642W        W18451  15.176   3.178  11.784  0.0436  0.1349  0.0060
 2643W        W18452  11.944  17.503  11.380 -0.2802  0.2314  0.0637
 2644W        W18453  14.855  13.172   0.823 -0.1792  0.4376  0.3219
 2645W        W18454   4.388   7.959  12.689 -0.1838 -0.1151 -0.2480
 2646W        W18455  11.066   0.999  15.050 -0.2422 -0.0093 -0.2291
 2647W        W18456  16.778   3.134   1.479 -0.2382 -0.0823 -0.0696
 2648W        W18457  11.288   8.180   3.658  0.1526 -0.0136  0.2932
 2649W        W18458  16.801   2.660  13.194 -0.1819  0.1831  0.0135
 2650W        W18459   9.196  10.003   0.110  0.0178  0.1100 -0.0658
 2651W        W18460   2.758   6.116  14.983 -0.0216 -0.0149  0.3304
 2652W        W18461   3.403   1.478  10.144  0.0765  0.2771 -0.2191
 2653W        W18462  11.532   0.099   1.162 -0.5766  0.1181  0.2013
 2654W        W18463  15.872   2.261  12.676 -0.0091 -0.1885  0.1161
 2655W        W18464  16.078   7.902   4.426  0.0652  0.3612  0.1791
 2656W        W18465  16.929   8.053   5.287 -0.1463  0.1800  0.0770
 2657W        W18466   7.349   3.482   1.239  0.0081  0.4982  0.0337
 2658W        W18467   6.339  11.288  11.669 -0.0182  0.0083 -0.0157
 2659W        W18468   1.868   7.981   4.031 -0.1853  0.0203  0.0005
 2660W        W18469   0.922  15.647  15.144 -0.2479  0.0015  0.0772
 2661W        W18470   6.966   6.172  12.351 -0.0695  0.1914  0.0147
 2662W        W18471  13.143  13.921  13.443  0.1786 -0.3486 -0.0312
 2663W        W18472  13.921  10.224  14.527 -0.1544 -0.1611 -0.0294
 2664W        W18473  12.367   4.347   4.408 -0.2235  0.0415 -0.2285
 2665W        W18474   5.655  10.003   2.101  0.2117 -0.0519 -0.2606
 2666W        W18475  10.932  15.996   6.606 -0.0330 -0.2543  0.4811
 2667W        W18476   3.506   8.757   2.961 -0.2728 -0.0869 -0.2065
 2668W        W18477   6.099   9.266  14.440  0.2119 -0.1671  0.0967
 2669W        W18478   1.029  14.941   4.457  0.1532  0.1080 -0.1516
 2670W        W18479  12.331   5.136   2.950  0.2958  0.1700  0.1639
 2671W        W18480  11.110  10.907   0.466  0.0640 -0.0938  0.0460
 2672W        W18481  11.666   2.737  13.014 -0.0145 -0.2668  0.2665
 2673W        W18482   7.684  17.171   4.960  0.0537 -0.0913 -0.0932
 2674W        W18483  10.953  11.298  15.018 -0.1715 -0.0904 -0.0648
 2675W        W18484   0.480   8.947  14.832  0.0133  0.2693 -0.1492
 2676W        W18485  11.430   0.276  12.746 -0.2229  0.0940 -0.1831
 2677W        W18486  11.368   0.482   1.488 -0.1703 -0.1587  0.2713
 2678W        W18487  14.418  12.042   3.878  0.1760 -0.3037 -0.2056
 2679W        W18488   1.313   5.290  11.930 -0.0016 -0.2531  0.1438
 2680W        W18489   7.003   8.438   1.105  0.2959  0.3115  0.1397
 2681W        W18490   5.387   5.946   1.011  0.1024 -0.0350 -0.1131
 2682W        W18491  17.372   6.130   4.871  0.1720 -0.1250  0.0030
 2683W        W18492   1.858   6.715   4.157 -0.2283  0.0936  0.0343
 2684W        W18493  15.758   0.619   5.227 -0.1983  0.0127  0.0417
 2685W        W18494   1.004   7.912  12.169  0.0405  0.1530  0.1163
 2686W        W18495   5.506   6.723  14.485  0.1117 -0.1744 -0.1130
 2687W        W18496   2.293   7.240  13.712  0.2073 -0.1569  0.0751
 2688W        W18497   3.796  16.996   2.908 -0.0633 -0.1019  0.1438
 2689W        W18498   0.802  12.961  15.895  0.2254  0.1186 -0.0113
 2690W        W18499   6.864  12.673   1.448  0.5233 -0.2223 -0.1689
 2691W        W18500   9.492  12.074   2.080  0.4111  0.2699  0.1352
 2692W        W18501  10.011   3.127  12.937  0.2317 -0.2059 -0.0814
 2693W        W18502   6.956  11.242   0.541 -0.0476 -0.0794 -0.2112
 2694W        W18503   4.132   0.926   4.031  0.1426  0.0208 -0.1686
 2695W        W18504  12.626   7.994   1.394 -0.1214 -0.1414 -0.0211
 2696W        W18505   9.823   6.111  12.728  0.0236 -0.2512 -0.2849
 2697W        W18506  16.118  14.312  13.557  0.0095 -0.0433  0.1565
 2698W        W18507   3.987   1.056   3.480 -0.1108 -0.0813  0.0940
 2699W        W18508   3.218   1.062  16.454 -0.0413  0.0473 -0.1133
 2700W        W18509  13.807  14.760   2.099  0.0049  0.0871 -0.1839
 2701W        W18510   4.213   8.746  11.594 -0.2301 -0.1890  0.1427
 2702W        W18511   8.040   4.202   3.322  0.0633  0.0111  0.3188
 2703W        W18512  14.217   3.772   1.540 -0.1464 -0.0527  0.0046
 2704W        W18513   8.498  11.880  14.317 -0.3008  0.0711 -0.0123
 2705W        W18514   3.966   2.037  14.226 -0.3172  0.0040  0.0096
 2706W        W18515   4.669  11.456  15.811 -0.1174  0.0899 -0.2694
 2707W        W18516   9.357   8.558   3.313 -0.2425 -0.3035 -0.0582
 2708W        W18517   8.328   0.352   2.561 -0.1289  0.3522  0.2379
 2709W        W18518   1.557  13.853   5.033 -0.2958  0.1012 -0.1120
 2710W        W18519  15.991   4.511   4.788  0.1253  0.0608 -0.0947
 2711W        W18520   1.863   5.429  14.870  0.0982  0.1461  0.4543
 2712W        W18521  15.171  17.021  15.219  0.2084 -0.1093  0.2920
 2713W        W18522   7.082   7.111  15.131  0.2592  0.1664 -0.1167
 2714W        W18523   7.679  16.162  12.627 -0.2102 -0.1487  0.2628
 2715W        W18524   2.040  17.536   2.798  0.2629  0.0059  0.1511
 2716W        W18525   2.018  15.198  11.776 -0.0132 -0.1285  0.0561
 2717W        W18526  11.950   2.829   3.024  0.0931  0.1010 -0.1004
 2718W        W18527  10.181   3.260   4.452 -0.1726 -0.3991  0.2660
 2719W        W18528  16.840  11.069   2.658 -0.0842  0.1150  0.1441
 2720W        W18529   2.502   7.029  11.216 -0.1885 -0.1325 -0.0120
 2721W        W18530   0.275   8.981  13.475  0.0957 -0.1734  0.1128
 2722W        W18531  17.850   5.431  13.863  0.4097 -0.1903 -0.1458
 2723W        W18532   3.803  13.020  13.659 -0.1269 -0.0242  0.0634
 2724W        W18533   3.220  11.303   5.288  0.1514  0.2074 -0.1524
 2725W        W18534  15.830  13.710  13.486 -0.2189  0.0365  0.0530
 2726W        W18535  14.595   6.343   5.058  0.2413 -0.3441 -0.1094
 2727W        W18536  13.534  15.200   0.309  0.0176  0.1385  0.0015
 2728W        W18537   7.374   6.024  12.062  0.0321 -0.1628 -0.1283
 2729W        W18538  12.804  13.350   5.133 -0.0789 -0.0039  0.1721
 2730W        W18539  13.708  14.295   4.979  0.0900 -0.1474  0.2030
 2731W        W18540   1.590  13.474   5.317 -0.0225 -0.1108 -0.1373
 2732W        W18541  17.403   1.115   2.512 -0.0646  0.0686 -0.0375
 2733W        W18542  17.310   0.684  14.046 -0.0254  0.0815  0.2364
 2734W        W18543   6.825   2.692   5.470  0.1780  0.1331  0.0877
 2735W        W18544   5.556   9.488  12.565  0.1027  0.3284 -0.2479
 2736W        W18545  15.630  15.334  14.404 -0.0357 -0.1967  0.0615
 2737W        W18546  12.092   4.570   2.295 -0.1054  0.1286  0.0308
 2738W        W18547   4.339  13.311   0.119 -0.1246 -0.2100  0.4419
 2739W        W18548   1.092   7.363   2.510  0.1693  0.2831 -0.1674
 2740W        W18549   8.277   1.128  12.699 -0.1207  0.0927 -0.1037
 2741W        W18550  15.248  13.574  16.425  0.0837 -0.1133 -0.0642
 2742W        W18551   3.636   2.951  16.152  0.2258 -0.2173  0.1897
 2743W        W18552  13.746  10.909  13.735 -0.0685 -0.0035  0.0196
 2744W        W18553  17.234  15.562  12.544  0.1192  0.2409  0.1595
 2745W        W18554   1.621  16.281  15.000  0.0578  0.1234  0.0267
 2746W        W18555   5.642  11.076  11.743  0.2570  0.0981  0.2648
 2747W        W18556  15.792  15.796  15.369  0.1731 -0.0709  0.3805
 2748W        W18557   8.137  15.294  14.561  0.0644  0.2455 -0.0775
 2749W        W18558   2.157   5.325   5.593 -0.6544  0.0271  0.0495
 2750W        W18559   7.378   7.741   4.889 -0.1813  0.1321 -0.1915
 2751W        W18560  14.120   9.885   4.777  0.1893 -0.1975 -0.2851
 2752W        W18561   8.194   6.156  11.862 -0.3244 -0.1142 -0.0215
 2753W        W18562   3.814  16.671   2.007 -0.1160 -0.0159  0.1775
 2754W        W18563   5.169   5.354   3.943  0.2525  0.0225  0.0453
 2755W        W18564  12.421  13.412   6.170  0.0269 -0.1503 -0.1270
 2756W        W18565   6.550  10.695   5.518  0.0378 -0.2580 -0.2493
 2757W        W18566   7.459  10.049  12.422 -0.1060 -0.1667 -0.2765
 2758W        W18567   2.799  17.888   2.403  0.1584 -0.0252 -0.1296
 2759W        W18568   8.153   3.208  13.379  0.1716 -0.1061 -0.0646
 2760W        W18569   8.694   6.682  14.917 -0.0301  0.1821 -0.1136
 2761W        W18570  10.986   7.510   4.520 -0.0291  0.1796 -0.1909
 2762W        W18571   3.918   9.632   0.727 -0.2516  0.2230 -0.2526
 2763W        W18572   8.133   8.969   3.257  0.0661  0.2595  0.0026
 2764W        W18573  12.240  16.605   2.524  0.0504  0.0651  0.1748
 2765W        W18574  10.396   5.760  16.530  0.1406  0.3675  0.1855
 2766W        W18575   0.099  13.971   4.231 -0.2011  0.0122  0.0755
 2767W        W18576   2.131   0.466   0.189  0.0290  0.4058  0.0302
 2768W        W18577  15.149   2.647  15.661 -0.1041  0.1336  0.2020
 2769W        W18578  16.539  11.888  16.349  0.0734 -0.1729 -0.0997
 2770W        W18579   6.938   4.472  11.814  0.0661 -0.2483  0.0174
 2771W        W18580   5.539   9.439   5.695  0.2908  0.1718 -0.1319
 2772W        W18581   1.240   2.516  16.155  0.3214  0.2064  0.3577
 2773W        W18582  15.200  17.504  13.956 -0.2627 -0.0758  0.1434
 2774W        W18583  10.862   1.889   3.491  0.1608 -0.0413 -0.0484
 2775W        W18584  10.529  11.475   3.128 -0.0723 -0.1441  0.1840
 2776W        W18585   5.040  11.108  14.526 -0.4053 -0.2086  0.4525
 2777W        W18586   9.587  11.544  12.142 -0.0719 -0.1430 -0.0716
 2778W        W18587  11.040  11.258  12.599  0.1664 -0.3168 -0.4516
 2779W        W18588   2.030   2.590  13.510  0.0623  0.1224  0.1122
 2780W        W18589  16.293  17.606   6.547 -0.2634  0.1054  0.3231
 2781W        W18590   1.674   8.333  16.049 -0.3001 -0.0713  0.2204
 2782W        W18591  12.156   5.551   3.233  0.0107  0.0350  0.4144
 2783W        W18592  16.364   8.668   0.460  0.1320  0.1329 -0.0303
 2784W        W18593   7.981  12.199   0.484 -0.1470  0.1057  0.1174
 2785W        W18594  11.867   2.192   2.295 -0.1578  0.0308 -0.2261
 2786W        W18595   5.181  11.604  14.237  0.5250  0.2241  0.0259
 2787W        W18596   4.811   9.523   4.628 -0.0133  0.0296  0.1809
 2788W        W18597   5.036  13.077  11.905 -0.1067  0.2552  0.1313
 2789W        W18598  15.055  16.571  14.879 -0.0600 -0.3094  0.4275
 2790W        W18599  17.304   8.652  16.667 -0.4128 -0.1265 -0.2121
 2791W        W18600   1.563   0.656  14.513 -0.0605  0.1156  0.2458
 2792W        W18601  15.407   8.694  15.540  0.2824 -0.1689  0.1546
 2793W        W18602   2.119  15.435   3.330  0.0175 -0.2524  0.4026
 2794W        W18603  15.164   6.311   6.423  0.0801 -0.2054  0.1454
 2795W        W18604   4.105  15.110   1.840  0.4470  0.0962  0.0506
 2796W        W18605   7.408   5.413  11.922 -0.0292 -0.0702 -0.0069
 2797W        W18606   7.858  10.841  16.289 -0.0419  0.2504  0.1548
 2798W        W18607   9.506  14.637   4.372 -0.1951  0.0069  0.0182
 2799W        W18608  10.721   8.703   3.609 -0.1777 -0.1161 -0.0135
 2800W        W18609   5.733  14.540  13.076  0.1306  0.4134 -0.0568
 2801W        W18610  14.088  16.352  11.612 -0.2685  0.2439 -0.1587
 2802W        W18611   3.418   5.349  12.228 -0.1099 -0.0815 -0.0637
 2803W        W18612  10.177  12.854  12.814  0.2975  0.2802 -0.2253
 2804W        W18613   9.962   9.227  16.264  0.0193  0.0821  0.0129
 2805W        W18614   4.760  16.421   0.989  0.0761  0.2314  0.0126
 2806W        W18615   5.095   1.492   0.132 -0.1149  0.2394 -0.1163
 2807W        W18616   5.416  17.260   3.940  0.1883 -0.2379  0.1496
 2808W        W18617  12.976  13.061  13.973  0.1176  0.1738 -0.0490
 2809W        W18618  16.516  15.115   1.879  0.2606 -0.3191 -0.3176
 2810W        W18619   8.166  14.327   3.874  0.0991  0.0483  0.0987
 2811W        W18620   6.947   0.706   2.152  0.0054  0.2068 -0.0771
 2812W        W18621   7.743  10.718   0.944  0.4410 -0.3458 -0.3165
 2813W        W18622  11.777   8.450   5.198 -0.0582  0.1788  0.1002
 2814W        W18623   0.024   3.897  11.431  0.0640 -0.0332  0.1820
 2815W        W18624  15.909  15.207   2.320 -0.0211 -0.1699 -0.0898
 2816W        W18625   4.068   1.250  14.225  0.0597 -0.2743  0.0401
 2817W        W18626   0.130   5.689   1.167 -0.1282 -0.1131 -0.0237
 2818W        W18627  10.464   0.065   1.399  0.2012 -0.2520 -0.0552
 2819W        W18628   2.263   2.311   9.964 -0.0229  0.3333  0.0694
 2820W        W18629   1.830  16.653   3.508 -0.0379  0.2294  0.0752
 2821W        W18630   0.250   7.720  15.445 -0.0457 -0.1599  0.0001
 2822W        W18631   0.542  11.307   0.244  0.0473 -0.0699  0.2414
 2823W        W18632  16.780   5.994  13.486 -0.1245  0.0735 -0.0537
 2824W        W18633  10.446  15.117  16.246 -0.2547 -0.0849 -0.0365
 2825W        W18634   2.615   1.841   1.327  0.2337  0.0505  0.2893
 2826W        W18635   5.135  15.745   4.203 -0.2117 -0.0265 -0.0318
 2827W        W18636  17.041  12.452   4.107 -0.3248  0.1934  0.0735
 2828W        W18637   7.919   5.666   2.754 -0.1690 -0.1379 -0.0317
 2829W        W18638   8.363  15.448  16.477  0.2217 -0.2210 -0.0087
 2830W        W18639  11.848   7.335  12.011 -0.0494  0.1839  0.3614
 2831W        W18640  16.013   1.815  12.524  0.2033 -0.2565  0.2999
 2832W        W18641  17.274   6.493  13.261  0.3843  0.1018  0.0978
 2833W        W18642  10.388  11.585  14.007 -0.2047  0.1049  0.0321
 2834W        W18643  11.826   5.047  11.939  0.3366  0.3289  0.0530
 2835W        W18644   0.401  11.537   3.506 -0.0311 -0.2204 -0.1143
 2836W        W18645  12.303   5.823   1.854 -0.1139 -0.0108 -0.2750
 2837W        W18646   0.414  15.278  11.036 -0.0473  0.0074 -0.0655
 2838W        W18647   7.844  17.732   2.642  0.0089 -0.0234  0.1672
 2839W        W18648  13.166  13.686   1.741 -0.2394 -0.0405  0.1958
 2840W        W18649   1.044   4.273   2.516 -0.1615  0.4422  0.0438
 2841W        W18650   2.624  12.326   3.196  0.2290  0.0531  0.0960
 2842W        W18651  13.768  17.575   5.511  0.0358  0.2540  0.2499
 2843W        W18652   1.717  11.585   5.535  0.1696  0.1203  0.0408
 2844W        W18653  17.781  11.794  13.132 -0.1344  0.0903  0.2896
 2845W        W18654  11.057   1.932  15.216 -0.4342 -0.1320 -0.3151
 2846W        W18655  11.773  11.160   4.663 -0.0186 -0.1923 -0.0288
 2847W        W18656  10.545  11.284   5.369 -0.1113  0.1043 -0.3701
 2848W        W18657  11.483   5.099   2.901  0.0273 -0.1905 -0.1110
 2849W        W18658   1.164  15.928  14.358  0.0475 -0.0706  0.1472
 2850W        W18659   6.883   5.583  13.896  0.1534  0.1129  0.1216
 2851W        W18660  17.857  12.701   5.352 -0.3042 -0.2058  0.0781
 2852W        W18661   2.167   2.154   4.406  0.0590 -0.0388  0.0720
 2853W        W18662  10.970  17.844  15.034 -0.1043 -0.1035 -0.0506
 2854W        W18663   7.041  15.626   3.825 -0.0041  0.2649  0.3217
 2855W        W18664  14.724   2.746   1.396  0.1657 -0.1267 -0.1231
 2856W        W18665  11.042   7.042   2.682  0.3381  0.2781 -0.1259
 2857W        W18666  11.279   8.463   5.208  0.1291 -0.0345  0.2132
 2858W        W18667   8.514  13.171  16.468  0.3018  0.1096 -0.1983
 2859W        W18668   7.310   0.513  14.816  0.0796 -0.2473  0.1480
 2860W        W18669  14.241   2.276   0.405  0.0646 -0.0067 -0.3500
 2861W        W18670  15.072   8.124   4.801 -0.0388  0.1794 -0.0003
 2862W        W18671   9.949   0.485  12.141 -0.0257 -0.0029 -0.1398
 2863W        W18672  14.705   3.002   2.798 -0.4366 -0.0459  0.3743
 2864W        W18673  15.960  17.785  11.799  0.0561  0.1864  0.0914
 2865W        W18674   1.023  14.507  11.691  0.0594  0.0383  0.2392
 2866W        W18675  17.915   7.160  13.478 -0.0795  0.4006  0.2673
 2867W        W18676   9.926   6.404  13.310  0.1379  0.1273  0.2120
 2868W        W18677  11.723  10.408  10.806 -0.2775 -0.1337 -0.0508
 2869W        W18678   9.667   7.414   3.302  0.0967 -0.0316 -0.0198
 2870W        W18679   6.690   5.757   4.059 -0.0785 -0.0823 -0.1112
 2871W        W18680  12.590   7.174   4.740 -0.1160  0.0152  0.0374
 2872W        W18681   2.726  10.803   4.219 -0.2397 -0.2551 -0.2718
 2873W        W18682   8.426   2.861  16.393 -0.1524 -0.2028  0.0023
 2874W        W18683  13.738   2.715  11.952  0.1725 -0.0764 -0.0966
 2875W        W18684   3.333   1.754   1.672  0.2750  0.1193  0.2225
 2876W        W18685  11.510  10.757   2.806  0.1444 -0.0884 -0.1443
 2877W        W18686  17.385   1.523   2.147 -0.1860 -0.0529  0.1461
 2878W        W18687   8.171  12.839  16.095 -0.1464  0.0758  0.3913
 2879W        W18688  13.337  12.501  16.295 -0.0720 -0.3137 -0.2536
 2880W        W18689   3.120  12.201   1.136 -0.1667  0.0162  0.2335
 2881W        W18690  10.325  17.404   1.522  0.1031  0.0516 -0.1003
 2882W        W18691  13.582   7.575   0.776  0.1471 -0.0090 -0.2175
 2883W        W18692   0.648  16.412  16.457 -0.0170  0.0522 -0.0971
 2884W        W18693   7.664   7.069   0.858 -0.0413  0.0757  0.0458
 2885W        W18694  11.200   1.579   2.725  0.1347 -0.0691 -0.3579
 2886W        W18695   1.643  17.025   2.808 -0.1014 -0.0671  0.1985
 2887W        W18696  10.322   2.677  14.068 -0.1172 -0.1420 -0.0187
 2888W        W18697  15.632  16.453   3.560  0.1339  0.1784  0.1933
 2889W        W18698  16.984  13.569   1.182  0.2798  0.2147 -0.1635
 2890W        W18699   3.506   6.983  12.470 -0.3069  0.1963 -0.1560
 2891W        W18700   6.295   7.598   0.659 -0.0093  0.0728  0.2488
 2892W        W18701   6.689   9.824   3.275  0.1059  0.0863 -0.1835
 2893W        W18702   5.314  10.184  13.870 -0.1670 -0.2010 -0.1158
 2894W        W18703   8.868   9.725   0.413 -0.2177  0.0166  0.0991
 2895W        W18704   3.625   5.417  13.870  0.2997  0.0643  0.1569
 2896W        W18705  16.669  14.149  14.769  0.2609 -0.2870 -0.0505
 2897W        W18706  15.832  11.106  12.891 -0.0089  0.2515 -0.2692
 2898W        W18707   8.742   3.230  12.182  0.2489 -0.4153  0.2741
 2899W        W18708   9.444   1.646  13.949 -0.1922  0.0404 -0.0090
 2900W        W18709   9.374   7.487   1.938 -0.0531  0.2981 -0.2205
 2901W        W18710   8.125  13.038   4.922 -0.1237 -0.1081  0.2676
 2902W        W18711   6.016   0.532  13.526 -0.0040  0.1500 -0.0802
 2903W        W18712   2.796   3.338  14.259 -0.3034  0.1620 -0.0438
 2904W        W18713  11.701   4.173   2.212 -0.0494  0.0752 -0.0044
 2905W        W18714   9.109   1.891  13.461 -0.2268 -0.3056  0.0348
 2906W        W18715   4.628   4.321  14.123 -0.0886  0.1056 -0.0563
 2907W        W18716   2.815  16.810  15.086 -0.0077 -0.2417 -0.1211
 2908W        W18717  16.974   1.495   1.872  0.1802  0.1159 -0.1201
 2909W        W18718  15.942   2.509   1.376  0.2737 -0.2443 -0.0384
 2910W        W18719   9.306   1.317   0.667 -0.2020 -0.0772  0.3634
 2911W        W18720  13.946  15.931  12.804  0.1833 -0.2294  0.1393
 2912W        W18721   1.508   9.141   4.563 -0.2598  0.0776  0.1311
 2913W        W18722   2.690   0.542  13.683  0.1587  0.1570  0.1852
 2914W        W18723  12.630  10.064   4.923  0.1347 -0.2353  0.0583
 2915W        W18724  17.079   7.989  16.651  0.0025 -0.0732 -0.3190
 2916W        W18725  11.907  16.051   6.525  0.0702  0.1740  0.1101
 2917W        W18726  10.088   3.401  16.051 -0.0702 -0.1701  0.0268
 2918W        W18727  17.316   5.238  16.644  0.0954 -0.0046  0.1657
 2919W        W18728  10.365   7.291   2.947 -0.1649 -0.0669 -0.1898
 2920W        W18729   6.004  16.765  14.420  0.2251 -0.2540  0.0583
 2921W        W18730  17.775  14.817  12.721  0.0088  0.0863  0.1879
 2922W        W18731  14.501   9.180   0.286 -0.5127 -0.3094  0.1229
 2923W        W18732  13.426   4.208  14.403 -0.0152 -0.0425  0.1615
 2924W        W18733  12.904   6.677  11.776  0.3338 -0.1741 -0.2341
 2925W        W18734   0.809   1.100  16.059  0.0319 -0.1376 -0.0016
 2926W        W18735  13.193   9.097   1.524  0.0692 -0.0552 -0.0326
 2927W        W18736  15.105   0.904   4.314  0.2101 -0.3161  0.0991
 2928W        W18737  15.352  11.554  12.644  0.1141  0.0840  0.3056
 2929W        W18738   6.261  10.022   1.849 -0.0092 -0.1924 -0.0998
 2930W        W18739   9.788  14.680  14.488  0.1492 -0.2693 -0.2355
 2931W        W18740  10.388   6.586   4.077 -0.1166 -0.0409  0.2855
 2932W        W18741   8.320   6.598  13.707 -0.1719  0.1598  0.0471
 2933W        W18742   8.759   1.426  12.773 -0.1387 -0.1839  0.1819
 2934W        W18743   2.459   1.791   2.768 -0.4432 -0.0122  0.0037
 2935W        W18744  17.707  17.146  14.821  0.0430 -0.1209  0.2144
 2936W        W18745   8.980   4.079  12.340 -0.0285 -0.0856  0.1777
 2937W        W18746  16.600   0.564  16.007 -0.2249  0.2192 -0.0977
 2938W        W18747  10.693  13.644  15.125 -0.0407 -0.0832 -0.0744
 2939W        W18748   0.287   3.534  11.563 -0.0664 -0.2830  0.1017
 2940W        W18749  12.898  10.035   5.494  0.1588 -0.0577  0.1039
 2941W        W18750   8.966   9.820   6.189  0.1006  0.0597 -0.1719
 2942W        W18751  15.651   2.447   4.311 -0.1839 -0.0837 -0.2285
 2943W        W18752   3.896  14.553   4.632 -0.1612  0.3214  0.0802
 2944W        W18753   3.754   1.775  15.418  0.0183  0.0718  0.1695
 2945W        W18754  10.560   3.043  12.085  0.0191  0.0810  0.0475
 2946W        W18755  10.354  16.095   1.711  0.0836 -0.2366  0.1013
 2947W        W18756  16.855  15.978   2.832 -0.0400  0.2052  0.1647
 2948W        W18757   4.821   5.932  14.370 -0.3164 -0.0197 -0.2983
 2949W        W18758   9.010   5.152  12.720 -0.1526 -0.0158  0.0369
 2950W        W18759   0.052   6.728  13.847  0.1234  0.2603 -0.2356
 2951W        W18760  17.546  14.555  11.704  0.4165 -0.1742  0.1721
 2952W        W18761   5.372  16.235  15.629 -0.1617 -0.0765  0.1532
 2953W        W18762   0.184  17.178  12.143 -0.0752  0.0003  0.0709
 2954W        W18763   2.940   5.866   1.455 -0.1406  0.1844  0.1308
 2955W        W18764  12.062  12.726  13.695  0.0554 -0.0600 -0.4308
 2956W        W18765  15.428   1.251   4.270  0.2482 -0.0494  0.0751
 2957W        W18766  17.158   3.564  16.432 -0.2202 -0.2174 -0.0405
 2958W        W18767   7.417  13.758  14.950  0.1551 -0.2047 -0.1937
 2959W        W18768   3.866   7.390  13.962  0.0812 -0.1472  0.0287
 2960W        W18769  13.224  17.369   3.915  0.1285  0.1583 -0.2958
 2961W        W18770   1.751  11.706   3.818 -0.1426 -0.2396  0.1878
 2962W        W18771   5.385  16.822   0.402 -0.1494 -0.0444  0.0279
 2963W        W18772   2.006   3.402   0.732 -0.0185 -0.0420  0.2297
 2964W        W18773   8.951   8.428  16.615 -0.2532  0.0553 -0.3151
 2965W        W18774   5.926  12.452   1.315 -0.0053 -0.3226 -0.0384
 2966W        W18775  16.094   6.642  16.093  0.0704  0.0339 -0.0006
 2967W        W18776  12.770  16.293  15.314  0.3415  0.2322 -0.1904
 2968W        W18777  12.372   9.257  14.035 -0.1358  0.2981  0.1360
 2969W        W18778   2.963   9.623   0.974  0.0401 -0.1372 -0.2372
 2970W        W18779  12.721   3.409  16.211 -0.3143  0.0321  0.0804
 2971W        W18780   9.327   7.508  16.550  0.1736  0.0076  0.2587
 2972W        W18781   4.219   2.349   0.170 -0.3118  0.2593 -0.3952
 2973W        W18782   1.693  16.484  11.518  0.0258  0.2545 -0.0073
 2974W        W18783  10.005   4.681  15.847 -0.0827  0.1316  0.1842
 2975W        W18784  15.912   1.535   4.040 -0.1342 -0.1967 -0.2357
 2976W        W18785  14.798  15.428   1.558 -0.3719 -0.0305  0.0899
 2977W        W18786   1.535  16.561   0.352  0.0103 -0.0887  0.1662
 2978W        W18787  13.195  16.708   0.134 -0.0621 -0.0700 -0.0722
 2979W        W18788  14.567   8.954  12.102  0.1092  0.1391 -0.1753
 2980W        W18789   8.679  13.723   4.955 -0.0855 -0.1829 -0.0330
 2981W        W18790  11.711   2.109  12.832  0.0285  0.0422 -0.0135
 2982W        W18791  17.334   4.976   1.237 -0.0442 -0.0407  0.1562
 2983W        W18792  14.802   2.324   2.197  0.0012 -0.0619 -0.2509
 2984W        W18793  16.314  11.030   4.306  0.0539 -0.0913  0.3146
 2985W        W18794  10.942   8.258  16.439  0.0921 -0.0597 -0.1304
 2986W        W18795   5.923   1.650  16.281  0.0894  0.1676 -0.0326
 2987W        W18796   2.285  10.242   1.162  0.1205 -0.1558 -0.0288
 2988W        W18797  13.314  15.392  13.219  0.0293 -0.1221 -0.3059
 2989W        W18798  13.769   6.038  13.366  0.0074 -0.1496  0.4965
 2990W        W18799   7.135  16.309   0.202 -0.0944 -0.2845  0.1349
 2991W        W18800   9.608   5.848   3.831 -0.1272 -0.0348  0.1779
 2992W        W18801  16.155   8.361  14.432  0.1851  0.0998 -0.2235
 2993W        W18802  10.141  10.160   2.943  0.0363  0.0470 -0.1508
 2994W        W18803  13.870   2.014  15.517 -0.0059  0.2317 -0.0787
 2995W        W18804   4.195  15.482   2.862  0.0259 -0.1757 -0.3209
 2996W        W18805   0.493   8.593   2.939  0.2267 -0.3623  0.0139
 2997W        W18806  16.268   4.391  15.572 -0.1315  0.0050  0.0727
 2998W        W18807   2.010  12.333   0.186  0.0738 -0.2860 -0.3225
 2999W        W18808   0.117   1.476  13.863  0.1093  0.0828 -0.2128
 3000W        W18809   1.704  10.689  13.916 -0.0329 -0.0784 -0.0690
 3001W        W18810  16.573  16.291  12.608 -0.1836 -0.1140  0.1414
 3002W        W18811  15.110  15.977  16.056  0.0119 -0.0089  0.0739
 3003W        W18812   1.305  14.288   5.123  0.1584 -0.0173 -0.0685
 3004W        W18813  10.821  13.394   5.127 -0.1043 -0.1373 -0.4892
 3005W        W18814   7.485   3.149   2.875  0.0190  0.0968  0.4812
 3006W        W18815  15.861   3.443  14.719  0.0822  0.0624  0.3718
 3007W        W18816   9.690  10.225   0.088  0.1099  0.0276  0.1668
 3008W        W18817   9.930  12.415  16.637 -0.0033  0.2583 -0.1223
 3009W        W18818  16.830   7.951  11.460  0.0874 -0.1782 -0.0753
 3010W        W18819  17.673   8.117  11.164 -0.2709 -0.2502  0.0854
 3011W        W18820   0.359   4.468  15.396  0.3304 -0.1552 -0.0720
 3012W        W18821  14.316   8.697   1.346  0.2216 -0.0338 -0.1895
 3013W        W18822  14.573   0.718   5.270 -0.0680  0.0437 -0.1995
 3014W        W18823  15.688  16.593  15.724  0.2909  0.0035  0.1406
 3015W        W18824  11.649  11.281   1.125 -0.0126  0.2230 -0.2715
 3016W        W18825  14.628  17.328   5.042 -0.1728  0.1696  0.1304
 3017W        W18826   2.441   2.470   2.701  0.1563  0.1592  0.0012
 3018W        W18827  16.329   9.702  16.683  0.0250  0.0656  0.0956
 3019W        W18828   6.589   3.662   4.183 -0.1224 -0.0827 -0.0799
 3020W        W18829   2.965   4.804  14.260  0.0278 -0.0556 -0.1374
 3021W        W18830   5.219   2.674  15.493  0.0118 -0.2233 -0.1028
 3022W        W18831   3.701  15.065   1.365  0.0912 -0.0911 -0.2687
 3023W        W18832   0.381   2.529   5.092  0.0130  0.0589 -0.3378
 3024W        W18833   0.432  13.355  16.687 -0.2281 -0.0969  0.2160
 3025W        W18834   5.640  11.972   1.360  0.1697  0.1918  0.2729
 3026W        W18835   6.874   9.587  12.528  0.0646  0.1678 -0.1984
 3027W        W18836   8.074   8.198   1.706 -0.1523 -0.0168 -0.1452
 3028W        W18837  17.380   4.371   3.946 -0.0300 -0.2041 -0.1942
 3029W        W18838   2.509   6.181   1.555 -0.2223 -0.0873 -0.1205
 3030W        W18839   1.929   1.090  13.241 -0.3730  0.1211 -0.0635
 3031W        W18840   6.641  14.770  13.236 -0.2923  0.0871  0.0067
 3032W        W18841  16.833   0.532  14.668  0.1376 -0.0516 -0.3275
 3033W        W18842  10.162   2.635   3.951  0.1408 -0.0551 -0.1554
 3034W        W18843   6.916  11.206  12.752  0.0120  0.2077  0.2428
 3035W        W18844  10.106  12.249  13.663  0.1612 -0.0194 -0.0225
 3036W        W18845   3.764   1.849   4.546 -0.0400 -0.2388  0.0102
 3037W        W18846   0.428  11.556   5.415 -0.0273 -0.0480  0.1999
 3038W        W18847   0.137   2.014   5.378  0.0210 -0.2357  0.1477
 3039W        W18848   4.497  14.024   3.049  0.0587  0.3057 -0.1496
 3040W        W18849  13.039  15.554   3.478  0.0616  0.0912  0.3927
 3041W        W18850   6.995   7.287  12.472  0.1384  0.1116 -0.0957
 3042W        W18851  12.967   2.714  12.812 -0.0457  0.1666 -0.3123
 3043W        W18852   3.122   3.245   1.566 -0.2300 -0.2494 -0.2683
 3044W        W18853  15.542  17.158  13.932  0.2951  0.0413 -0.0395
 3045W        W18854   0.110   8.396   1.853 -0.1464 -0.1285 -0.1216
 3046W        W18855  14.472  16.010   4.723  0.1471  0.0176  0.3290
 3047W        W18856   2.281   9.170   0.567 -0.0521  0.0478  0.0418
 3048W        W18857  13.354   4.001   5.222 -0.0706  0.1238  0.0403
 3049W        W18858  15.951   7.157  14.778 -0.0071 -0.1119 -0.0106
 3050W        W18859   7.696   9.734   4.525 -0.6127 -0.1075  0.3544
 3051W        W18860  14.956  16.178  12.764 -0.0058 -0.0343 -0.0838
 3052W        W18861   0.572  10.059  16.698 -0.1956 -0.0816  0.0604
 3053W        W18862   0.358  16.773   2.315 -0.3321  0.0699 -0.1302
 3054W        W18863  12.109   9.920  13.570  0.1868  0.0644 -0.0603
 3055W        W18864   7.423   5.064   1.649 -0.2486 -0.0145  0.4774
 3056W        W18865   6.780  11.393   2.382 -0.0228  0.2634 -0.0508
 3057W        W18866   8.756  17.118  15.661 -0.1024  0.0558 -0.0380
 3058W        W18867  12.442  14.346   3.616 -0.0702 -0.1395  0.0757
 3059W        W18868   0.512   2.941  11.720  0.0032  0.1412 -0.1797
 3060W        W18869   9.681  12.740   3.772  0.0700 -0.0372  0.1645
 3061W        W18870  10.803  15.400   5.052  0.0721  0.1725 -0.1498
 3062W        W18871  15.043  15.149  11.695 -0.0111 -0.1222  0.1565
 3063W        W18872   9.398   8.783   2.813  0.0149  0.3021  0.1378
 3064W        W18873   7.423  15.527  15.550  0.3080  0.1012 -0.0360
 3065W        W18874   9.465   9.083   4.909  0.2493 -0.0304 -0.1581
 3066W        W18875  16.090   1.931  16.409 -0.0737 -0.0072 -0.1880
 3067W        W18876  10.497  17.699  15.132 -0.4438 -0.0859 -0.3079
 3068W        W18877   6.203   1.081   0.233  0.2420 -0.4904  0.0707
 3069W        W18878  16.101  12.653  12.268  0.0699 -0.1418 -0.3127
 3070W        W18879  13.353   2.618   5.664 -0.4031 -0.1412  0.0729
 3071W        W18880   9.387  16.328   3.820  0.0925 -0.1510 -0.0385
 3072W        W18881  10.416   7.579   0.585 -0.1224 -0.3460  0.2353
 3073W        W18882   2.448  14.097  14.194  0.0116 -0.2193 -0.3731
 3074W        W18883   2.697   9.561  14.184 -0.4305  0.1794  0.3157
 3075W        W18884  16.443   6.837  13.518 -0.1335 -0.2553  0.0777
 3076W        W18885   6.707   0.280   3.844  0.0681  0.1142  0.2935
 3077W        W18886  16.994   3.525   3.930  0.0416  0.1195  0.1553
 3078W        W18887   9.840   5.335   0.191  0.0728  0.0847  0.1235
 3079W        W18888   7.807  11.243  11.003 -0.4123 -0.3193  0.2068
 3080W        W18889  14.118   1.698  11.271 -0.1498 -0.0506 -0.0971
 3081W        W18890  15.699  10.275   5.888  0.2528  0.0987  0.1249
 3082W        W18891   9.866  14.933  12.962  0.0454  0.1072  0.0240
 3083W        W18892  16.946   4.275   4.640  0.1798  0.1206 -0.2345
 3084W        W18893  11.151   0.220   2.472 -0.1826 -0.1849  0.0633
 3085W        W18894  17.038   5.874  14.117 -0.1123 -0.0227 -0.1263
 3086W        W18895   3.882  16.149   3.774 -0.1330 -0.2659  0.0936
 3087W        W18896   4.600   3.346   0.492  0.0275  0.0001  0.0698
 3088W        W18897   8.428   1.249   5.645  0.0039 -0.2886 -0.2598
 3089W        W18898   2.071   3.856   3.541  0.0629  0.0746 -0.2465
 3090W        W18899   8.948   1.764  14.889 -0.1737  0.3683 -0.0753
 3091W        W18900  13.736   8.847   1.400  0.1676 -0.1797  0.2272
 3092W        W18901   6.000   8.815   4.122 -0.0207  0.1461 -0.1673
 3093W        W18902   9.809  14.750   5.502  0.1464  0.2569 -0.0639
 3094W        W18903   5.603   4.553   3.688 -0.0248 -0.1806  0.2938
 3095W        W18904   3.131  12.297   3.882 -0.0842  0.1056 -0.0067
 3096W        W18905   9.590   6.775   6.009  0.1486 -0.1698 -0.0962
 3097W        W18906  14.738  10.649   4.760  0.0430  0.0801 -0.1715
 3098W        W18907   0.598   0.550   1.931 -0.0526  0.1323 -0.2353
 3099W        W18908  12.438   3.174   2.512  0.2566  0.2103 -0.1593
 3100W        W18909   1.201   9.170   4.138 -0.1318  0.2716 -0.2050
 3101W        W18910   8.433  11.245   1.378  0.0295  0.3157 -0.0545
 3102W        W18911  15.162  12.320  13.176  0.3086 -0.1708 -0.1119
 3103W        W18912  10.136  11.372   2.210 -0.0883  0.0334  0.2260
 3104W        W18913   3.217   6.739   2.610  0.0313  0.1713 -0.0328
 3105W        W18914   7.892  12.534   4.052 -0.1938 -0.0532 -0.1520
 3106W        W18915  11.960  11.712  11.769  0.1478  0.4661  0.1532
 3107W        W18916  12.393  11.042   0.228  0.0741 -0.0390 -0.0206
 3108W        W18917   8.915  13.343   0.010 -0.1171 -0.2462  0.0248
 3109W        W18918  10.377   4.640   4.165 -0.3171 -0.0227 -0.0655
 3110W        W18919   6.521   2.734   0.432 -0.0574 -0.1755  0.0880
 3111W        W18920   9.584   2.304  12.551 -0.1802 -0.0094  0.0450
 3112W        W18921  13.579   8.290   1.532  0.1814 -0.0409 -0.4215
 3113W        W18922   2.140   8.598  14.426 -0.1969  0.0736  0.4418
 3114W        W18923  14.627   6.194  11.611  0.1305  0.1336  0.0868
 3115W        W18924   4.949   0.566  15.913  0.2446 -0.1089 -0.0497
 3116W        W18925   9.255   2.144  15.026 -0.1265 -0.1647  0.2434
 3117W        W18926   4.283   2.089  11.597 -0.0551 -0.0990  0.1097
 3118W        W18927   8.326   5.047   1.057 -0.0787  0.0878  0.0681
 3119W        W18928   6.800   1.124   4.408  0.2629  0.1142 -0.1732
 3120W        W18929   3.357   6.092   2.123  0.0725 -0.1519  0.1206
 3121W        W18930   9.927   4.103  13.432 -0.0677 -0.1948 -0.3930
 3122W        W18931  12.292  12.769  11.834 -0.3123  0.0645  0.0536
 3123W        W18932  12.844  16.023  14.038 -0.1209 -0.0944  0.0849
 3124W        W18933   1.508  15.173   0.956  0.0869  0.1297  0.1397
 3125W        W18934  11.535  14.609   4.918  0.1456  0.0540 -0.2229
 3126W        W18935  12.502   7.582   4.448  0.2571 -0.2128 -0.1058
 3127W        W18936   8.591   1.276  13.704  0.1117 -0.1369  0.0480
 3128W        W18937   9.822   6.659   3.278 -0.1054  0.2577 -0.1101
 3129W        W18938  16.620  13.780   1.499 -0.2855  0.1007 -0.0035
 3130W        W18939   6.416   4.583  13.999 -0.1630 -0.1976 -0.0671
 3131W        W18940   7.026   4.360   1.001 -0.1488  0.1107 -0.0561
 3132W        W18941  14.399   2.023  13.912  0.0174  0.1548  0.2202
 3133W        W18942  11.052   5.287  12.461  0.1147  0.0186  0.1401
 3134W        W18943   2.739  14.773  13.776  0.1541  0.0327 -0.0689
 3135W        W18944   1.710  14.641   2.880 -0.1393  0.2180  0.1325
 3136W        W18945   6.282   0.030   1.789  0.1538 -0.3372 -0.2612
 3137W        W18946   1.513   3.025  14.161  0.0264  0.1767  0.1413
 3138W        W18947   1.057  10.188  14.344 -0.0647  0.0034  0.4023
 3139W        W18948  13.411   4.185   4.734 -0.0779 -0.0720  0.1187
 3140W        W18949   0.267   3.510  15.534 -0.0791 -0.1036  0.0462
 3141W        W18950   0.293   1.999   3.549 -0.0097 -0.0704  0.0142
 3142W        W18951   7.647   4.460  15.002 -0.1249  0.0817  0.2749
 3143W        W18952   0.045   0.101  15.706 -0.0138  0.0044  0.2070
 3144W        W18953   7.298   2.872   1.079  0.3028 -0.0400 -0.0357
 3145W        W18954  12.594  14.694   4.581  0.0003  0.0280 -0.0288
 3146W        W18955   2.331  13.262  12.613  0.2235  0.1646 -0.2833
 3147W        W18956  10.327  12.712   4.412  0.0408  0.3125 -0.2932
 3148W        W18957   7.484   8.511   4.278  0.2949  0.1067 -0.0584
 3149W        W18958  15.455   7.347   5.581 -0.0196  0.1177 -0.1837
 3150W        W18959  14.937  15.914   4.425  0.1784  0.1641  0.1358
 3151W        W18960   5.095   6.535  11.249  0.0057 -0.3182  0.0279
 3152W        W18961   1.233   1.340   3.426 -0.1740 -0.1184  0.3144
 3153W        W18962  13.087  11.387  15.658 -0.0623 -0.0744  0.1054
 3154W        W18963   1.428  10.471  13.115  0.0711 -0.3701  0.1227
 3155W        W18964  15.959   6.805   0.870 -0.3666  0.3037 -0.0196
 3156W        W18965   8.233   4.582  13.822  0.4099 -0.1031 -0.0302
 3157W        W18966   6.230   7.590   4.083  0.1306  0.2052  0.1147
 3158W        W18967   8.560   8.826  14.658  0.0347 -0.1543 -0.0615
 3159W        W18968   8.833   3.454  14.090  0.0192  0.4139 -0.0081
 3160W        W18969   9.254  14.267   4.603 -0.1552 -0.0782 -0.2238
 3161W        W18970  13.306   5.881   1.990  0.1693 -0.1611  0.1064
 3162W        W18971  12.747   5.392   4.104  0.0486  0.0420 -0.1107
 3163W        W18972   9.660   5.260   6.361  0.1164  0.0188 -0.0529
 3164W        W18973   5.012   8.528   2.025 -0.2136  0.1359 -0.2035
 3165W        W18974   6.438   1.392   3.503 -0.2105 -0.2925 -0.0141
 3166W        W18975  17.714   7.817   1.625  0.1063 -0.1286 -0.0149
 3167W        W18976  10.308  11.875   0.712  0.1318  0.0685 -0.5175
 3168W        W18977  14.509   1.636  11.929  0.1318  0.1245 -0.1228
 3169W        W18978   1.332   8.382   4.881 -0.1390 -0.3058 -0.1029
 3170W        W18979   4.441   4.248  15.426 -0.0379  0.0523 -0.0221
 3171W        W18980  10.755   9.423   2.679  0.1095  0.3069 -0.2046
 3172W        W18981  13.921  16.188  16.301  0.1056 -0.0487 -0.1417
 3173W        W18982  17.659   3.230  14.343  0.0687  0.0709  0.4789
 3174W        W18983  14.047  12.588   5.583  0.1666  0.1776 -0.0903
 3175W        W18984   3.241   8.018   1.458  0.1056  0.3005  0.1469
 3176W        W18985  14.948   9.163   2.533  0.2746  0.0773  0.0880
 3177W        W18986  17.729  11.985  14.855  0.1483 -0.1497  0.3010
 3178W        W18987  15.834  10.584  11.260 -0.0533 -0.0578 -0.1085
 3179W        W18988   3.749  12.968  16.624 -0.0230  0.0438 -0.0064
 3180W        W18989  16.663  16.283  12.100  0.0165  0.0482  0.0064
 3181W        W18990   2.839   3.995   4.816  0.0808 -0.2387  0.0647
 3182W        W18991  16.207   0.209  15.874  0.1116 -0.3507  0.1613
 3183W        W18992  10.767   8.672   5.240 -0.0252 -0.0877 -0.4771
 3184W        W18993   8.355  14.392   2.806 -0.2138 -0.0705 -0.2111
 3185W        W18994  10.701   0.441  13.259 -0.0049  0.1554 -0.5388
 3186W        W18995   2.019   2.351   4.959 -0.2775 -0.2255  0.3255
 3187W        W18996  16.915   4.414  16.681 -0.0256  0.1198  0.1280
 3188W        W18997   4.449   0.917  14.345  0.2338  0.0339  0.0442
 3189W        W18998   3.011   2.346   4.514  0.0626  0.2600  0.1437
 3190W        W18999  14.920  16.307   2.029 -0.2917 -0.2205  0.0687
 3191W        W19000  15.618   2.901   5.719  0.1808  0.1627 -0.0052
 3192W        W19001   9.256  15.208   4.287 -0.0431 -0.0840 -0.2702
 3193W        W19002  11.532  12.211   1.275 -0.0863  0.0440 -0.2433
 3194W        W19003  17.492   6.743  12.100  0.1122 -0.1464  0.0789
 3195W        W19004  17.849  10.313   3.391  0.3071 -0.0798 -0.3289
 3196W        W19005  12.286   1.546   4.553  0.2951  0.0202 -0.0748
 3197W        W19006   0.034   5.870   3.705  0.3640 -0.2183  0.0841
 3198W        W19007   6.036  14.209   0.920  0.2304 -0.1190 -0.0116
 3199W        W19008   0.209   0.776  16.553  0.2565  0.1610 -0.0335
 3200W        W19009  11.461   2.966  13.660 -0.4161 -0.0705  0.1059
 3201W        W19010   7.462  10.681   4.733 -0.0258 -0.3855 -0.0531
 3202W        W19011  11.270  17.562  13.800  0.2587  0.0166 -0.2030
 3203W        W19012  16.889   9.597   2.978 -0.4149 -0.1010  0.5986
 3204W        W19013  10.209  12.555   3.740  0.0222  0.1416 -0.3006
 3205W        W19014   6.697  12.377   5.988 -0.1547  0.0260  0.1678
 3206W        W19015  13.833   9.417   0.898 -0.1434  0.1912  0.6934
 3207W        W19016   0.751  15.086  14.856  0.1106 -0.1101 -0.1928
 3208W        W19017   7.709  14.865   1.345 -0.0280  0.0146  0.0281
 3209W        W19018  11.829   3.570   6.252  0.1127 -0.2675 -0.0245
 3210W        W19019   8.234   3.278   6.340 -0.1859  0.2824  0.0786
 3211W        W19020  14.081   2.248  12.140 -0.1122  0.1182  0.1751
 3212W        W19021   0.962  15.464   2.503  0.0345  0.2555 -0.3796
 3213W        W19022  14.416  16.672   3.295 -0.0720  0.2996  0.0051
 3214W        W19023  14.433   8.904   5.834 -0.1465 -0.0241  0.0111
 3215W        W19024  17.730  10.249  15.604 -0.0674  0.3959  0.1116
 3216W        W19025  12.804   4.548  13.388 -0.2131 -0.2885  0.1120
 3217W        W19026   2.386   8.830  12.230  0.1352 -0.4317  0.1122
 3218W        W19027   6.431   9.810   1.041  0.2535  0.0132 -0.1393
 3219W        W19028   0.660   9.099  12.424 -0.0879 -0.0783  0.4489
 3220W        W19029  10.818   2.601  12.877 -0.4500 -0.0227  0.1720
 3221W        W19030   7.482  13.986  16.559  0.0799 -0.0135  0.1927
 3222W        W19031  15.426   6.192  16.021  0.0622 -0.0538  0.0347
 3223W        W19032   7.322  15.238   1.219 -0.1088  0.0552 -0.1206
 3224W        W19033   1.620   4.174   1.063  0.0926 -0.1374 -0.0161
 3225W        W19034   1.829  12.122  14.563 -0.1893 -0.0286 -0.0617
 3226W        W19035   9.031   0.441   4.107 -0.2414  0.0202 -0.0650
 3227W        W19036  10.067   5.591  16.142 -0.2374  0.1541 -0.1053
 3228W        W19037   1.395  11.608   1.724 -0.1595  0.0085 -0.0714
 3229W        W19038   4.292   9.971   2.157  0.0485  0.2112  0.1533
 3230W        W19039   2.089   9.761  16.029 -0.0844  0.2689  0.2247
 3231W        W19040   9.745   2.439  13.969 -0.4853 -0.1912 -0.2904
 3232W        W19041   9.041  17.696  13.471  0.0777 -0.0821 -0.0327
 3233W        W19042  17.461  11.938  16.052 -0.1776  0.0698  0.3629
 3234W        W19043   1.799   2.300   5.980  0.0336  0.2155 -0.0721
 3235W        W19044  10.041  11.331   3.215  0.2265 -0.2371 -0.0779
 3236W        W19045  11.574   0.470  15.695  0.3416  0.2389 -0.0945
 3237W        W19046   1.909   6.622  14.196  0.3806 -0.0671  0.0272
 3238W        W19047  11.648  10.206  16.230 -0.1309  0.0924  0.2050
 3239W        W19048  13.439  14.086   5.403  0.1646  0.0084  0.2322
 3240W        W19049   2.948   1.611   3.987 -0.0115 -0.0160  0.0128
 3241W        W19050  17.783  15.963  13.593 -0.1816  0.2451 -0.2216
 3242W        W19051  12.702   1.362   2.425 -0.1547  0.1049  0.2220
 3243W        W19052  11.092   4.232  13.033  0.2142 -0.1148  0.3823
 3244W        W19053   9.425   1.164   2.906 -0.2275 -0.1274  0.0266
 3245W        W19054   4.623   9.068   3.369 -0.1794 -0.1405  0.0556
 3246W        W19055  12.284   1.753  13.438  0.0781  0.2435  0.2040
 3247W        W19056   2.965  10.031   3.312  0.1369 -0.1513 -0.1224
 3248W        W19057  11.208  14.330   6.026 -0.0649  0.2066  0.1166
 3249W        W19058  17.715   7.780   4.731 -0.0391 -0.1199 -0.1448
 3250W        W19059  17.465   0.429  12.558 -0.2801 -0.1633  0.1306
 3251W        W19060   5.694   1.910   0.823 -0.0145  0.3615  0.1442
 3252W        W19061   3.930  11.593   0.795  0.1594 -0.1395 -0.0470
 3253W        W19062  13.924  14.409   0.655 -0.0067 -0.1333 -0.1017
 3254W        W19063  14.814   3.226  16.392 -0.2299  0.3284 -0.0347
 3255W        W19064  14.853   2.592   5.338  0.0460  0.2080 -0.0169
 3256W        W19065   0.515   4.807   5.790 -0.1541  0.0414 -0.1240
 3257W        W19066   5.078  13.578   5.425  0.3437 -0.1472 -0.0455
 3258W        W19067   9.242   9.335   5.287  0.2044  0.0273  0.1128
 3259W        W19068  16.585   7.330  11.704 -0.2246  0.0636  0.1985
 3260W        W19069   8.975  11.165  14.141 -0.3228  0.2272 -0.2693
 3261W        W19070  13.612   9.845   1.258  0.1611 -0.2208  0.1499
 3262W        W19071   8.396  13.068   2.136  0.1132  0.0858 -0.0031
 3263W        W19072  14.172  17.240  12.277 -0.2982  0.3215  0.0907
 3264W        W19073   2.385   8.613   4.065 -0.0516 -0.2497 -0.0641
 3265W        W19074   9.414   8.312  12.743 -0.0288  0.3465  0.3136
 3266W        W19075   6.759  15.724  11.855 -0.1830 -0.0771  0.1234
 3267W        W19076   6.059  14.735   0.911  0.1078 -0.1696 -0.0157
 3268W        W19077  14.984   8.935   2.976  0.0470 -0.0779 -0.3346
 3269W        W19078  16.221  15.768  15.044 -0.0105 -0.1166  0.0241
 3270W        W19079  17.840   8.176  13.053  0.2086 -0.1265 -0.2726
 3271W        W19080   1.703   0.952  11.554  0.3918  0.0428 -0.0397
 3272W        W19081   8.274   1.468   2.555 -0.2831  0.3088  0.0447
 3273W        W19082  10.722   5.692  11.879 -0.0080  0.0054 -0.1928
 3274W        W19083   4.736   7.996  14.788  0.2790  0.2288  0.1349
 3275W        W19084   5.021   7.314  15.995 -0.4381  0.1493 -0.1133
 3276W        W19085  10.981  11.872  15.715 -0.4371  0.0543  0.2278
 3277W        W19086   9.786   8.992   4.517 -0.2747 -0.2910  0.0403
 3278W        W19087  12.657  10.700   3.697  0.1247  0.0731  0.2608
 3279W        W19088   8.478  11.108   1.896 -0.1593 -0.0685  0.3653
 3280W        W19089  11.193   5.128  16.557 -0.3943  0.3236  0.1129
 3281W        W19090  14.034  12.366   2.910  0.0757 -0.0129 -0.2145
 3282W        W19091  10.360  13.626   1.864  0.1506 -0.0043  0.0733
 3283W        W19092   1.768  11.745  12.771  0.2510 -0.1331  0.0227
 3284W        W19093   5.599  12.579  12.156 -0.1937 -0.1213  0.1038
 3285W        W19094   3.077   8.627   1.839 -0.0189  0.0249  0.1555
 3286W        W19095   8.520   9.847   5.334  0.0065  0.1478 -0.0341
 3287W        W19096  10.266   9.807   4.421  0.0070  0.1131 -0.1389
 3288W        W19097   8.692   0.509   0.450  0.1303  0.0533 -0.0085
 3289W        W19098  10.090  11.418  16.509 -0.0535 -0.1176 -0.1173
 3290W        W19099  12.139  17.471   2.905  0.0590  0.1141  0.0790
 3291W        W19100  10.697  14.111  12.553  0.0917 -0.0980 -0.0976
 3292W        W19101  10.054  12.736  12.318  0.0663  0.0176 -0.0821
 3293W        W19102   7.556  12.627   2.278  0.2287  0.0143 -0.2174
 3294W        W19103   4.372  11.878   0.664 -0.0958 -0.1066 -0.3138
 3295W        W19104  16.465   3.524   3.012 -0.1285  0.2322  0.3649
 3296W        W19105  15.751  15.965   1.826  0.2221  0.1250 -0.0275
 3297W        W19106  17.387   3.728   3.276  0.0970 -0.0447  0.0647
 3298W        W19107   0.100  10.594  13.099  0.0946  0.1468  0.0422
 3299W        W19108   5.522   4.810  13.229 -0.0409  0.1621  0.0802
 3300W        W19109  10.786   8.653  13.502 -0.0045  0.0689 -0.2612
 3301W        W19110   3.563   6.801  14.065  0.3032  0.1076  0.0215
 3302W        W19111   2.073  13.824   0.401 -0.3888  0.0182 -0.1255
 3303W        W19112   6.595  14.484  15.638 -0.0097 -0.0177 -0.0968
 3304W        W19113  17.860   7.972   3.627  0.2286 -0.5531 -0.0497
 3305W        W19114  16.666   4.842  11.695  0.0729  0.5292 -0.4271
 3306W        W19115  15.473  16.542   4.028  0.2860  0.1065 -0.0204
 3307W        W19116  11.351   9.956   6.188 -0.1837  0.0806 -0.1661
 3308W        W19117   7.638   6.787  14.069  0.0882 -0.1381  0.0908
 3309W        W19118  16.918   5.797   0.205 -0.0947  0.0978 -0.0377
 3310W        W19119  17.348   8.078   4.501  0.1649  0.0274  0.1006
 3311W        W19120   0.430  10.267  13.589  0.0314 -0.3947 -0.0485
 3312W        W19121  14.704  12.223   0.020 -0.3609  0.2057  0.1547
 3313W        W19122  16.907  10.760  11.774  0.0462 -0.2691 -0.1237
 3314W        W19123  10.748  10.367  12.061 -0.0292  0.3250  0.0448
 3315W        W19124   0.374   0.436  12.671 -0.0505 -0.0633  0.1707
 3316W        W19125   1.873   1.654  13.145 -0.0715  0.0119  0.2750
 3317W        W19126  17.201   6.796   4.549 -0.2789  0.0693 -0.0146
 3318W        W19127   8.163   3.767   3.008 -0.2225 -0.1989  0.1115
 3319W        W19128  10.644  15.632   0.256  0.0999  0.1170  0.3494
 3320W        W19129   2.225  12.565   4.186  0.2040 -0.0630  0.1795
 3321W        W19130   9.924   8.076   5.800 -0.0922 -0.0335 -0.0282
 3322W        W19131   2.887   7.967  13.319  0.1500  0.1902  0.1963
 3323W        W19132   3.705   0.957   4.297 -0.1012 -0.1271 -0.1271
 3324W        W19133   5.772  10.131  15.587 -0.1932 -0.0265  0.0300
 3325W        W19134   9.044   0.620   5.955  0.1801  0.2449  0.1543
 3326W        W19135  11.675  12.805  15.451  0.1238 -0.0368 -0.1563
 3327W        W19136   9.952  15.431   0.452 -0.1810 -0.2493  0.0781
 3328W        W19137   4.691   4.413  11.423 -0.3760 -0.0764  0.3088
 3329W        W19138   0.393   0.283  16.656  0.0461 -0.0588  0.2793
 3330W        W19139   0.539  10.977  16.573  0.2194  0.1307 -0.0059
 3331W        W19140   8.681   3.967   4.019  0.1608  0.3173 -0.1119
 3332W        W19141   0.324   0.047   2.748  0.0389  0.0997  0.0959
 3333W        W19142  15.294   6.492  15.192  0.0207 -0.3119  0.0488
 3334W        W19143   2.925   7.551   3.589  0.0508  0.1248  0.0626
 3335W        W19144   3.627   2.147   3.278 -0.2748 -0.0317 -0.1476
 3336W        W19145  11.389  11.474  15.377  0.0632 -0.2065  0.2246
 3337W        W19146   3.346   3.926   2.136  0.1700 -0.3768 -0.0572
 3338W        W19147  11.654   5.493   3.142 -0.0461  0.0342 -0.0075
 3339W        W19148  14.787   1.920  13.564 -0.1404 -0.1307  0.0638
 3340W        W19149  12.626   9.842  16.325 -0.0994  0.3088 -0.0050
 3341W        W19150  10.706   3.660  15.705 -0.0016 -0.0242 -0.2361
 3342W        W19151  12.872   3.414  15.613 -0.1034  0.0372 -0.0118
 3343W        W19152   0.585  15.650   4.166  0.0501  0.0620 -0.1139
 3344W        W19153   7.969   0.054   0.630  0.0469  0.4470  0.0802
 3345W        W19154   9.670   8.786  13.308  0.0075  0.0350  0.0914
 3346W        W19155   1.934   7.017   2.328 -0.1440  0.2931 -0.0278
 3347W        W19156   6.339  12.372   3.163 -0.1218  0.1058 -0.0377
 3348W        W19157   5.556   0.848   0.999  0.2848  0.2887 -0.0733
 3349W        W19158  13.060  16.248  15.881 -0.1889 -0.2263 -0.3010
 3350W        W19159   1.510  14.195  15.747  0.2661  0.1453 -0.0660
 3351W        W19160  16.227   9.822   1.442 -0.0312 -0.3794 -0.3105
 3352W        W19161  14.941  11.123  12.591 -0.1001  0.2443 -0.1516
 3353W        W19162  12.559  17.868   2.567 -0.4207  0.3933 -0.2603
 3354W        W19163   1.028   0.678  14.360 -0.1293 -0.0566 -0.0443
 3355W        W19164   8.838  13.354  13.873 -0.2937  0.0648 -0.0295
 3356W        W19165   8.782   3.467   1.373  0.3268 -0.0508  0.2169
 3357W        W19166  15.092   2.755   0.470  0.1597 -0.2836  0.1763
 3358W        W19167  13.207   9.851   0.498  0.2451 -0.0532  0.1596
 3359W        W19168   2.512   8.118  14.215  0.1182  0.0701  0.0542
 3360W        W19169  12.546  13.183   2.086 -0.1980 -0.1439  0.0653
 3361W        W19170   7.814   6.618   5.304  0.0394 -0.2123 -0.2316
 3362W        W19171   1.776  13.888   5.546 -0.0447 -0.0569  0.2783
 3363W        W19172   8.204   2.524   5.718 -0.0906 -0.0452  0.1087
 3364W        W19173  16.992   1.922   2.187  0.1405 -0.3193 -0.1441
 3365W        W19174   6.840   4.276   0.107  0.0982 -0.0617  0.0500
 3366W        W19175   3.911  14.065  12.464 -0.0958 -0.0262  0.1941
 3367W        W19176   1.571   1.398   3.001 -0.4087  0.1873  0.1269
 3368W        W19177   6.111   5.835   3.707 -0.1077  0.1734 -0.3696
 3369W        W19178   0.795   4.832  14.371  0.0834  0.3378 -0.1751
 3370W        W19179   3.502   6.097   0.727  0.0795  0.1027 -0.0427
 3371W        W19180  17.077   9.225  13.563  0.1557 -0.0270  0.2525
 3372W        W19181   8.409   2.391  13.458  0.1204 -0.0415 -0.2774
 3373W        W19182   2.054   3.010   0.329 -0.0574  0.1365 -0.1218
 3374W        W19183  11.750  14.508   4.291 -0.1322 -0.0493 -0.1025
 3375W        W19184   4.777   8.112   0.123 -0.1191  0.2740  0.2254
 3376W        W19185   0.261  17.839  15.197 -0.3659 -0.4524 -0.1175
 3377W        W19186  11.974  12.998   1.150 -0.0785 -0.1436 -0.1569
 3378W        W19187  11.286   1.817  12.687  0.0364  0.0104 -0.2514
 3379W        W19188  13.253   3.784   0.784 -0.0363  0.1012 -0.3589
 3380W        W19189  17.073   7.875   0.505 -0.2774  0.1941 -0.1734
 3381W        W19190  14.410   0.567   3.673 -0.1800 -0.0313 -0.1927
 3382W        W19191   1.883   6.868   0.573  0.1782 -0.0376 -0.2140
 3383W        W19192   5.307   1.749  14.908  0.1769 -0.1423 -0.1400
 3384W        W19193   3.166   5.582   3.276 -0.1108 -0.0712 -0.1283
 3385W        W19194   7.610   3.783   6.041  0.0839 -0.1412  0.1040
 3386W        W19195   7.657   4.935   0.332  0.1199  0.0936  0.0241
 3387W        W19196   3.804  13.674   0.888  0.1984 -0.0183 -0.1530
 3388W        W19197   4.735   9.773   2.285 -0.0229 -0.1543  0.0570
 3389W        W19198  16.484   9.766   1.965  0.1083  0.0860  0.2265
 3390W        W19199  10.654  10.430   4.268 -0.0647  0.2159 -0.1368
 3391W        W19200   7.463   7.742  16.336  0.0208 -0.1323  0.0312
 3392W        W19201  10.644  15.087  14.216 -0.2574 -0.0955  0.0179
 3393W        W19202  10.125   0.935  12.311  0.0368 -0.1374 -0.0012
 3394W        W19203   3.087   0.079  12.455  0.0323 -0.1225  0.0107
 3395W        W19204   4.107   6.121   3.476  0.0529 -0.0731  0.1103
 3396W        W19205  11.871   0.275   1.601  0.0058  0.2136  0.0559
 3397W        W19206   9.615  15.183   3.356 -0.1368  0.1547  0.0713
 3398W        W19207   3.329   7.934  13.565 -0.4181  0.0768  0.2588
 3399W        W19208   4.893  13.979  13.317  0.1610 -0.0560  0.3759
 3400W        W19209   4.326  10.226  11.195 -0.0410  0.1027 -0.0513
 3401W        W19210  15.799  12.352   2.378 -0.2314  0.0025  0.4065
 3402W        W19211   1.948   6.808  11.801  0.5658 -0.1618 -0.2572
 3403W        W19212   7.586   7.376  14.590  0.1866 -0.1874 -0.0369
 3404W        W19213  13.802  15.174   3.432 -0.0148  0.1725  0.0724
 3405W        W19214  10.382   2.176  12.209  0.2025 -0.0419  0.4824
 3406W        W19215   7.276  12.401  12.343  0.0511 -0.0952 -0.1574
 3407W        W19216  14.324  12.318  13.759 -0.1815 -0.2483 -0.0389
 3408W        W19217  16.797  10.667   3.890  0.1877 -0.0433 -0.1452
 3409W        W19218   4.934  10.478   2.073 -0.0793 -0.0377  0.0174
 3410W        W19219   3.581  11.210  13.198 -0.0114 -0.1132 -0.2640
 3411W        W19220   3.601  10.090  12.565  0.1830  0.1046  0.0816
 3412W        W19221  15.296   0.126   4.412  0.1707  0.0939  0.1495
 3413W        W19222   3.175  13.905  15.514  0.1133  0.1845 -0.2670
 3414W        W19223   6.115  14.965  14.885 -0.1136 -0.0748  0.0163
 3415W        W19224  10.336  14.309   2.051  0.1143  0.0637  0.2516
 3416W        W19225  13.375   6.293  11.808 -0.1514  0.2812 -0.0168
 3417W        W19226  14.863   3.586  16.061 -0.0831 -0.1644  0.1723
 3418W        W19227  13.957   0.061   0.843 -0.3160  0.1748 -0.0774
 3419W        W19228   3.924  15.863  10.337 -0.2684  0.1208  0.0799
 3420W        W19229   7.844   9.654  14.825 -0.1466 -0.2698 -0.0902
 3421W        W19230  16.310   2.683  13.443 -0.1526  0.3632 -0.0505
 3422W        W19231  10.980   6.176  11.959  0.1402  0.0997 -0.2920
 3423W        W19232   8.765   8.935  13.568  0.2358  0.2127  0.2717
 3424W        W19233   6.663   3.236   5.670 -0.5096  0.0891  0.1934
 3425W        W19234   4.017  16.182  13.333  0.1123  0.0145 -0.2473
 3426W        W19235   7.205  11.916   3.163  0.0612  0.1630 -0.0390
 3427W        W19236   9.439  16.713   5.288 -0.0049 -0.1235  0.6084
 3428W        W19237  11.996  11.804   2.667 -0.2041  0.2564  0.1108
 3429W        W19238   3.488  11.905  15.776 -0.0888  0.0929 -0.0813
 3430W        W19239  15.600   0.395  12.497  0.1682 -0.0954 -0.2981
 3431W        W19240  17.499  17.249  15.279  0.1892  0.0109 -0.0532
 3432W        W19241   1.622   1.116  16.518  0.0595 -0.0613  0.2109
 3433W        W19242   8.136   4.672   0.144  0.2814  0.0680 -0.0093
 3434W        W19243   9.561   4.853   1.516  0.0246  0.1514 -0.2132
 3435W        W19244   0.347  13.202  12.795  0.1694 -0.1464 -0.1277
 3436W        W19245  12.109  11.063   6.100 -0.1674 -0.1308  0.0201
 3437W        W19246   2.255  17.197   0.358  0.3069 -0.0003  0.0680
 3438W        W19247   2.143  11.382   0.548 -0.0009 -0.0952 -0.1414
 3439W        W19248   4.981  14.484  16.328  0.0581 -0.2287  0.1963
 3440W        W19249  17.482   1.007   5.094 -0.2127 -0.1217  0.0147
 3441W        W19250  11.507   0.438   5.062 -0.3715  0.0333 -0.1062
 3442W        W19251   0.803   6.385  11.939  0.0022 -0.0373 -0.1051
 3443W        W19252   1.076   1.606  11.145  0.1224  0.1720  0.3616
 3444W        W19253   6.749   4.043   4.611  0.1207 -0.1200  0.3693
 3445W        W19254   8.307  11.814   5.694 -0.2455 -0.0142  0.3534
 3446W        W19255  17.718   5.517   4.062  0.0040 -0.1422 -0.2189
 3447W        W19256   3.600   4.637  13.092  0.2182  0.0665  0.0873
 3448W        W19257  13.408   8.827  14.362 -0.1853 -0.0697  0.2480
 3449W        W19258  17.432   0.813   0.489 -0.1394 -0.2072  0.0942
 3450W        W19259  10.957  12.686  14.126 -0.0049 -0.0203 -0.2029
 3451W        W19260  16.108   7.833  11.328  0.0955  0.0851  0.0712
 3452W        W19261  10.425  14.046  15.215 -0.1504  0.0461  0.1569
 3453W        W19262  16.814  13.024  12.971 -0.0552  0.0828  0.3199
 3454W        W19263  15.193  15.804   3.059 -0.0451  0.2173 -0.0941
 3455W        W19264  17.227   5.731  16.565  0.4127  0.2046  0.1695
 3456W        W19265  10.803  14.608   3.190  0.2141  0.1684  0.2301
 3457W        W19266   6.317   3.273   4.238  0.1130  0.0212 -0.0445
 3458W        W19267   5.374  15.639  15.779  0.1286  0.0314  0.3281
 3459W        W19268   4.984  12.150   4.137  0.3332  0.1338  0.0194
 3460W        W19269  17.633  14.419  14.839  0.2282  0.0961  0.2336
 3461W        W19270  15.662   4.412   3.176  0.1683  0.2759  0.0116
 3462W        W19271   7.660   2.418  16.675 -0.0712  0.0512  0.1098
 3463W        W19272  17.934  17.558  13.064  0.1586 -0.1698 -0.0711
 3464W        W19273   9.540  11.099   0.411  0.0027  0.0013 -0.0415
 3465W        W19274   6.157  11.109   1.047  0.1633 -0.0748 -0.1686
 3466W        W19275  10.475  15.679  16.223 -0.0321  0.0084  0.0754
 3467W        W19276  14.087  12.995  11.176  0.0065  0.2604  0.0245
 3468W        W19277   6.040   7.147   3.789 -0.1335 -0.1890  0.0138
 3469W        W19278  11.258  17.294  15.630 -0.2689  0.1135  0.0370
 3470W        W19279   1.357   4.726  15.447  0.0527 -0.0149  0.1288
 3471W        W19280  13.134  11.154  11.576  0.0633  0.2845  0.0154
 3472W        W19281   9.060  16.814   3.187  0.2352 -0.1745 -0.1152
 3473W        W19282  16.000   6.334   1.158 -0.1267  0.1855 -0.0500
 3474W        W19283   6.843  12.490  12.116 -0.1139  0.0315 -0.0456
 3475W        W19284  14.240   4.400   1.126 -0.0459 -0.2679 -0.2870
 3476W        W19285  12.007   7.156  12.767  0.2680 -0.0163  0.0277
 3477W        W19286  16.080  12.436   0.980 -0.0146 -0.1295 -0.5021
 3478W        W19287  11.115   4.274   4.548 -0.0921 -0.0365  0.2196
 3479W        W19288  10.533  17.625  11.634  0.0046  0.0757  0.0314
 3480W        W19289  12.725  12.967   2.749  0.1960  0.0538 -0.0979
 3481W        W19290  16.907  17.576  13.147  0.0379  0.1058 -0.0848
 3482W        W19291  13.381   2.099   4.084 -0.0656  0.1505  0.0166
 3483W        W19292  12.426   1.569   6.080  0.2969 -0.1108 -0.1491
 3484W        W19293  13.055  15.813  15.675  0.3133 -0.1698 -0.1540
 3485W        W19294  17.557   9.747   1.313  0.1109 -0.1884  0.0309
 3486W        W19295   8.144  16.408   2.319 -0.2120  0.2885 -0.3187
 3487W        W19296   1.227  11.643   4.629  0.0243  0.1423 -0.1044
 3488W        W19297  11.733  10.703   4.960  0.0244 -0.1014 -0.2609
 3489W        W19298   5.722  13.594  16.491  0.1108 -0.2028  0.0343
 3490W        W19299  13.206   2.480   0.576  0.0321  0.2493 -0.2348
 3491W        W19300  10.043  12.470  14.569 -0.3384  0.1076 -0.0314
 3492W        W19301   2.891   4.723  12.840  0.0048 -0.1466 -0.0877
 3493W        W19302  11.529  16.767  15.047 -0.1316 -0.1112  0.0867
 3494W        W19303   2.362  12.176  11.538 -0.0941 -0.2503  0.0855
 3495W        W19304   7.792   6.288   0.849 -0.3693  0.4191 -0.4664
 3496W        W19305   4.774  11.330  13.155 -0.3079  0.1789  0.0983
 3497W        W19306   3.387   5.711  11.424  0.0150 -0.2815 -0.1560
 3498W        W19307  11.244   4.459   1.134  0.0967  0.2653  0.0830
 3499W        W19308  11.045   1.448   4.128  0.0194 -0.2873  0.0843
 3500W        W19309  11.453   1.559   4.958  0.0155  0.0952 -0.2130
 3501W        W19310   4.263   8.263   2.597 -0.2359 -0.0881 -0.1504
 3502W        W19311  13.412   4.677   1.649  0.1078  0.1212  0.3685
 3503W        W19312   5.643  13.621  12.478 -0.0722  0.2917  0.1741
 3504W        W19313  17.826  15.325  12.633 -0.0225  0.0334  0.4249
 3505W        W19314   7.745  14.555  16.601 -0.1843  0.0618  0.0934
 3506W        W19315  14.146  16.116  15.844 -0.2922  0.2094 -0.0267
 3507W        W19316   4.554   8.531   2.868 -0.1561  0.2181 -0.0180
 3508W        W19317  10.686   7.054   2.190  0.4074  0.3602 -0.0215
 3509W        W19318   2.043  10.828  14.339 -0.1773 -0.1161 -0.2478
 3510W        W19319  17.811   4.124   3.019  0.2626 -0.1385 -0.0877
 3511W        W19320  12.171   4.411  10.453  0.0546  0.0102 -0.0280
 3512W        W19321  11.393   2.218   3.558  0.2630  0.2587  0.3146
 3513W        W19322   5.556   9.788   1.148 -0.1608  0.0663 -0.2660
 3514W        W19323   3.408  16.429  12.110  0.2893  0.0762  0.0214
 3515W        W19324   8.568   1.785   2.965 -0.3386  0.0923  0.1844
 3516W        W19325   6.809  10.389  14.744  0.1660  0.1458  0.1417
 3517W        W19326   1.729  10.254   3.685  0.0281 -0.0603 -0.0807
 3518W        W19327   8.716   4.632   3.349 -0.1462  0.1638  0.0079
 3519W        W19328   1.954   4.653   5.723 -0.0428  0.0541 -0.1062
 3520W        W19329  13.704   6.122  12.702  0.0891  0.1757  0.2978
 3521W        W19330   2.903   0.493   0.876 -0.1844  0.4448  0.2439
 3522W        W19331  11.721   5.977   2.131 -0.0199 -0.1093 -0.0196
 3523W        W19332   9.877   1.661  16.033 -0.2306  0.3221 -0.3919
 3524W        W19333  12.041   3.973   6.456  0.0786  0.0524  0.0399
 3525W        W19334  13.767   5.324  12.787  0.0731 -0.0957  0.3025
 3526W        W19335   9.653   1.698  16.578 -0.0028 -0.0903  0.1011
 3527W        W19336   2.108  16.313  14.533 -0.0925  0.2433 -0.0195
 3528W        W19337   6.766   2.627   0.925 -0.1376 -0.2870 -0.0341
 3529W        W19338   5.974   4.662  15.657 -0.2107 -0.0031 -0.0721
 3530W        W19339  10.485  15.107   2.452  0.0900  0.2231 -0.2938
 3531W        W19340  17.633  14.937  12.064 -0.0135  0.0889  0.3247
 3532W        W19341  10.571   7.633  15.358  0.0248  0.0742 -0.3696
 3533W        W19342  10.828   6.098   2.462  0.1130 -0.2784 -0.2441
 3534W        W19343   6.743   1.200  13.406 -0.1781 -0.2133  0.0128
 3535W        W19344   3.021   7.695  15.385  0.0170  0.0653 -0.2382
 3536W        W19345   6.523   1.748  14.144 -0.0920 -0.0415  0.1884
 3537W        W19346   1.687  13.607   3.106 -0.1751  0.1227 -0.1122
 3538W        W19347   2.346   5.133  12.153  0.0959  0.1289  0.1790
 3539W        W19348  12.905  14.531   0.751 -0.1625 -0.1732  0.0513
 3540W        W19349   3.981   2.064   5.408  0.4986  0.1076  0.0175
 3541W        W19350  11.206  14.180  12.574  0.3230  0.1544 -0.2817
 3542W        W19351   9.709   8.237   0.748  0.2051  0.0769 -0.0899
 3543W        W19352  13.212   0.985  12.150 -0.1351 -0.1570  0.1617
 3544W        W19353   8.076  10.534  11.330  0.1001  0.1666 -0.0460
 3545W        W19354  17.159  13.516  13.070  0.1036 -0.1042 -0.0497
 3546W        W19355  12.477   5.949   3.982 -0.0909 -0.2543  0.0146
 3547W        W19356   1.487   9.771   5.252  0.3401  0.0905  0.1981
 3548W        W19357   1.174  16.381  11.484 -0.0417 -0.0352  0.0343
 3549W        W19358  14.974   3.954   1.681  0.0705  0.2765  0.1819
 3550W        W19359   0.275   7.688  13.548  0.1011 -0.0847 -0.0294
 3551W        W19360  17.298   3.987  12.446 -0.1867 -0.2736 -0.1418
 3552W        W19361  11.532   2.881   5.204  0.1664  0.2197  0.0641
 3553W        W19362   0.216   9.458  16.544 -0.0554 -0.0036  0.0093
 3554W        W19363   3.331  17.190  11.666 -0.1914 -0.0559 -0.2431
 3555W        W19364   3.828  17.808  12.905 -0.2346  0.0813 -0.3470
 3556W        W19365  14.711  12.017  13.330  0.3286 -0.2284 -0.1459
 3557W        W19366   2.503   1.485  14.140  0.0119  0.1581 -0.0141
 3558W        W19367  14.534   6.555  13.557 -0.3692  0.1392  0.1440
 3559W        W19368  11.232  16.428   5.771  0.2304 -0.3035  0.0935
 3560W        W19369   6.240   8.573   0.528 -0.3018 -0.1567  0.0424
 3561W        W19370  11.965   4.993   3.247  0.0517  0.1015 -0.0083
 3562W        W19371   6.661  16.074  12.952  0.0847  0.1174  0.2163
 3563W        W19372   3.456  11.944   3.595  0.1855 -0.3825  0.0927
 3564W        W19373  13.328  12.744   4.828 -0.2570 -0.0434 -0.0289
 3565W        W19374  16.154   4.583   5.735 -0.1881 -0.2464  0.0521
 3566W        W19375  11.350   3.638  16.549 -0.0583  0.0543 -0.2337
 3567W        W19376   1.079  13.112   4.482 -0.3428 -0.0182 -0.1132
 3568W        W19377  12.567   9.915  15.746 -0.0238  0.2758 -0.1067
 3569W        W19378   4.146   1.584  16.597  0.0917 -0.0986  0.2441
 3570W        W19379   3.666   6.185   5.160  0.2553 -0.0837  0.2249
 3571W        W19380   2.994  12.428   2.806  0.0678 -0.0112 -0.1260
 3572W        W19381  15.190   6.031  14.013  0.3077  0.0011 -0.0223
 3573W        W19382  14.085   4.503  13.107  0.4894 -0.0293 -0.1134
 3574W        W19383   0.351   6.116  14.532 -0.0158  0.1191 -0.4248
 3575W        W19384   1.725   5.392  16.076  0.2873  0.2056  0.2998
 3576W        W19385   8.186   7.573  12.825  0.2396 -0.1528 -0.0283
 3577W        W19386   3.193   7.737   4.536  0.0159 -0.2250  0.1692
 3578W        W19387   3.091  14.554   2.154  0.2601  0.1426  0.0602
 3579W        W19388  12.152  14.173   1.129  0.1572 -0.1103  0.5397
 3580W        W19389  11.784   2.677   2.129  0.3999  0.0633 -0.1601
 3581W        W19390  11.098   7.881   5.421  0.0467 -0.1196  0.0349
 3582W        W19391   0.892  11.528   3.380 -0.0058  0.1817  0.0108
 3583W        W19392   0.824   5.678   2.798  0.2859  0.0505 -0.1484
 3584W        W19393   1.245  10.703  16.569  0.1131  0.0114 -0.0972
 3585W        W19394  14.491  14.185  13.399  0.0382 -0.1392 -0.0315
 3586W        W19395   4.604   8.496  16.460  0.0401  0.0520  0.1171
 3587W        W19396   3.066   1.593  16.623 -0.0160  0.4182  0.0310
 3588W        W19397   6.309  14.843   0.403 -0.3017  0.1359  0.1551
 3589W        W19398  14.772   3.134   0.571  0.3173 -0.1621 -0.3185
 3590W        W19399   8.080   4.584   4.087 -0.2465  0.1710  0.0256
 3591W        W19400   6.307   3.659  16.223  0.0589  0.4254 -0.2711
 3592W        W19401   1.648  17.235   1.897  0.0491  0.2088 -0.4426
 3593W        W19402   7.570  15.988   4.989  0.0133  0.0807  0.1103
 3594W        W19403   8.335  15.319  12.987  0.1461 -0.2227 -0.3051
 3595W        W19404  16.948  14.012   3.076 -0.1465 -0.1921  0.0203
 3596W        W19405   8.316  10.517   4.609 -0.0804  0.3487 -0.0282
 3597W        W19406   1.620   7.337  10.119  0.3656 -0.1016  0.0452
 3598W        W19407  12.651  15.122  13.298  0.0316 -0.3259  0.0831
 3599W        W19408   0.894  11.258   0.918 -0.1417  0.2783  0.0910
 3600W        W19409   8.999   6.628  12.890  0.3240  0.2115  0.1343
 3601W        W19410   6.497   7.212   5.823  0.0171  0.0795  0.0623
 3602W        W19411   8.425  17.155  13.065 -0.0941  0.2509  0.3533
 3603W        W19412   1.089  12.473  11.657  0.0388  0.1677 -0.2314
 3604W        W19413   3.379  12.023   4.775  0.0296  0.0460 -0.1751
 3605W        W19414  17.253  14.061  11.402 -0.0620  0.1218 -0.0479
 3606W        W19415   8.372   6.976   4.630 -0.1680 -0.2187 -0.0594
 3607W        W19416   9.457  12.472   3.280  0.1399 -0.1346 -0.0424
 3608W        W19417   2.521   6.656   1.401 -0.0880  0.0584  0.0682
 3609W        W19418  13.445  15.945  12.810  0.0858 -0.3554 -0.2523
 3610W        W19419  10.912   4.702  16.612  0.0504  0.1688 -0.1021
 3611W        W19420  15.954  11.385   4.394  0.2354 -0.1358  0.0002
 3612W        W19421   3.938   5.980   1.394  0.0761  0.0933 -0.0006
 3613W        W19422  15.232   4.452  16.060 -0.0108  0.0629  0.0375
 3614W        W19423   1.127   8.890   3.338 -0.0753 -0.0739  0.0700
 3615W        W19424  15.642   9.904   5.528 -0.1977  0.1564  0.1184
 3616W        W19425  13.410   6.244  14.844  0.1807  0.1462  0.0092
 3617W        W19426   1.632   7.439  11.090 -0.0141  0.1371  0.2762
 3618W        W19427   1.912   3.263  14.354 -0.1210 -0.3965  0.0232
 3619W        W19428  13.437  17.709   2.038 -0.1301 -0.2514 -0.0915
 3620W        W19429   5.488  13.868  13.549  0.2104 -0.1610 -0.0377
 3621W        W19430  13.085   8.051   6.229 -0.0801 -0.2686 -0.3822
 3622W        W19431   3.464   9.685  12.202  0.1607 -0.0433  0.0070
 3623W        W19432  16.357   7.753   5.978  0.1839  0.2599  0.3006
 3624W        W19433   5.012  17.042   2.281 -0.3626  0.1835  0.1793
 3625W        W19434  17.473  15.447  13.006 -0.1173  0.0512  0.0317
 3626W        W19435   6.006   0.219  16.534 -0.1246  0.1147 -0.1656
 3627W        W19436  12.821   5.946   2.734  0.4619 -0.2249  0.1687
 3628W        W19437  12.141  10.845  14.967  0.0020 -0.2868 -0.1788
 3629W        W19438  13.028   1.463   2.798  0.1469  0.0012  0.2773
 3630W        W19439   5.533  13.780   4.025  0.0948 -0.1343 -0.0085
 3631W        W19440  15.465   1.040   5.368 -0.2737  0.3026  0.0017
 3632W        W19441  11.530   1.590  11.984 -0.1479 -0.1450 -0.0399
 3633W        W19442  13.071   7.533  11.292  0.0432  0.1208  0.0216
 3634W        W19443   0.499  13.797  15.220  0.1382  0.2286  0.1413
 3635W        W19444  14.018   8.336  15.914  0.1650  0.1637  0.2446
 3636W        W19445  14.203   9.482   4.484  0.3637 -0.0900 -0.0034
 3637W        W19446   3.698  15.989  12.349  0.2840  0.2719 -0.0990
 3638W        W19447   5.782   6.534   0.256 -0.0549 -0.1262 -0.0955
 3639W        W19448   3.101   2.612  14.659 -0.1593  0.1590 -0.1551
 3640W        W19449  13.264   3.416  11.235 -0.2652 -0.0628 -0.1844
 3641W        W19450   8.476  15.218  12.003  0.0371 -0.0998  0.0202
 3642W        W19451   8.097   6.097  14.573  0.0752 -0.1781 -0.2604
 3643W        W19452  12.993   1.929  15.320 -0.1008 -0.1045  0.2203
 3644W        W19453   4.998   3.515   1.549 -0.0669  0.0089 -0.0537
 3645W        W19454   8.842   0.508  13.150  0.0318  0.1964  0.0926
 3646W        W19455  15.061   0.904   1.012  0.0329 -0.0016 -0.0959
 3647W        W19456  17.364   2.622   5.424 -0.3959 -0.1315 -0.1472
 3648W        W19457  13.650   2.564  13.321  0.0215  0.2615 -0.0118
 3649W        W19458   0.692   6.088  14.925 -0.1307  0.3018 -0.0855
 3650W        W19459  12.747  15.589  13.049 -0.0692 -0.1234  0.0476
 3651W        W19460   6.734   2.720  12.793  0.2269  0.3770  0.0482
 3652W        W19461   1.911   1.270   4.591  0.3825 -0.1117  0.2051
 3653W        W19462   6.710   1.976  16.490  0.1481  0.0351 -0.0184
 3654W        W19463   5.626  14.739   3.663 -0.0458  0.0389  0.1424
 3655W        W19464   0.908   8.698  14.180  0.0486  0.0494  0.2452
 3656W        W19465   6.176   4.870   3.135 -0.0858  0.0679  0.2781
 3657W        W19466  13.130   5.585  15.505 -0.1979 -0.0315 -0.5032
 3658W        W19467   1.213  16.449   2.641 -0.0250 -0.0309  0.1727
 3659W        W19468  16.321   1.504   1.580 -0.3190  0.2366 -0.2202
 3660W        W19469  10.793   6.708  12.801 -0.3011  0.3617 -0.0297
 3661W        W19470   1.382  13.734  11.236 -0.3635 -0.0456  0.2526
 3662W        W19471  16.708   3.129   2.837 -0.0573 -0.1369  0.2250
 3663W        W19472   7.552  17.138  15.496 -0.3773  0.0978  0.3273
 3664W        W19473  17.093  13.056   5.498  0.0100 -0.0179 -0.2183
 3665W        W19474  17.557   7.969   0.725  0.2863 -0.0323  0.1332
 3666W        W19475  13.675  14.945  15.066 -0.1468 -0.1220 -0.1376
 3667W        W19476   7.085   4.798   4.735 -0.0247  0.3391 -0.0443
 3668W        W19477   2.765   0.159  14.416 -0.2362  0.0798 -0.0134
 3669W        W19478  10.379   5.554   5.752 -0.3817  0.4288 -0.0733
 3670W        W19479   8.732  13.109   2.903  0.1222  0.0477 -0.0257
 3671W        W19480  14.981   2.778   4.909  0.3269  0.1201  0.0186
 3672W        W19481   1.095   8.714  13.107 -0.1105 -0.0818  0.0028
 3673W        W19482   2.861  10.859  11.428 -0.2579  0.2401 -0.0725
 3674W        W19483   1.124  15.857   3.440  0.1061  0.1692  0.2470
 3675W        W19484   3.708   8.855  15.263 -0.2597 -0.0945  0.1592
 3676W        W19485  16.084  11.199   4.867  0.0985  0.0352 -0.0591
 3677W        W19486   4.483   8.366  13.016 -0.0557 -0.0156  0.0743
 3678W        W19487   8.808   7.195   4.800  0.1550 -0.2760  0.2086
 3679W        W19488  14.450   6.098   2.837 -0.1995  0.3055 -0.0159
 3680W        W19489  12.096   3.927  14.195  0.1801  0.1287 -0.1676
 3681W        W19490   9.834   7.490   3.827 -0.0456 -0.1837  0.2292
 3682W        W19491  14.721   1.535   3.672 -0.1148  0.1659 -0.0400
 3683W        W19492   1.314   3.823   3.396  0.0477 -0.3336  0.5686
 3684W        W19493  15.838   9.230   2.466  0.0603  0.2677 -0.0754
 3685W        W19494  16.528  17.144  13.258 -0.1373  0.0007 -0.1034
 3686W        W19495  12.005  15.573   6.429 -0.1924 -0.1308  0.0905
 3687W        W19496  12.983   3.573   1.361 -0.2466  0.0311 -0.0496
 3688W        W19497   9.562   9.721  11.707  0.1452  0.0381 -0.1409
 3689W        W19498  10.494   8.082  11.717  0.0019 -0.0320  0.2205
 3690W        W19499   1.052  17.460  15.206  0.4366  0.1063  0.2079
 3691W        W19500  12.904  12.651  15.846 -0.1087  0.3169 -0.0980
 3692W        W19501  14.900   3.108  14.706  0.1917 -0.0054  0.2740
 3693W        W19502   8.447  15.601   5.223 -0.0409 -0.5683 -0.0680
 3694W        W19503   1.404  15.377   4.696 -0.1981 -0.2010  0.0813
 3695W        W19504   7.960  13.950   2.082 -0.1547  0.0074 -0.0923
 3696W        W19505   4.618   6.941  13.030  0.1263 -0.1566  0.0453
 3697W        W19506   9.536  15.045  14.818 -0.2641 -0.2997  0.0894
 3698W        W19507   5.785   2.011   4.327  0.0962  0.0778 -0.1159
 3699W        W19508  13.736  13.949  12.839 -0.2363  0.0463  0.2291
 3700W        W19509  12.254  17.691   1.108 -0.1505  0.0244 -0.1153
 3701W        W19510  15.463   5.357   2.792  0.2243 -0.2413  0.2856
 3702W        W19511  13.221  10.750  14.620 -0.5118 -0.0090 -0.3698
 3703W        W19512  14.076  11.636  15.933 -0.0097 -0.0264 -0.5930
 3704W        W19513   4.403   5.714   6.234 -0.2122  0.2391  0.0155
 3705W        W19514  14.594  13.489   3.917  0.0971  0.0985  0.2570
 3706W        W19515  14.181   0.618  10.690 -0.0428  0.3212 -0.1476
 3707W        W19516   1.231   8.287  14.765 -0.0365  0.2063 -0.2502
 3708W        W19517   0.108   2.298   0.636  0.1081  0.0377  0.0701
 3709W        W19518   7.928  11.080  14.609 -0.1417  0.2575  0.0015
 3710W        W19519   1.619   0.938   5.191  0.3533  0.2302 -0.0203
 3711W        W19520  14.529   5.716  11.579  0.3051  0.0990 -0.2480
 3712W        W19521  11.735  13.610  14.190 -0.0024  0.1291 -0.2127
 3713W        W19522   2.724   3.843   2.843 -0.1393  0.1168  0.1403
 3714W        W19523   4.825  10.900   3.514 -0.0438 -0.1315 -0.0015
 3715W        W19524  12.523  14.182   1.960 -0.0791 -0.0387  0.0555
 3716W        W19525   4.762   6.239   0.945  0.0099 -0.0397  0.2524
 3717W        W19526   7.028   3.707   5.865  0.1339  0.0308 -0.2083
 3718W        W19527   5.893  14.113  13.316  0.0507  0.1116  0.0786
 3719W        W19528   0.826  17.848   2.545  0.1131 -0.1160 -0.0063
 3720W        W19529   6.423  12.466  12.668  0.3259  0.0021  0.2142
 3721W        W19530   3.247   2.901  13.505  0.1533 -0.1480  0.1232
 3722W        W19531  17.258   8.441   2.245 -0.0663 -0.0153 -0.0464
 3723W        W19532  11.020   9.216   2.236  0.3573 -0.2839  0.1546
 3724W        W19533   9.220  17.006   0.325  0.1295 -0.1577  0.1127
 3725W        W19534  16.517   2.833   0.789  0.0267  0.2021  0.0050
 3726W        W19535  10.133   5.722   3.124  0.2102  0.0430  0.2423
 3727W        W19536   0.256  12.405   1.589  0.0549 -0.3625 -0.2692
 3728W        W19537   2.206   6.058  11.403  0.0008  0.1313  0.0977
 3729W        W19538  13.530   6.611   3.029 -0.1030 -0.3308  0.0663
 3730W        W19539  13.025  14.424  11.319 -0.2135 -0.1459 -0.1735
 3731W        W19540  14.612   4.009  15.060  0.2630 -0.0236 -0.0449
 3732W        W19541   9.231   0.216   2.529 -0.0959 -0.2441 -0.1372
 3733W        W19542   1.268   7.336   0.557 -0.0699  0.1645  0.1740
 3734W        W19543   0.944  16.265  15.159 -0.0307  0.2296 -0.0074
 3735W        W19544  17.340  12.522  13.226 -0.1161 -0.1420 -0.0987
 3736W        W19545   0.115   5.905   4.783  0.0237 -0.0668 -0.1229
 3737W        W19546   4.130  13.346   0.716  0.0338 -0.0176  0.1980
 3738W        W19547   6.523   5.900  12.179  0.1022 -0.0133  0.2176
 3739W        W19548  15.502   3.950   3.373  0.0514 -0.0191  0.2368
 3740W        W19549   5.315   2.761   0.041 -0.6379 -0.2060  0.0312
 3741W        W19550  13.151   7.487   1.800  0.1134 -0.0058  0.3104
 3742W        W19551  14.092  15.096   5.068  0.3013 -0.5823 -0.2864
 3743W        W19552   7.414  15.031   2.766 -0.0884  0.0845  0.1028
 3744W        W19553  15.592   4.131  14.274  0.2295 -0.1619  0.0619
 3745W        W19554   4.583  14.605  16.088 -0.0344 -0.0258  0.0887
 3746W        W19555  11.846   9.682   3.967  0.0470  0.2077  0.1242
 3747W        W19556   3.713   2.490   5.243  0.0243 -0.2708 -0.1933
 3748W        W19557   1.300   9.339  15.901  0.0810  0.1774 -0.0290
 3749W        W19558   2.813  15.972   3.092  0.1143  0.1686 -0.1869
 3750W        W19559  10.098   1.785  12.043 -0.1372 -0.0398  0.1556
 3751W        W19560   7.398  17.959   1.859  0.0416  0.1372 -0.1045
 3752W        W19561  11.533   2.488  15.945  0.1128 -0.3307 -0.0523
 3753W        W19562  11.692   3.942  14.604  0.3340  0.2140 -0.1443
 3754W        W19563  12.397   7.085  13.561  0.1745 -0.0067 -0.0772
 3755W        W19564  15.159   7.689  12.108 -0.1612  0.0340  0.0021
 3756W        W19565   2.964  15.535   1.322 -0.4412 -0.1807  0.0042
 3757W        W19566   2.127  11.242  11.122 -0.1364 -0.0443 -0.1129
 3758W        W19567   9.423  16.802   2.416 -0.1851 -0.1603  0.2390
 3759W        W19568   2.371  14.139  16.675  0.0387  0.0385 -0.1788
 3760W        W19569  15.208   1.967  14.311 -0.0862  0.0900 -0.0622
 3761W        W19570   0.344  17.909  14.692  0.2411  0.0806 -0.0194
 3762W        W19571  12.380   7.085  16.503  0.1234 -0.1807  0.0383
 3763W        W19572   7.130  15.372   2.458  0.0499 -0.0526  0.1324
 3764W        W19573   7.135  12.565  13.406 -0.0866  0.1650  0.1823
 3765W        W19574  12.345   4.344  16.364 -0.0518  0.3777  0.1088
 3766W        W19575   9.653   5.720   3.301 -0.2987 -0.0183 -0.1743
 3767W        W19576   5.200   7.903   0.059 -0.2420  0.5490 -0.1238
 3768W        W19577  13.924   9.856   4.295  0.0929 -0.2047 -0.1108
 3769W        W19578  12.059  14.434  15.090  0.2099  0.0899 -0.0780
 3770W        W19579   0.890   6.294   3.803  0.1003 -0.1612  0.2461
 3771W        W19580   3.571  14.943  13.380  0.0566 -0.0893  0.0940
 3772W        W19581   3.133   3.107   2.498 -0.1735  0.4541  0.0667
 3773W        W19582   5.216   2.132  12.337  0.0870 -0.0804 -0.0433
 3774W        W19583  16.090   0.692   0.248 -0.1899 -0.2234 -0.0893
 3775W        W19584  11.371  11.618  12.433 -0.0721  0.2057 -0.3094
 3776W        W19585  12.792   7.355   0.092  0.1190  0.1223  0.2032
 3777W        W19586   7.343  13.396   1.472 -0.0566  0.1744  0.0789
 3778W        W19587  15.107   6.593   3.851 -0.1040  0.1527  0.2515
 3779W        W19588   1.086   7.931   4.412 -0.4421 -0.3136 -0.0752
 3780W        W19589  13.646  16.490   3.883  0.1323  0.1736  0.2015
 3781W        W19590   2.371   7.509  12.816  0.2455 -0.1116 -0.1179
 3782W        W19591   2.057  16.506  16.297  0.1678 -0.0087 -0.5340
 3783W        W19592  14.220  15.609  11.697  0.0009 -0.4707 -0.1554
 3784W        W19593  12.213   6.618  16.597  0.0591  0.1630 -0.1145
 3785W        W19594   9.657   5.187  12.955  0.2878 -0.1848 -0.0170
 3786W        W19595  16.372   7.942  14.719  0.0758  0.4240 -0.0322
 3787W        W19596  17.832  15.543  10.933 -0.1115  0.0084 -0.0392
 3788W        W19597   0.760  12.623   5.411  0.1180 -0.3233  0.2897
 3789W        W19598   7.451   0.009  14.747 -0.1059 -0.3748  0.0371
 3790W        W19599  16.194   2.095  13.686 -0.1893  0.1053  0.0663
 3791W        W19600  16.023   1.711   3.053  0.1322 -0.1263 -0.0457
 3792W        W19601   6.363  13.765   4.815 -0.3029  0.0202  0.0566
 3793W        W19602   4.099   8.634   2.986 -0.0504  0.0075 -0.1076
 3794W        W19603   3.017   7.488  13.588 -0.2930  0.2625 -0.1572
 3795W        W19604  11.086  13.753  14.171  0.0768 -0.0452  0.3256
 3796W        W19605   3.402  15.945   5.255  0.1463 -0.0303 -0.0507
 3797W        W19606  13.486   5.847   0.341 -0.2412  0.1523 -0.3141
 3798W        W19607   6.293   1.136  12.123  0.2859  0.0239  0.1837
 3799W        W19608  11.476  17.729   4.481  0.1142  0.2351 -0.1678
 3800W        W19609   2.130   5.106   3.879  0.2836 -0.0123  0.2236
 3801W        W19610   0.534  17.035   3.561 -0.0943  0.0587  0.2240
 3802W        W19611   9.381   9.951   4.499  0.2642 -0.0533 -0.1062
 3803W        W19612  16.318   2.997   3.186 -0.1072 -0.1298  0.3318
 3804W        W19613   1.679   1.562  15.784 -0.0727  0.0232  0.1770
 3805W        W19614  16.289   4.617  11.919  0.3736  0.1941  0.0669
 3806W        W19615   3.489   9.845  13.935  0.0003  0.3455  0.0594
 3807W        W19616   6.221   0.450   2.103  0.0244 -0.0007 -0.0879
 3808W        W19617   5.653   6.878  13.535  0.0611  0.0993  0.3599
 3809W        W19618  16.652   5.841  16.469 -0.5181  0.0299 -0.2114
 3810W        W19619   6.158   4.034   2.400  0.0737  0.0564 -0.2016
 3811W        W19620  15.400   9.088   3.279  0.2485  0.1547 -0.0946
 3812W        W19621   2.130   4.360  11.103 -0.1317  0.0742 -0.3216
 3813W        W19622   3.644  17.565   2.071 -0.1318  0.0972  0.1266
 3814W        W19623   9.684   7.482  11.417 -0.0870  0.2247 -0.1730
 3815W        W19624   5.685  13.455  13.323  0.1227 -0.1012 -0.1336
 3816W        W19625  15.598  10.638   3.204 -0.1485 -0.1107  0.0002
 3817W        W19626  10.690   2.565   5.378 -0.0939 -0.6818  0.2813
 3818W        W19627  17.555   4.746   3.710  0.1991  0.0262  0.0998
 3819W        W19628  11.130   7.879  14.034 -0.0709  0.0847 -0.0545
 3820W        W19629   1.025   1.265  12.721  0.0721 -0.0896  0.2743
 3821W        W19630   3.075  17.563  13.182  0.0757  0.1342 -0.0884
 3822W        W19631   4.947  11.744  16.134  0.2166  0.1951  0.3088
 3823W        W19632  14.649   8.597  14.873 -0.1361  0.2031 -0.1708
 3824W        W19633   3.338   2.253   2.547  0.0153  0.0809  0.2356
 3825W        W19634  15.997   8.574   5.823 -0.3070 -0.0247  0.0555
 3826W        W19635   8.645  15.448   0.839 -0.3643 -0.0603  0.0900
 3827W        W19636   2.467   4.812   2.805  0.0691 -0.0962 -0.2558
 3828W        W19637   2.530   7.965  14.738 -0.2389 -0.0361 -0.1545
 3829W        W19638   1.302   1.209   5.438 -0.1106 -0.3751  0.0816
 3830W        W19639   6.970   4.163  10.608  0.0185 -0.0444 -0.2198
 3831W        W19640   0.250   0.273  11.616 -0.0124 -0.1751  0.3817
 3832W        W19641   4.798  10.087   4.607  0.1904  0.0141 -0.2540
 3833W        W19642  13.327  16.066   3.975 -0.3438 -0.0139 -0.1563
 3834W        W19643  13.524   5.239   1.597  0.1176  0.1253 -0.0700
 3835W        W19644  17.781  15.935   0.288 -0.1190  0.1066 -0.1018
 3836W        W19645  17.220  13.288  11.755  0.0609  0.2244  0.1038
 3837W        W19646   1.958  12.830  15.619 -0.2022  0.2358 -0.0665
 3838W        W19647  16.539  11.358  16.378  0.2152 -0.0274 -0.0613
 3839W        W19648  16.184  15.902  11.931  0.0749 -0.0240 -0.0608
 3840W        W19649  10.376  13.240   0.234  0.0133 -0.0190  0.0961
 3841W        W19650   1.365   7.715   0.163 -0.0661 -0.0841 -0.0785
 3842W        W19651   7.880   3.301   4.617  0.3513 -0.3490 -0.1139
 3843W        W19652  11.513   5.239  12.668  0.0288  0.0855 -0.0951
 3844W        W19653   7.912   1.058   3.574 -0.1658  0.3187 -0.1023
 3845W        W19654   4.304   9.362  16.494 -0.1301  0.2674 -0.2952
 3846W        W19655   8.845   0.422  14.450  0.2128  0.0918  0.0016
 3847W        W19656  16.282   6.282  14.131  0.2018  0.4024 -0.4065
 3848W        W19657   4.871   3.011  12.699  0.0909 -0.2403  0.0359
 3849W        W19658  15.886   7.877   3.230 -0.1057  0.1583 -0.2355
 3850W        W19659  10.963   9.796   3.659 -0.2364 -0.2744  0.0556
 3851W        W19660  11.715   4.795  12.771  0.0079  0.0364 -0.3026
 3852W        W19661  15.335   1.874   5.046  0.2701 -0.3438  0.0058
 3853W        W19662   1.073  10.779   2.703 -0.2543  0.0574  0.0019
 3854W        W19663  10.169  14.028   0.920  0.2308 -0.0426 -0.0661
 3855W        W19664  12.234   5.654  15.787 -0.3132  0.0887  0.1205
 3856W        W19665   5.082  15.318   0.848  0.0030 -0.1284  0.1305
 3857W        W19666  15.763   5.516   5.446 -0.2131  0.1744 -0.2708
 3858W        W19667  11.597   2.599   2.768  0.1369 -0.1117  0.0724
 3859W        W19668  10.732   5.910   4.378  0.0880  0.0106  0.0751
 3860W        W19669   5.495   4.998   3.843 -0.0448  0.1589  0.1285
 3861W        W19670   3.617   2.217  11.435  0.1770  0.0157  0.0449
 3862W        W19671  14.778  12.783   3.410  0.1460  0.2690 -0.2219
 3863W        W19672   2.349  10.327  13.188 -0.1919 -0.2359  0.0285
 3864W        W19673   9.832  13.398  15.429  0.0475 -0.1455 -0.1303
 3865W        W19674  15.242  11.546  11.801  0.0209  0.2537 -0.1063
 3866W        W19675   9.409  10.671  15.325 -0.2026  0.0346  0.1073
 3867W        W19676   4.473   0.978   1.726  0.0614  0.1972  0.1599
 3868W        W19677   2.062   1.870   1.714 -0.1653 -0.1166 -0.0128
 3869W        W19678  16.651   8.936  15.769 -0.0960  0.0404 -0.4182
 3870W        W19679  10.028   5.768   2.260 -0.0253 -0.2961  0.5158
 3871W        W19680  13.253   6.650  12.208  0.1585  0.1418  0.0472
 3872W        W19681   0.956   7.501   4.159  0.0503 -0.3328 -0.1599
 3873W        W19682  14.277  17.096  15.906 -0.0856  0.2316 -0.0634
 3874W        W19683   7.120   6.089   3.950  0.1551  0.2069  0.1079
 3875W        W19684   0.466   0.419  15.432 -0.0944 -0.0046 -0.1431
 3876W        W19685  15.949  16.900  14.652  0.1622  0.1513  0.1802
 3877W        W19686  17.518  12.393   4.318  0.0423 -0.0683 -0.0120
 3878W        W19687  13.436   2.684   4.146  0.0076 -0.0946  0.2291
 3879W        W19688  16.839   2.705   1.138 -0.0830  0.0103 -0.2564
 3880W        W19689   6.274  10.777  11.440  0.2045 -0.0346  0.1764
 3881W        W19690  14.877  12.999  14.345  0.1292  0.0929  0.0118
 3882W        W19691   7.316  11.374  13.687  0.2964  0.3306 -0.0799
 3883W        W19692   5.498   1.899  16.279 -0.0783 -0.3031 -0.1094
 3884W        W19693  17.951  15.252  14.408 -0.2788  0.0305  0.3637
 3885W        W19694   3.941  13.918  15.427  0.0462 -0.0493 -0.1552
 3886W        W19695   6.631  14.583   4.822  0.0187 -0.2026 -0.2387
 3887W        W19696   6.719  13.517   0.650 -0.0579 -0.0242  0.0780
 3888W        W19697   0.395   6.294   1.364  0.0859 -0.1081 -0.0833
 3889W        W19698   3.458  17.214  14.708  0.1000  0.1848 -0.1358
 3890W        W19699  10.535  17.384  13.488  0.1274 -0.0675  0.0854
 3891W        W19700   4.359  11.078   3.780 -0.0693 -0.0169 -0.2150
 3892W        W19701   1.884   2.196  13.765  0.0496 -0.1291 -0.1645
 3893W        W19702  14.947  13.955  13.346  0.3805  0.2723  0.1508
 3894W        W19703  17.527   2.954  11.206  0.2821  0.0347 -0.2956
 3895W        W19704   4.172  12.236   3.740  0.0523 -0.1860  0.2290
 3896W        W19705   8.319  15.482  15.062 -0.1303 -0.0193  0.0826
 3897W        W19706   1.068  13.846   1.229  0.0369  0.0257  0.1316
 3898W        W19707  12.638  10.216   2.789 -0.2117  0.2680 -0.0812
 3899W        W19708  16.741   7.932   3.597  0.0381  0.0080 -0.0302
 3900W        W19709   5.252   2.810   3.044  0.1839  0.1852 -0.0534
 3901W        W19710  16.566  12.376  13.159  0.1257  0.0513  0.0033
 3902W        W19711  11.994  12.234   6.570  0.3781 -0.0814  0.2426
 3903W        W19712   4.754   1.159   4.882  0.4969 -0.0240 -0.1723
 3904W        W19713   6.394   8.890   0.960  0.0088  0.2848 -0.2157
 3905W        W19714  16.308   6.471   2.839 -0.2491 -0.1477 -0.0842
 3906W        W19715   1.659   2.053  11.907  0.0371  0.1702  0.0709
 3907W        W19716   9.932  16.736   3.120  0.1959  0.4733 -0.2639
 3908W        W19717   7.737   7.589   0.932 -0.0918 -0.0335 -0.1145
 3909W        W19718  16.708  17.599  16.619  0.1484 -0.1548 -0.1695
 3910W        W19719  10.426  14.226  16.628  0.0557 -0.0756  0.3618
 3911W        W19720   7.465  15.116  11.274 -0.0423 -0.0847  0.0972
 3912W        W19721  17.071   4.410  12.330 -0.2720 -0.2521 -0.2072
 3913W        W19722   9.870   2.607  12.854  0.1808 -0.3098 -0.3411
 3914W        W19723  17.303  13.868   2.326 -0.0153 -0.0080  0.0242
 3915W        W19724  15.513   0.811   1.517 -0.0042  0.3208  0.3209
 3916W        W19725   9.637   4.099  14.124  0.4463  0.3034  0.1124
 3917W        W19726  11.952   3.365   3.328  0.1425  0.4319 -0.1369
 3918W        W19727  15.519  15.789   4.973 -0.1564  0.0839  0.0993
 3919W        W19728  11.651  12.259  16.220 -0.5071 -0.0839 -0.0510
 3920W        W19729  10.641   0.860  14.771 -0.1221  0.2526 -0.0251
 3921W        W19730  15.379  14.796  14.951 -0.1254 -0.0915  0.1816
 3922W        W19731  11.179  13.923   2.057  0.0501  0.0821  0.0087
 3923W        W19732   6.625   7.780  12.801 -0.0903  0.1721 -0.2323
 3924W        W19733  14.351   8.809  11.654  0.0585  0.1071 -0.2006
 3925W        W19734  10.381  14.522  12.646  0.0236  0.0444 -0.2306
 3926W        W19735  17.680   2.259  16.149  0.2936  0.2402 -0.1679
 3927W        W19736   7.797   3.145   0.629 -0.0118 -0.0101  0.0627
 3928W        W19737  13.537  11.425  15.398 -0.2659 -0.0039 -0.0265
 3929W        W19738  14.708   9.982  16.635 -0.0444  0.1423  0.2094
 3930W        W19739   4.485   4.719   3.527 -0.0784  0.2344  0.0872
 3931W        W19740   7.968  14.924  13.618 -0.1570 -0.0833  0.1546
 3932W        W19741   5.604   3.711  13.714 -0.2164  0.4669  0.0004
 3933W        W19742   5.455   8.154   3.261 -0.0118 -0.2168  0.0734
 3934W        W19743  15.270   3.734  11.549  0.0296 -0.2670 -0.0450
 3935W        W19744  11.841  15.482  12.580  0.1462 -0.1651 -0.0687
 3936W        W19745   1.480   9.022   3.661 -0.1535 -0.3740  0.1952
 3937W        W19746   8.487  14.373  14.744 -0.3201  0.1555  0.0357
 3938W        W19747   2.350  13.655   0.790 -0.0504  0.0204  0.1803
 3939W        W19748  14.380  17.856  15.356  0.0151  0.0237  0.1045
 3940W        W19749   3.684   4.689   3.267 -0.0580 -0.0188  0.2480
 3941W        W19750  11.753  11.842   4.921  0.2038 -0.0116 -0.1264
 3942W        W19751   1.428  16.312   6.184 -0.1805 -0.1265 -0.0038
 3943W        W19752   6.379   0.204  11.372  0.0290 -0.2746  0.3004
 3944W        W19753   3.309   9.183   3.008  0.1072 -0.0739 -0.1542
 3945W        W19754   2.890  13.339  11.288  0.0967  0.1415  0.2186
 3946W        W19755   3.821  17.171  13.377 -0.0673  0.3978  0.0049
 3947W        W19756   3.943   1.238  16.093  0.4419  0.5795 -0.0748
 3948W        W19757   1.694  17.609   5.588  0.0232  0.1131 -0.1403
 3949W        W19758   2.998   7.251  11.717 -0.1375  0.0559  0.0251
 3950W        W19759  17.505   1.950   4.247  0.0330 -0.3837 -0.1439
 3951W        W19760  16.800  14.459   5.423 -0.0712  0.1538  0.0864
 3952W        W19761   0.146   2.610  16.006  0.1046  0.2093  0.3213
 3953W        W19762  15.716   4.226  12.598  0.3632  0.4028 -0.0977
 3954W        W19763   5.342   5.413   1.681 -0.1499  0.0378 -0.2281
 3955W        W19764  14.898  13.196   4.235 -0.1336  0.2443 -0.0120
 3956W        W19765  14.955   4.901   4.546 -0.0814 -0.0276  0.0488
 3957W        W19766   6.456  14.504   2.592  0.0393 -0.1512 -0.0693
 3958W        W19767   7.118  10.608  13.270  0.1591  0.2534 -0.2112
 3959W        W19768  12.642   6.667  14.251  0.0599 -0.0751  0.2175
 3960W        W19769   6.911   3.309  14.895  0.2074  0.0973  0.0496
 3961W        W19770  12.745   4.103   1.397 -0.1452 -0.1170  0.3447
 3962W        W19771  17.270  12.115   4.639  0.1308  0.2175 -0.3116
 3963W        W19772  10.201   7.648  13.688  0.0011 -0.3039 -0.0284
 3964W        W19773  17.216  14.421  16.634 -0.0659 -0.0019  0.0109
 3965W        W19774  12.558  11.991  10.841 -0.1288  0.1761  0.0220
 3966W        W19775   4.630  10.685  11.254  0.0712  0.1871 -0.0693
 3967W        W19776   5.006   1.573   4.864 -0.1242 -0.3656  0.0208
 3968W        W19777   5.972   7.230  14.329 -0.1319 -0.1379 -0.3021
 3969W        W19778   9.379   4.474   5.546 -0.2028 -0.1324  0.0350
 3970W        W19779   6.612  16.316  16.020  0.2842 -0.0627 -0.0967
 3971W        W19780   3.064  13.011  15.042  0.3532 -0.1749 -0.0146
 3972W        W19781   4.017  17.585   0.308 -0.3990  0.1388  0.1243
 3973W        W19782  16.209  13.317  14.613 -0.0333  0.3777  0.0245
 3974W        W19783  11.373   6.421  14.080  0.3014  0.2179 -0.0649
 3975W        W19784   8.808   9.543  12.034 -0.0959 -0.0797 -0.0169
 3976W        W19785   5.630   3.148   1.344 -0.2565  0.3852 -0.0026
 3977W        W19786  17.348   0.672  14.656  0.0215  0.1591  0.0463
 3978W        W19787   2.195  17.025  16.504  0.1349  0.0246  0.1090
 3979W        W19788   1.374   7.965  15.142 -0.0318 -0.3099  0.2716
 3980W        W19789   6.353   8.023  13.216 -0.0024 -0.0764  0.2440
 3981W        W19790  15.108   2.478   6.226 -0.1068  0.2294 -0.2792
 3982W        W19791   2.123  15.676  15.776 -0.2523  0.0020 -0.0808
 3983W        W19792   0.550   4.077  15.139 -0.1239 -0.2247  0.1368
 3984W        W19793   5.371   3.699   0.274  0.2330  0.2072  0.1436
 3985W        W19794  11.409   5.723   5.300 -0.1205  0.0170 -0.0471
 3986W        W19795  10.290  11.322  16.021  0.2054 -0.1756  0.2324
 3987W        W19796  15.134   1.572   3.349  0.1044 -0.0628  0.0162
 3988W        W19797  10.381   3.521  16.592  0.1175  0.2559  0.0946
 3989W        W19798   3.488   9.517   1.610 -0.1576  0.0893 -0.1648
 3990W        W19799   1.528  10.296  13.644 -0.1630 -0.2240  0.3458
 3991W        W19800   9.364   3.668  16.420 -0.0253  0.2091  0.0385
 3992W        W19801  14.803  12.572   4.399 -0.3029  0.0866 -0.1056
 3993W        W19802  16.577   4.188  12.244  0.0566 -0.4153 -0.0167
 3994W        W19803  15.955  11.693  12.171 -0.0387  0.1542 -0.1954
 3995W        W19804  12.367  10.959   4.608 -0.0876 -0.1973 -0.0641
 3996W        W19805   8.938   3.650   0.079 -0.0389  0.1001  0.0328
 3997W        W19806   2.383  14.456   1.332  0.3942 -0.2635  0.2837
 3998W        W19807   2.880  15.243  14.020 -0.0802 -0.2603  0.0510
 3999W        W19808   9.827  17.493   1.674 -0.0706 -0.2131 -0.2802
 4000W        W19809   6.071   4.916  14.137 -0.0433 -0.0555  0.0128
 4001W        W19810   9.751  10.871   2.215 -0.1126 -0.0255  0.1805
 4002W        W19811   3.297   2.879  15.772 -0.0492  0.2056  0.0515
 4003W        W19812   5.185  14.074   5.273  0.1747  0.0833  0.0864
 4004W        W19813  12.411   1.412   5.203 -0.1832  0.4280  0.3599
 4005W        W19814  12.301  13.706   5.281 -0.2335  0.5504 -0.1865
 4006W        W19815  11.544  12.861   4.031  0.0866 -0.0793  0.0056
 4007W        W19816   9.609  13.140   2.002 -0.1038 -0.0768 -0.0705
 4008W        W19817   2.025  15.239   0.900  0.0621 -0.0361  0.0206
 4009W        W19818  15.277  11.037   3.277  0.1347 -0.2113 -0.2723
 4010W        W19819  14.794  15.913   6.355 -0.5143  0.0175 -0.0828
 4011W        W19820   8.216   2.519   0.821  0.0417  0.1701 -0.1567
 4012W        W19821  10.979  17.869  13.562 -0.1675 -0.0231 -0.0117
 4013W        W19822   6.990  12.664  14.460 -0.1333 -0.0292 -0.0102
 4014W        W19823   2.694  14.603  14.297  0.0455 -0.2159 -0.1775
 4015W        W19824  10.986  15.210   2.394 -0.3407 -0.1487  0.0889
 4016W        W19825   8.161   8.799   0.961 -0.1506  0.0124  0.0134
 4017W        W19826   2.553   8.403  15.597  0.0981 -0.0250 -0.2232
 4018W        W19827  11.015   8.672   0.700  0.0280 -0.1581 -0.1487
 4019W        W19828  17.198   0.074  13.025  0.1899 -0.0593 -0.2573
 4020W        W19829   1.765  12.956   2.494  0.1445  0.1369 -0.2677
 4021W        W19830   2.698  16.518  13.610 -0.0698 -0.0925 -0.1749
 4022W        W19831  11.539   4.893  14.050  0.0648 -0.2647 -0.5731
 4023W        W19832   0.121  14.189   0.889 -0.0847  0.0552 -0.1615
 4024W        W19833  17.489   5.667  12.909 -0.1403  0.1705 -0.0576
 4025W        W19834   6.482  13.799  15.593 -0.2585 -0.2996 -0.2229
 4026W        W19835   4.145   5.167  13.889 -0.0331  0.1217  0.0453
 4027W        W19836  13.097  12.388   4.552  0.3248  0.1887  0.1037
 4028W        W19837   5.889  14.151  14.389 -0.0912 -0.0807 -0.1351
 4029W        W19838   4.188  14.857  15.413 -0.0537 -0.2059  0.1486
 4030W        W19839  15.137  15.541   1.949  0.0785  0.2059  0.3721
 4031W        W19840  17.007  12.613   5.211  0.2257 -0.0859 -0.0982
 4032W        W19841   4.809   1.220   0.661 -0.0392  0.1112  0.2815
 4033W        W19842  17.847   0.825   5.891  0.0676 -0.2000 -0.0637
 4034W        W19843  16.349  16.598   5.537 -0.0701 -0.0018  0.0492
 4035W        W19844   2.993  12.590  12.039  0.3078 -0.0177  0.2242
 4036W        W19845  12.064   1.995   3.197 -0.1223 -0.1354 -0.0046
 4037W        W19846   9.116  12.510  11.180  0.0262 -0.0921 -0.2567
 4038W        W19847   9.441   8.474  16.504 -0.2812  0.3065 -0.1989
 4039W        W19848   3.722   5.617   4.422  0.1173 -0.0759 -0.0020
 4040W        W19849  11.860   6.440   1.134  0.0110 -0.2975 -0.0876
 4041W        W19850   9.865   4.899  13.332 -0.0117  0.0151 -0.1450
 4042W        W19851  13.589   8.171   2.008 -0.1301  0.0104  0.0584
 4043W        W19852   7.439   6.980  15.473  0.0185 -0.2904  0.1300
 4044W        W19853   0.017  15.842   3.369 -0.3264  0.4230  0.0573
 4045W        W19854   6.635   8.675   1.328  0.2291 -0.2494 -0.4168
 4046W        W19855   2.022   0.839   5.440  0.1417  0.2457 -0.0742
 4047W        W19856  16.422   0.492  15.506  0.0445  0.0580 -0.2062
 4048W        W19857   8.258   5.523   2.004  0.0759  0.0228  0.1064
 4049W        W19858   2.735   8.685  14.196 -0.1760 -0.2611 -0.0132
 4050W        W19859   2.691   3.692   3.756 -0.0823 -0.1051 -0.1449
 4051W        W19860   3.057   1.524   3.500 -0.2503  0.4276 -0.0822
 4052W        W19861  13.316  15.629  16.122 -0.3274  0.1937  0.3279
 4053W        W19862  13.473   7.052   1.782 -0.1942  0.1928 -0.1706
 4054W        W19863   4.621   0.490   1.871 -0.0422 -0.0599  0.1993
 4055W        W19864   7.674  14.304   2.976 -0.1120 -0.0741  0.0031
 4056W        W19865  10.693  13.300  13.853 -0.1090  0.1884  0.0708
 4057W        W19866   8.967  15.512   3.319  0.1626 -0.0742  0.0981
 4058W        W19867  14.651   3.803  12.650 -0.0187 -0.1930 -0.3104
 4059W        W19868   3.856  13.315  14.068  0.0216  0.0128 -0.1873
 4060W        W19869  12.785   7.760  15.790  0.0382  0.2139  0.1647
 4061W        W19870   9.412   0.627  15.146  0.0249 -0.1072  0.0168
 4062W        W19871  14.313  14.266   3.735  0.0968  0.1356  0.2329
 4063W        W19872   7.554  12.777  13.790  0.2052  0.0851 -0.1718
 4064W        W19873   7.411   8.474   1.409 -0.0827 -0.0732 -0.0569
 4065W        W19874   9.264   3.180   4.791 -0.2510  0.0980 -0.0181
 4066W        W19875   3.854  16.125   4.883 -0.2185 -0.0933  0.1166
 4067W        W19876   3.947   7.676  14.482  0.3153  0.1224  0.1131
 4068W        W19877   6.964   6.946  11.556 -0.3038 -0.0067 -0.2495
 4069W        W19878   7.517  15.184  14.774 -0.1805  0.2273 -0.1591
 4070W        W19879  13.664   9.854   0.768  0.3267 -0.2934  0.0806
 4071W        W19880  15.177  11.834   4.350 -0.0220  0.0132  0.1691
 4072W        W19881  12.968  12.065  11.850  0.0688  0.2778  0.0819
 4073W        W19882   5.251   0.683  15.529  0.2000 -0.0310 -0.0463
 4074W        W19883  12.958  12.786   3.557  0.2235 -0.1108  0.0335
 4075W        W19884   2.603   9.152  13.901  0.1200  0.2052  0.4908
 4076W        W19885  13.725   5.918  11.871 -0.0860 -0.4487 -0.0552
 4077W        W19886  12.089   7.210   4.546 -0.2695  0.2024 -0.1768
 4078W        W19887   3.329   8.700  12.071  0.2493 -0.0063  0.0249
 4079W        W19888  14.029  11.568  15.404  0.0942  0.0256  0.0558
 4080W        W19889  13.538  17.366   1.709  0.1377  0.0468 -0.1177
 4081W        W19890   8.382   9.013  16.200  0.2849  0.3166  0.3261
 4082W        W19891   6.897   8.522  15.375  0.2431 -0.0107  0.0560
 4083W        W19892   4.961  12.343  15.459 -0.0292 -0.0190 -0.2917
 4084W        W19893  12.862  17.788  16.127  0.0075 -0.0027 -0.2204
 4085W        W19894  13.963  14.284   4.541  0.0143  0.2420  0.0752
 4086W        W19895  10.520  13.416  16.498  0.0234  0.1588 -0.1090
 4087W        W19896   4.336   1.547   0.706  0.2724  0.1349  0.2078
 4088W        W19897   3.843   0.340  14.537 -0.0381  0.1396 -0.1308
 4089W        W19898  16.007   7.389   5.599  0.0629  0.0650  0.0620
 4090W        W19899   4.466   1.644  11.267  0.2316 -0.2682 -0.0067
 4091W        W19900   8.998   1.132  12.370  0.0225  0.3310  0.0039
 4092W        W19901   0.533  17.912   1.730 -0.0839 -0.0111 -0.0363
 4093W        W19902   0.412   6.824  12.807  0.0005 -0.0158 -0.1232
 4094W        W19903   8.230   7.676   3.493  0.2764  0.0542 -0.0514
 4095W        W19904  14.310   1.732   5.408 -0.0957  0.0362  0.1102
 4096W        W19905  10.136   4.375   3.288  0.3356 -0.3234 -0.3322
 4097W        W19906   9.206  17.059   4.749 -0.3319  0.0582 -0.1017
 4098W        W19907   0.291   7.412   5.219  0.2412 -0.0165 -0.0962
 4099W        W19908   0.833   6.989   1.563  0.0414 -0.6355  0.1102
 4100W        W19909  10.760  17.221   1.350 -0.1417 -0.2899  0.0747
 4101W        W19910  13.012   1.598  12.889  0.0870 -0.1413  0.1393
 4102W        W19911   5.303   4.032  15.654  0.1997  0.0447 -0.5243
 4103W        W19912  17.683  13.155  15.554 -0.0462  0.0057 -0.0027
 4104W        W19913  17.543   4.373  12.141 -0.3307 -0.2577 -0.0411
 4105W        W19914  15.359   4.082  12.973  0.1306 -0.2154 -0.1053
 4106W        W19915   1.857   5.995   1.043 -0.3911  0.1363 -0.1301
 4107W        W19916  13.200  16.804  16.374 -0.2121  0.1528 -0.1375
 4108W        W19917  15.404   0.945   4.709  0.1020 -0.0735  0.1664
 4109W        W19918   7.230  16.682   3.808 -0.0897 -0.0088  0.0504
 4110W        W19919  14.445  12.064   2.881 -0.2037 -0.3156  0.1839
 4111W        W19920  17.866   2.225  12.999 -0.0084 -0.0842 -0.0030
 4112W        W19921   8.439   7.229  15.478 -0.0666 -0.1558 -0.0443
 4113W        W19922  16.543  17.311   1.461  0.3282 -0.1690 -0.1268
 4114W        W19923   7.204  11.428   3.385  0.3218 -0.0456  0.0454
 4115W        W19924   9.876  12.724  13.632 -0.0328 -0.0748  0.1860
 4116W        W19925  13.307   3.412   1.711 -0.0831 -0.1051 -0.0672
 4117W        W19926   6.878   7.280   5.473  0.3000 -0.3328  0.0639
 4118W        W19927  14.378   5.979   4.747  0.0312 -0.0464  0.2727
 4119W        W19928  13.977  13.117  14.276  0.3122  0.0089 -0.2001
 4120W        W19929   8.802   9.139  15.356  0.2337 -0.0810 -0.1341
 4121W        W19930  12.503  10.203   0.753  0.1212 -0.3458 -0.1662
 4122W        W19931  10.276  10.160  15.227 -0.1222  0.1950 -0.1767
 4123W        W19932   0.570   9.623   1.268  0.1693  0.1921  0.0016
 4124W        W19933   6.728  10.856  13.086 -0.0969  0.0319 -0.3390
 4125W        W19934   6.052  12.109   4.533 -0.2185 -0.0042  0.0921
 4126W        W19935   4.038   2.875   2.229 -0.0404 -0.3672 -0.0582
 4127W        W19936  14.292   3.411   4.506  0.2312  0.1331  0.1072
 4128W        W19937  12.682  16.883  11.378 -0.0614 -0.1886 -0.1692
 4129W        W19938   4.828  13.232   0.211 -0.0389  0.0771 -0.1273
 4130W        W19939  13.136   0.159  15.182 -0.1881 -0.3225  0.0506
 4131W        W19940   4.034  17.095   0.586 -0.0444 -0.1193 -0.3356
 4132W        W19941   0.742  11.475  16.530  0.0623  0.4179  0.2468
 4133W        W19942   7.497  11.324   0.342  0.0041 -0.2106  0.1190
 4134W        W19943   5.635  16.640  11.348 -0.2713 -0.2110  0.0047
 4135W        W19944  11.474  13.553   0.247  0.1030  0.1864 -0.1081
 4136W        W19945   8.166   3.657  12.670 -0.3133 -0.2664  0.0126
 4137W        W19946  11.158  15.315  14.107 -0.1445 -0.3083  0.2091
 4138W        W19947   1.859   6.887  15.125  0.2016  0.0363 -0.0198
 4139W        W19948  10.252   3.605  12.722 -0.3520  0.1268  0.1249
 4140W        W19949  13.522  10.989  14.942  0.3156 -0.1336  0.2475
 4141W        W19950  13.118  14.551  12.789 -0.3311  0.2941 -0.2523
 4142W        W19951   1.237  14.669   3.179 -0.1631 -0.0306 -0.0977
 4143W        W19952  10.662  15.948   5.083 -0.0050 -0.1106 -0.0883
 4144W        W19953   2.831   5.718   3.567 -0.2896  0.2209 -0.0779
 4145W        W19954  15.933  14.762  13.406 -0.2450  0.0060  0.0671
 4146W        W19955   5.519  16.574   4.598 -0.0796 -0.0956 -0.0423
 4147W        W19956  15.983   8.185  14.927  0.1099  0.1373 -0.1965
 4148W        W19957   7.614  15.874  13.448 -0.1592 -0.2450 -0.1316
 4149W        W19958  13.731  17.261  15.054 -0.2622 -0.0666  0.1406
 4150W        W19959   7.514  11.895  12.935 -0.0337  0.2794 -0.1662
 4151W        W19960   4.035  15.443   1.447  0.0637  0.2021 -0.2270
 4152W        W19961   3.154   0.878   2.052 -0.0121 -0.4383  0.2469
 4153W        W19962   3.229   9.013  12.878  0.1336  0.2279 -0.0518
 4154W        W19963  15.227  13.573   2.103  0.0014 -0.1478  0.1804
 4155W        W19964  16.602   9.610  12.337  0.2641  0.0495 -0.1407
 4156W        W19965  17.201  10.082   6.157  0.2708 -0.0969  0.2807
 4157W        W19966  17.063   7.579  13.218 -0.3693  0.1131  0.0843
 4158W        W19967   3.868  14.491  11.395  0.1848 -0.0482 -0.2917
 4159W        W19968  13.671  12.632  12.267  0.1843 -0.2227  0.0250
 4160W        W19969   3.939   6.454  11.875 -0.2191  0.1959  0.1711
 4161W        W19970  11.298  15.334   2.856 -0.0718  0.1346  0.0496
 4162W        W19971   9.909  16.514  15.418 -0.0171 -0.1003  0.0886
 4163W        W19972   3.421  16.507  15.903  0.3176 -0.0895 -0.3161
 4164W        W19973   7.420  14.251   4.331  0.0627  0.2357 -0.1410
 4165W        W19974   7.943  15.251   5.602 -0.0088  0.2085 -0.0612
 4166W        W19975  13.319   2.341   4.537  0.3775 -0.1989 -0.1438
 4167W        W19976  13.318  14.235   4.528  0.0442 -0.2586  0.1251
 4168W        W19977   8.429   7.337  12.415 -0.2055  0.1287  0.0325
 4169W        W19978   5.335  12.489  15.751 -0.2354 -0.0334 -0.0194
 4170W        W19979  12.185   3.289   5.021 -0.0001 -0.0892  0.0541
 4171W        W19980  12.910  15.647  11.890 -0.0920 -0.4604  0.0641
 4172W        W19981   3.824   5.517   1.556  0.1331 -0.0783  0.4903
 4173W        W19982   5.027  13.242   1.834 -0.1239  0.0481 -0.1981
 4174W        W19983   0.830  14.974  10.839 -0.0446 -0.1037  0.1085
 4175W        W19984  12.189  12.197  11.687 -0.2802  0.0878  0.1547
 4176W        W19985   2.495  15.207  11.565 -0.1641  0.1366  0.1565
 4177W        W19986  11.014   9.334   1.302 -0.1560  0.2372  0.3164
 4178W        W19987   1.170  11.564  11.628  0.1893  0.0261  0.2962
 4179W        W19988   2.491   0.131   5.410 -0.0432 -0.2021  0.1949
 4180W        W19989  15.123  10.678   2.964  0.3377  0.1242 -0.0242
 4181W        W19990   6.101  16.021   5.013 -0.0518 -0.0539 -0.0278
 4182W        W19991  11.552   3.170   6.524 -0.0417  0.2690 -0.0540
 4183W        W19992  13.257  17.747  14.559  0.2953  0.0448 -0.3051
 4184W        W19993   9.095   5.027  13.834 -0.3868 -0.1367 -0.0513
 4185W        W19994  11.232  14.774   2.922 -0.1486  0.1925  0.3979
 4186W        W19995   9.900   2.560  16.324  0.1007  0.0877 -0.3799
 4187W        W19996   0.763   2.027  11.837 -0.2955 -0.3668  0.1394
 4188W        W19997  10.948   9.227   0.007  0.0412 -0.0475 -0.0843
 4189W        W19998   3.562   4.768   1.665 -0.1421  0.0604 -0.2292
 4190W        W19999  12.070   8.872   1.044 -0.1580 -0.0944 -0.1908
 4191W        W20000  14.479   0.999   2.681 -0.1038  0.1855 -0.1287
 4192W        W20001   0.203   5.273   5.868 -0.2297  0.1356 -0.0889
 4193W        W20002   1.792  12.786  16.662  0.0167  0.3695 -0.0164
 4194W        W20003   2.852   7.250   5.755 -0.0065 -0.0890 -0.0027
 4195W        W20004   9.165  16.110   1.719 -0.0750 -0.0129 -0.0256
 4196W        W20005   4.088   7.801  10.514 -0.2495 -0.0062 -0.0601
 4197W        W20006   2.051   6.725  13.178 -0.0558 -0.1355 -0.0304
 4198W        W20007   1.561   1.563   0.010  0.0327  0.0601  0.2307
 4199W        W20008   4.777   4.981   3.195  0.0365  0.2756 -0.0484
 4200W        W20009  16.445   1.562   6.044  0.0880  0.1018  0.2651
 4201W        W20010   5.013  12.641   1.147 -0.0808 -0.1330  0.0036
 4202W        W20011   3.935  17.535  13.862  0.2864  0.0564 -0.0512
 4203W        W20012  13.215  16.921   6.124 -0.0158  0.1732 -0.0936
 4204W        W20013  15.909   0.611  13.088 -0.4685 -0.0161 -0.0408
 4205W        W20014   1.244  17.740  14.099 -0.2344  0.2292  0.1643
 4206W        W20015  16.658   4.430   5.659  0.2675  0.3212  0.0926
 4207W        W20016   7.496  10.384   0.592 -0.1523  0.0369 -0.1642
 4208W        W20017  17.679   5.870   2.714  0.1679 -0.2850  0.0905
 4209W        W20018  14.376   2.424  12.727  0.1067 -0.0197 -0.3092
 4210W        W20019   7.559   9.253  11.216  0.0140  0.0385 -0.1099
 4211W        W20020  16.893  11.079  12.966 -0.0021 -0.1825  0.1560
 4212W        W20021  10.032  15.707   1.496 -0.0069  0.1631  0.0400
 4213W        W20022   7.750   8.868   5.432 -0.0527 -0.2559 -0.0790
 4214W        W20023  10.742  10.657   2.384 -0.2606 -0.1515 -0.2317
 4215W        W20024   7.053  17.803  15.150 -0.0831 -0.1045  0.1347
 4216W        W20025   6.074  17.425   0.190  0.1302  0.3298 -0.0032
 4217W        W20026   3.588   8.703   0.629 -0.0784 -0.3067 -0.0773
 4218W        W20027   1.711   7.828  11.947  0.0940 -0.0796  0.1889
 4219W        W20028  13.343  17.029   5.170  0.2159 -0.0539 -0.1074
 4220W        W20029  12.990  17.902   3.845 -0.4444 -0.1470 -0.0465
 4221W        W20030   2.511   2.462  14.656 -0.3647  0.0828  0.2691
 4222W        W20031   5.985  15.851  12.894  0.2768  0.1854  0.1246
 4223W        W20032  12.688   1.100  14.953 -0.1199 -0.0820  0.1304
 4224W        W20033   0.539  13.616  11.595  0.0428  0.0154  0.1277
 4225W        W20034   2.263   2.960  12.143 -0.3007 -0.0702  0.0062
 4226W        W20035   0.888  14.247   5.403 -0.2862 -0.4518 -0.2365
 4227W        W20036   4.266   9.738  11.504  0.1616  0.3669  0.1031
 4228W        W20037   2.194  11.535   5.543  0.0031 -0.0781 -0.1486
 4229W        W20038  10.176  14.038   1.672  0.1927 -0.1690 -0.0237
 4230W        W20039   4.831   0.402   0.416  0.0598  0.0541  0.0212
 4231W        W20040   7.856   4.909  16.024 -0.0006 -0.1196  0.0458
 4232W        W20041  12.028  16.814  14.925  0.1545  0.0006 -0.0662
 4233W        W20042  12.106  14.302  13.286 -0.1281 -0.0370  0.0958
 4234W        W20043   4.695  11.356  16.501 -0.1765  0.0655  0.1230
 4235W        W20044  13.745  16.964   1.953  0.0144 -0.1563 -0.1942
 4236W        W20045   2.373  17.542  16.691 -0.1270  0.1673 -0.1342
 4237W        W20046   3.586   1.626  11.270 -0.0199  0.0869  0.0295
 4238W        W20047   1.822   8.935  14.971 -0.0880 -0.1361 -0.1111
 4239W        W20048  16.012  12.427   6.078  0.0400  0.1335 -0.3864
 4240W        W20049  17.844   3.398   4.251 -0.2922 -0.0930 -0.2482
 4241W        W20050  12.904  11.391   3.200  0.3114 -0.0425  0.0981
 4242W        W20051   3.567   7.619   2.155 -0.0836 -0.0730 -0.0233
 4243W        W20052   5.442   9.145   0.955  0.1462  0.2936 -0.0867
 4244W        W20053   4.050   1.926   3.094  0.2585  0.0342  0.0458
 4245W        W20054  17.182  16.766   6.169  0.1649  0.1242  0.0394
 4246W        W20055  14.524  10.121   0.404 -0.2602 -0.0043 -0.0259
 4247W        W20056   1.285  10.320  16.146  0.1280  0.0200 -0.3154
 4248W        W20057  12.101  10.531  12.367 -0.2477 -0.1567  0.0001
 4249W        W20058  13.260   7.471   0.400 -0.1011  0.1691  0.2405
 4250W        W20059   9.369   8.826   1.829  0.2640 -0.2944 -0.0309
 4251W        W20060  11.859   0.612  14.846  0.0741 -0.1971  0.0691
 4252W        W20061   1.450   4.705   0.382  0.1192  0.1155 -0.1224
 4253W        W20062  13.438   0.248   3.821 -0.3481 -0.0757  0.1099
 4254W        W20063   4.728  16.140   0.465 -0.0746  0.1920  0.1343
 4255W        W20064  16.343  15.889  14.581  0.1507 -0.0258 -0.2183
 4256W        W20065  17.141   7.088  16.550  0.2483 -0.0272  0.0029
 4257W        W20066   7.444   0.884   1.985  0.0306  0.1462 -0.0763
 4258W        W20067   0.652   5.338  14.375  0.0125  0.0475 -0.0525
 4259W        W20068   8.709  11.544   1.672  0.1912  0.2547  0.0078
 4260W        W20069   9.752  16.295  12.173  0.3104 -0.3601 -0.0549
 4261W        W20070  13.075  12.301   3.596 -0.2180 -0.0181  0.1879
 4262W        W20071   1.894   0.498  11.884  0.0076 -0.3348 -0.1502
 4263W        W20072   5.383   0.499  11.534 -0.0896 -0.0356  0.0730
 4264W        W20073   2.374  14.686  11.593 -0.2671 -0.0002 -0.1722
 4265W        W20074   7.898  13.216   1.250 -0.0733 -0.3732 -0.0368
 4266W        W20075   8.369   8.511   3.815 -0.2050 -0.2706 -0.0424
 4267W        W20076   3.005  11.118  13.710  0.0630 -0.0363  0.0966
 4268W        W20077   0.167   2.953   4.009  0.2582 -0.2235 -0.0981
 4269W        W20078  12.806  15.829   3.040  0.0721  0.2641  0.1129
 4270W        W20079   0.715   3.326  15.859  0.1588  0.0285  0.0460
 4271W        W20080   5.025  15.375   3.872 -0.0278 -0.0780 -0.6130
 4272W        W20081   8.100  12.062  12.326 -0.1502 -0.1069  0.0632
 4273W        W20082  14.935   4.053   4.004  0.0218 -0.0635 -0.1265
 4274W        W20083   8.724   5.147   3.909  0.1062 -0.1784  0.1460
 4275W        W20084  12.253   3.362   0.853  0.2709 -0.0231  0.1253
 4276W        W20085  12.093  17.741  16.469  0.2528 -0.0156 -0.0551
 4277W        W20086  10.889  11.339  15.516  0.0808 -0.2688  0.0482
 4278W        W20087  13.831   9.560   1.614  0.1329  0.0335  0.2685
 4279W        W20088   8.416   6.972   5.791 -0.1675  0.0740 -0.0461
 4280W        W20089   1.048   1.283  14.391  0.1458  0.0219  0.0676
 4281W        W20090  15.106   8.591  13.986  0.0280 -0.3120 -0.0122
 4282W        W20091   6.310   1.883   2.422  0.0347 -0.2911  0.1702
 4283W        W20092  10.476  15.038  12.501 -0.0114  0.0221 -0.0235
 4284W        W20093  12.762  16.055   1.009 -0.0840  0.1887  0.0471
 4285W        W20094  17.693  17.544  13.843 -0.2031  0.2190 -0.0820
 4286W        W20095   2.313  14.896  13.322  0.3572  0.4205  0.3589
 4287W        W20096   4.095  16.926  15.208  0.0344  0.0592  0.2285
 4288W        W20097  13.453   6.600   2.031  0.0918  0.2446  0.0375
 4289W        W20098  12.637  11.123   4.988 -0.0635 -0.1781  0.0702
 4290W        W20099   8.832  10.304   5.412  0.0740  0.1896 -0.3688
 4291W        W20100   3.649   2.086   2.156  0.0452 -0.3648 -0.1637
 4292W        W20101   5.187   4.609   2.973 -0.0590 -0.0496  0.0749
 4293W        W20102   7.669   5.740  11.276 -0.2446 -0.1821 -0.1638
 4294W        W20103   3.604   4.798  15.519 -0.0625  0.0027  0.0597
 4295W        W20104   8.107  16.931   3.754 -0.1006 -0.0722 -0.1156
 4296W        W20105  10.134  13.989   3.910 -0.0174 -0.2438  0.1667
 4297W        W20106  13.932   8.321  12.734 -0.1133  0.1629 -0.0582
 4298W        W20107  13.860  17.817   1.600  0.1190  0.0384  0.2355
 4299W        W20108  14.289  12.685   3.609  0.2204 -0.3502  0.0171
 4300W        W20109   6.295  14.067   3.132  0.1662 -0.3347 -0.2363
 4301W        W20110  10.087   4.980   0.637  0.0501 -0.0644 -0.1032
 4302W        W20111   3.731   9.097   1.014 -0.1088  0.4233 -0.3421
 4303W        W20112  12.035  11.202   2.859  0.2695  0.3845  0.1131
 4304W        W20113   0.085  11.132   4.213 -0.0276 -0.0857 -0.0375
 4305W        W20114  13.488   3.167  11.968  0.1621 -0.0431  0.0243
 4306W        W20115  15.065   0.296   3.051  0.3487 -0.2319 -0.1630
 4307W        W20116   3.778  13.483   6.047 -0.0104 -0.0551 -0.1115
 4308W        W20117   7.145   7.700   2.925  0.0249 -0.1135 -0.0024
 4309W        W20118   9.873   7.414  16.328 -0.0857  0.1264  0.1738
 4310W        W20119   1.383  17.249  13.906  0.0257 -0.2823 -0.1474
 4311W        W20120  13.597   3.182  13.400  0.3109 -0.0587 -0.1045
 4312W        W20121  12.848   4.982   3.244  0.0872 -0.3615  0.2283
 4313W        W20122  16.016  13.556  11.934  0.3849  0.1397  0.2975
 4314W        W20123  14.017   6.241  14.249 -0.1561  0.0757  0.1298
 4315W        W20124  10.277  16.414   1.355 -0.0891  0.1033  0.3389
 4316W        W20125  10.839  13.000  16.546 -0.0207  0.1482  0.0241
 4317W        W20126   0.088   4.031  13.752  0.1787 -0.1536  0.0277
 4318W        W20127   1.646  12.360  15.342 -0.1206 -0.0677  0.2421
 4319W        W20128   2.764  16.307   0.172 -0.0676 -0.0740  0.0937
 4320W        W20129  12.706   0.422  16.424  0.1397  0.0379 -0.2577
 4321W        W20130   1.056   6.260  14.675  0.0006  0.0332  0.0992
 4322W        W20131  17.895  11.620  13.991 -0.1559  0.1372 -0.3575
 4323W        W20132  13.267   3.550   3.581  0.3053  0.3189 -0.5077
 4324W        W20133   0.091   5.936   4.281  0.1395  0.0267 -0.2277
 4325W        W20134   0.088   1.731   3.081 -0.1329 -0.2892 -0.0330
 4326W        W20135  12.697   4.598  12.283  0.0058 -0.0468 -0.1657
 4327W        W20136   9.719   8.908  15.640 -0.2263 -0.0372  0.2236
 4328W        W20137   6.611  12.600  13.131  0.1586  0.1396  0.0316
 4329W        W20138   1.706   0.474   1.719  0.1525  0.0023 -0.0462
 4330W        W20139  17.752   2.589  11.017 -0.0209  0.1244 -0.1728
 4331W        W20140  16.273  15.548  11.586  0.1980 -0.0130 -0.2792
 4332W        W20141   0.816  10.071  10.724  0.0182 -0.2940 -0.2799
 4333W        W20142  17.728   0.059   4.603  0.1254 -0.1900  0.2488
 4334W        W20143  11.950   4.131   4.629  0.3008  0.2395 -0.0626
 4335W        W20144  12.589   3.309  12.389 -0.1351  0.4566  0.1560
 4336W        W20145  14.257   4.538  14.263  0.0381 -0.1670  0.5188
 4337W        W20146  10.693  17.549   3.544  0.2509 -0.0879 -0.0287
 4338W        W20147  15.319   5.308  15.208 -0.3712 -0.0668  0.1026
 4339W        W20148  17.058   9.901   5.305  0.3812 -0.1519 -0.0300
 4340W        W20149  15.804   8.815   2.091 -0.2072 -0.5541 -0.0697
 4341W        W20150   8.399  13.387   0.364 -0.0171  0.0984  0.1304
 4342W        W20151   6.800   2.993   0.129 -0.0014  0.0947 -0.1189
 4343W        W20152   6.852  14.338   4.381  0.2164  0.2910 -0.1806
 4344W        W20153   4.435   9.742  13.534  0.1263 -0.1137  0.0728
 4345W        W20154   5.060  13.292   1.033  0.4816 -0.3186 -0.4108
 4346W        W20155  15.951  11.777   1.810 -0.0156  0.0405  0.2380
 4347W        W20156   5.847   4.226  12.692 -0.0536 -0.0359  0.0800
 4348W        W20157   8.578   6.793   1.292  0.0984  0.0211  0.0766
 4349W        W20158   6.926   1.183   1.072  0.0895 -0.0981 -0.0613
 4350W        W20159   7.230  17.303  14.044 -0.0052 -0.0726  0.2700
 4351W        W20160  11.846  17.226   4.580 -0.0630  0.1893 -0.2586
 4352W        W20161   2.512  10.482   0.682 -0.0432 -0.0270 -0.0641
 4353W        W20162   3.140   1.578  11.432 -0.2970 -0.3488  0.2399
 4354W        W20163  14.614  15.916  11.550 -0.1124  0.0999  0.0517
 4355W        W20164   9.641   9.517   5.087  0.3135 -0.2292 -0.4066
 4356W        W20165  15.226   0.589  12.173 -0.0388  0.3301 -0.2599
 4357W        W20166  10.290   7.193   0.265  0.0589  0.0045 -0.0962
 4358W        W20167   6.183  17.677  15.124  0.0789 -0.0763 -0.1230
 4359W        W20168  13.866  17.704   3.824  0.1376  0.0574  0.0588
 4360W        W20169  12.637  11.062   4.122  0.0878 -0.3994 -0.0435
 4361W        W20170   7.362  13.755  15.440 -0.1669 -0.3328  0.1171
 4362W        W20171   5.300  13.825   2.028  0.1132  0.0319 -0.1028
 4363W        W20172  13.597   0.639  13.478  0.0546  0.1134  0.1687
 4364W        W20173  15.457   3.724   0.828 -0.2516  0.0262 -0.0092
 4365W        W20174  13.651  10.945  11.661  0.0147 -0.0001 -0.2612
 4366W        W20175  10.388  14.933  13.012 -0.2639 -0.1967 -0.0215
 4367W        W20176  11.973  17.097   4.127 -0.1529 -0.0047  0.2207
 4368W        W20177   1.890  10.827   5.515 -0.1508  0.2552  0.0745
 4369W        W20178   4.618  14.896   4.122  0.0890 -0.0375  0.0369
 4370W        W20179   9.901   0.928  14.414 -0.1214  0.1040  0.0244
 4371W        W20180  10.093  13.765   2.863 -0.3679 -0.2429  0.1945
 4372W        W20181  15.030  12.606  14.749  0.2268 -0.1497 -0.0659
 4373W        W20182   6.386  16.261   3.546 -0.1009  0.3004 -0.0562
 4374W        W20183   1.288   0.654  10.252  0.1213 -0.0297  0.0136
 4375W        W20184  11.542   8.516   6.399 -0.2374  0.1940 -0.1753
 4376W        W20185   4.990   1.970   4.246 -0.1138  0.0890 -0.4464
 4377W        W20186   2.252   6.748   3.236  0.5957 -0.3226 -0.3810
 4378W        W20187  15.917   6.218   4.770 -0.1350 -0.0335 -0.1072
 4379W        W20188   4.514  15.419   3.348 -0.1198  0.0374  0.0233
 4380W        W20189   7.322  11.984  15.084 -0.1777  0.1622 -0.3494
 4381W        W20190  10.737   3.016  14.196 -0.1262  0.1433 -0.0329
 4382W        W20191  15.329   6.272  13.183 -0.0040 -0.0172 -0.3106
 4383W        W20192  16.463   8.210   5.437 -0.2094 -0.1713 -0.0715
 4384W        W20193  14.865   5.704  13.314 -0.2710  0.0786  0.2008
 4385W        W20194  17.217   6.369  14.265 -0.2262 -0.2036  0.0500
 4386W        W20195   6.272  11.131   0.538 -0.1337 -0.0860 -0.1244
 4387W        W20196  15.765  11.163  14.753 -0.2033  0.0476  0.0374
 4388W        W20197  12.452  10.302   0.271 -0.1415 -0.0507  0.1776
 4389W        W20198   6.986   9.946  14.579  0.2292  0.2654  0.2688
 4390W        W20199   9.103   2.560  15.250  0.0953  0.0687 -0.1528
 4391W        W20200  15.693  14.468   2.974 -0.0046 -0.0041 -0.1175
 4392W        W20201  10.595   9.454   3.701 -0.0372  0.1741 -0.1554
 4393W        W20202  17.549  14.207   4.094 -0.3365 -0.3481  0.2242
 4394W        W20203  15.010   0.094   0.677 -0.0567 -0.2360  0.0511
 4395W        W20204   3.980   5.424  13.450 -0.0674  0.0991  0.0846
 4396W        W20205   3.077  16.902   3.434 -0.1304  0.0679 -0.1194
 4397W        W20206  11.597  15.873  12.676 -0.1452 -0.0101 -0.3145
 4398W        W20207  14.425   9.087  15.666  0.1335  0.4040  0.0090
 4399W        W20208   8.183  11.345  16.654  0.3232  0.0425  0.0573
 4400W        W20209   4.907   9.856  12.334 -0.0492 -0.0383 -0.0076
 4401W        W20210   1.447  15.158   4.135  0.2911 -0.2317 -0.0677
 4402W        W20211  16.452  10.446  11.668  0.1017  0.4268  0.1456
 4403W        W20212   1.817   8.309  12.676 -0.0472 -0.1472 -0.1543
 4404W        W20213   5.784  14.523   1.804 -0.0551  0.0701 -0.0876
 4405W        W20214   0.539   9.431  11.284  0.1307 -0.3885  0.3045
 4406W        W20215   0.662   8.357   1.941 -0.1425  0.0309  0.0650
 4407W        W20216   7.485  10.650   0.025 -0.0573 -0.0037  0.1276
 4408W        W20217  16.636  17.937   0.991  0.0536  0.2690  0.0997
 4409W        W20218   1.003  11.067   0.177 -0.0100 -0.3195 -0.1667
 4410W        W20219  10.333  14.398   6.118  0.0265 -0.0362 -0.0816
 4411W        W20220   7.861  15.929  13.052 -0.2104 -0.2191  0.1576
 4412W        W20221  14.131  15.733  14.165 -0.1290 -0.2791  0.1074
 4413W        W20222  12.478   1.613   2.940  0.0951  0.1458 -0.1179
 4414W        W20223  10.347   1.345   1.509  0.2084 -0.1146 -0.0688
 4415W        W20224   2.287   6.021   3.155  0.1374 -0.0175 -0.0403
 4416W        W20225   0.795   6.255  15.822  0.0864  0.1172 -0.1127
 4417W        W20226   9.871   2.267  12.019  0.1952  0.0048  0.3023
 4418W        W20227  13.066   9.167  14.458 -0.0135 -0.1569  0.1045
 4419W        W20228   6.471   0.976   1.973 -0.0911 -0.0980 -0.3197
 4420W        W20229  15.823   7.580   4.211  0.0222 -0.2352 -0.0089
 4421W        W20230  16.600  16.090   0.961  0.1369 -0.2424 -0.0991
 4422W        W20231   4.053   9.393   1.200  0.1339  0.0481  0.2369
 4423W        W20232   8.300  12.040   4.685  0.2240 -0.2806  0.1389
 4424W        W20233   7.425   2.618  14.758 -0.3825 -0.2132  0.0070
 4425W        W20234  12.026  12.013   6.104  0.1806 -0.3196  0.0492
 4426W        W20235   5.446  11.711  13.817 -0.0901 -0.1217 -0.0336
 4427W        W20236  17.544  15.846  16.088 -0.2605 -0.0802  0.1033
 4428W        W20237  14.612   2.036  12.201  0.0333  0.1456  0.0570
 4429W        W20238  15.245   8.807   4.795 -0.0222  0.0192  0.1365
 4430W        W20239   5.591   9.279   2.363 -0.2089  0.2324 -0.2180
 4431W        W20240  12.626   6.004   0.630  0.0141  0.1799  0.2780
 4432W        W20241   4.653  16.921  15.983  0.0799  0.1245  0.3030
 4433W        W20242  15.147  17.031   0.609  0.1066  0.0818  0.0349
 4434W        W20243   2.198   7.258   0.753  0.0563 -0.0277  0.2212
 4435W        W20244  15.471   3.579   4.896  0.0839  0.0642  0.0401
 4436W        W20245  11.660   0.946   5.173  0.1366 -0.1410  0.1643
 4437W        W20246   8.502  14.520  15.272 -0.2919 -0.1138  0.2277
 4438W        W20247  17.909   9.036  11.136 -0.0506  0.1086  0.0060
 4439W        W20248  15.477   6.096   5.246  0.1765 -0.0418  0.2453
 4440W        W20249  16.607   2.585   3.261  0.1321 -0.0523 -0.2188
 4441W        W20250  17.758  12.254  13.279  0.0660  0.0803 -0.1219
 4442W        W20251  10.141   8.902  13.045 -0.1040  0.1635  0.0814
 4443W        W20252  16.092   4.141  12.270  0.1722  0.2583  0.1872
 4444W        W20253   8.962   0.477   4.655  0.1149  0.0486 -0.2666
 4445W        W20254  17.720  16.665   5.973 -0.1227  0.1197 -0.1394
 4446W        W20255   4.908   4.814  12.736  0.0370  0.0014  0.0593
 4447W        W20256  13.289  12.817  15.527 -0.0743  0.1207  0.2477
 4448W        W20257   2.563   6.389   3.395 -0.0472  0.1601 -0.0309
 4449W        W20258  13.808   8.563  14.131 -0.0461 -0.1357  0.2331
 4450W        W20259  16.270   9.344   2.937 -0.0562  0.1038  0.0785
 4451W        W20260  16.122   4.342  12.894 -0.2690  0.1017  0.0231
 4452W        W20261   9.916   3.726  16.434 -0.1251  0.0244  0.3603
 4453W        W20262   9.137   8.938   4.501 -0.1524  0.0283 -0.1980
 4454W        W20263   5.409   5.901   4.353  0.0559 -0.1004  0.1410
 4455W        W20264  15.057   8.015   0.216 -0.0200  0.2632 -0.0481
 4456W        W20265   6.418  17.595  10.736  0.0241 -0.0611  0.0512
 4457W        W20266   0.263   4.005  15.526 -0.1779  0.1151  0.1893
 4458W        W20267  12.687   6.835   0.134 -0.3468 -0.0012  0.2377
 4459W        W20268  13.810  12.657  15.704  0.2260 -0.1524  0.3906
 4460W        W20269  13.254   9.277  13.991 -0.2005 -0.1294 -0.1995
 4461W        W20270   3.168   4.780   3.445  0.0998  0.1238 -0.1865
 4462W        W20271   5.201  15.975   3.217 -0.0249  0.4504  0.3085
 4463W        W20272   5.028  11.711  11.361 -0.0185 -0.1808 -0.0191
 4464W        W20273   1.727   1.585   1.435 -0.3770 -0.0895 -0.1734
 4465W        W20274   2.974   1.489   0.424  0.0991 -0.2454 -0.1999
 4466W        W20275   4.117   7.010   2.386 -0.0830 -0.0910  0.0043
 4467W        W20276   0.211   6.672   1.081  0.1998 -0.0501  0.0926
 4468W        W20277  13.147  12.846   2.506 -0.0862 -0.0965 -0.0104
 4469W        W20278   7.881  14.696   2.736  0.0177 -0.0421  0.3398
 4470W        W20279  17.939  13.648  16.263  0.0211  0.2866  0.1457
 4471W        W20280   8.546  10.772  13.009  0.4530 -0.0767 -0.2715
 4472W        W20281   6.054   0.803   3.192 -0.2222 -0.2010  0.0320
 4473W        W20282  13.938   7.247  13.533 -0.0805 -0.0962  0.0466
 4474W        W20283   0.859  15.868  16.177  0.2528  0.0433  0.3836
 4475W        W20284  17.072   0.066   0.648 -0.2178 -0.3755  0.0625
 4476W        W20285   0.220   8.710   0.452 -0.3336  0.1999  0.0444
 4477W        W20286  12.088  12.665   0.725  0.1017 -0.2469 -0.0295
 4478W        W20287  15.946   7.438  16.225  0.1750 -0.3651 -0.0069
 4479W        W20288   8.452   7.035   2.942  0.2451 -0.0439 -0.1238
 4480W        W20289   3.297   8.835  11.547 -0.1615 -0.0193 -0.0984
 4481W        W20290  15.949  12.046   5.361  0.2020 -0.1830  0.2985
 4482W        W20291   1.625  14.970   1.398 -0.1481  0.0490 -0.0639
 4483W        W20292   2.389   1.184   5.503  0.1143 -0.0368  0.3535
 4484W        W20293  14.238   7.978   5.993  0.0135  0.0657  0.1589
 4485W        W20294   4.589   2.460  11.522 -0.2744 -0.0595 -0.1231
 4486W        W20295  14.089  11.497  14.334  0.2211 -0.2740 -0.0511
 4487W        W20296   6.456  11.744  14.886 -0.3279  0.1413  0.2193
 4488W        W20297   5.091   8.821  14.826 -0.0304  0.0856  0.0761
 4489W        W20298   4.289   9.919   1.049  0.2504 -0.0917  0.0156
 4490W        W20299   9.806   0.777   2.983  0.0804 -0.1151  0.2721
 4491W        W20300   2.641  17.380  13.295 -0.1068  0.0393 -0.0492
 4492W        W20301   0.582  10.521  12.395  0.1420  0.3451  0.0364
 4493W        W20302  14.602  16.628  16.585 -0.1574  0.2918  0.0691
 4494W        W20303  13.767   0.200   5.570 -0.0861 -0.1616  0.2393
 4495W        W20304  15.518  11.412   4.073 -0.2786 -0.2677  0.2473
 4496W        W20305   6.509  16.308  13.981 -0.1062 -0.3148  0.2320
 4497W        W20306   2.752   8.235   5.289  0.1677 -0.0154  0.1105
 4498W        W20307   3.263   4.317  11.333  0.2008 -0.0226 -0.1087
 4499W        W20308   7.705   8.890  11.929 -0.0874 -0.1805  0.0745
 4500W        W20309  16.722  10.903  16.583  0.5105  0.0983 -0.0315
 4501W        W20310  14.594  10.494  16.290  0.1182 -0.1474 -0.0402
 4502W        W20311  10.584   3.168  14.854  0.0597  0.1826  0.2228
 4503W        W20312   4.914   5.897   4.218 -0.1371  0.5521  0.1143
 4504W        W20313   5.143  13.499  13.393 -0.0220  0.0026  0.0522
 4505W        W20314   6.886   6.842   5.669 -0.1169 -0.0022  0.1428
 4506W        W20315  10.921  13.020  14.564 -0.2897  0.0637  0.1385
 4507W        W20316  11.315  10.745  16.329 -0.0751  0.2794  0.1112
 4508W        W20317  12.763   1.689   4.962  0.0429  0.1365  0.0449
 4509W        W20318  17.148  15.553   2.916 -0.0286 -0.2125  0.0495
 4510W        W20319   4.086   8.182  13.352 -0.0038 -0.1869 -0.0508
 4511W        W20320   3.516   9.000  14.206 -0.4859 -0.1391  0.0706
 4512W        W20321  12.447  12.983   0.795  0.0685  0.4176 -0.2612
 4513W        W20322   9.035   9.983   5.731  0.2852  0.0943  0.1829
 4514W        W20323   2.882  11.253   4.129 -0.0108  0.0713 -0.0698
 4515W        W20324   8.905  16.337  15.252 -0.1693 -0.2571 -0.0382
 4516W        W20325   9.767  16.536   6.736 -0.0848 -0.0049 -0.1543
 4517W        W20326  13.514  10.301   0.524  0.1361 -0.1990  0.1955
 4518W        W20327   4.879   2.572   5.233 -0.2573  0.0070  0.1501
 4519W        W20328  10.452  12.322  16.418 -0.0150 -0.1818  0.1853
 4520W        W20329   2.305   5.802   2.747 -0.1199  0.0715  0.1176
 4521W        W20330   5.546   1.210   1.515  0.1263  0.2829  0.1816
 4522W        W20331  13.247   2.902  13.587  0.0816  0.1516 -0.0731
 4523W        W20332   9.586   8.814   5.708  0.1843  0.3004  0.0991
 4524W        W20333   0.362  13.919   2.597  0.0106 -0.0265  0.0411
 4525W        W20334   1.259   0.720   0.388  0.0977 -0.0653 -0.1799
 4526W        W20335  11.129  13.575  15.382 -0.1128 -0.1321 -0.0776
 4527W        W20336  13.036   6.319  14.514 -0.1526 -0.1549 -0.0590
 4528W        W20337  11.505  13.809  11.688 -0.3921 -0.1129  0.1427
 4529W        W20338   2.201   9.272  15.557  0.0911 -0.0975 -0.2621
 4530W        W20339  12.659  13.735  14.535  0.0244  0.0599 -0.0626
 4531W        W20340   0.709  16.826   1.417  0.0395 -0.0063  0.0250
 4532W        W20341  11.065   1.724  12.200  0.2101 -0.0320 -0.1505
 4533W        W20342   2.613  10.066  14.538 -0.1406  0.0610 -0.4310
 4534W        W20343   4.865  15.312   1.729  0.0751  0.0109  0.0455
 4535W        W20344   6.993  12.649   0.447 -0.0456  0.0239  0.0755
 4536W        W20345   2.419  12.583  14.732  0.1874 -0.3224  0.2474
 4537W        W20346   8.974   6.377  16.448 -0.0116  0.1169 -0.1607
 4538W        W20347  15.621   2.668   2.781 -0.2911  0.0469  0.1239
 4539W        W20348   3.602   8.251   3.749  0.0135 -0.0320 -0.0027
 4540W        W20349  15.871   4.357  16.655 -0.0667  0.1580  0.2270
 4541W        W20350   1.241  11.181  14.707  0.2100  0.0526  0.0768
 4542W        W20351  12.910  13.134   3.941 -0.2366 -0.1157  0.3003
 4543W        W20352  10.319   9.874  16.137  0.1329  0.1252  0.2610
 4544W        W20353  14.322  15.080   3.225  0.0843 -0.1045  0.0639
 4545W        W20354  10.530  11.047   0.263  0.0557  0.1016 -0.3409
 4546W        W20355   9.353  10.636   2.561 -0.1159 -0.2751  0.0531
 4547W        W20356   3.361   5.993   0.184 -0.2055 -0.1172  0.2518
 4548W        W20357   7.350  13.085   0.305 -0.2695  0.0117  0.1233
 4549W        W20358   1.148  11.820   2.701 -0.2448 -0.2159 -0.1814
 4550W        W20359  14.924  14.252   1.915 -0.2937 -0.3863 -0.0101
 4551W        W20360  15.162   5.719   0.610 -0.1366  0.1513 -0.0364
 4552W        W20361   9.216   0.173   6.046 -0.0036  0.1635 -0.0806
 4553W        W20362   6.459   1.336   2.536  0.0741 -0.3369  0.1026
 4554W        W20363  15.751   4.614  16.201 -0.3014  0.1184 -0.0786
 4555W        W20364   5.640   5.733  13.030  0.0656  0.2052  0.0229
 4556W        W20365   6.852   8.628   2.995  0.0639 -0.0306 -0.1422
 4557W        W20366  14.424   9.040   4.831  0.0333 -0.1499  0.1107
 4558W        W20367   0.309   0.933  12.712  0.0979 -0.1027  0.0907
 4559W        W20368   1.973   2.395  15.553  0.2386 -0.1353  0.0556
 4560W        W20369  17.524  10.112   1.654 -0.1245  0.1956  0.0373
 4561W        W20370   9.150   8.117   2.347 -0.0951 -0.0844  0.3100
 4562W        W20371   7.106   5.204  15.108 -0.1186  0.0751  0.1580
 4563W        W20372  11.679  13.908  16.467 -0.0141  0.1151  0.0785
 4564W        W20373   9.660  17.517  12.849  0.1722 -0.5021 -0.0305
 4565W        W20374   4.551  14.571   3.659  0.0490 -0.1695 -0.0932
 4566W        W20375   9.094  15.728   0.916 -0.0584 -0.0180 -0.1216
 4567W        W20376   3.886   6.105   2.220  0.0628 -0.1474 -0.1013
 4568W        W20377   6.475   7.134  11.602  0.3468  0.2044  0.0099
 4569W        W20378   8.947  10.109  11.145  0.0645  0.0585  0.0790
 4570W        W20379  11.004  11.333   3.257 -0.2302 -0.3455 -0.1871
 4571W        W20380   6.618   4.210  14.328 -0.1195 -0.0955 -0.2278
 4572W        W20381  17.724  12.635  12.882 -0.0949 -0.0045 -0.2185
 4573W        W20382  10.661  15.953   0.651 -0.0303  0.0414 -0.1034
 4574W        W20383  17.030  17.006   0.762  0.2087 -0.2732 -0.0707
 4575W        W20384  15.395   8.381  12.776 -0.0746  0.0943 -0.1474
 4576W        W20385   2.256  12.937  15.175 -0.0328 -0.0407  0.3587
 4577W        W20386  13.923   3.650   0.048 -0.0275 -0.1477 -0.0770
 4578W        W20387  17.033   2.849  13.733 -0.2958 -0.1358  0.0334
 4579W        W20388  15.021   6.605  13.477  0.0903 -0.1254 -0.0729
 4580W        W20389  11.568   3.329   0.888  0.0455 -0.0501 -0.1006
 4581W        W20390   8.518   6.818  12.792  0.1500  0.0884 -0.3746
 4582W        W20391  14.597  16.760  13.265 -0.1460  0.1785  0.1734
 4583W        W20392  16.054   5.435  11.681  0.1825 -0.2131  0.2466
 4584W        W20393   9.060   7.609  10.786 -0.2775  0.1479  0.0838
 4585W        W20394   3.506   4.518   3.703 -0.2504  0.1715 -0.1895
 4586W        W20395  14.850   8.959   5.083 -0.0564  0.2063 -0.1913
 4587W        W20396   2.352   4.021  14.409 -0.0115  0.0210  0.1921
 4588W        W20397  17.080   6.808  15.737 -0.1657 -0.2021 -0.2401
 4589W        W20398  10.586   3.048   5.281 -0.2073  0.2882 -0.0768
 4590W        W20399   6.088   9.643   2.229  0.1800  0.1198 -0.2106
 4591W        W20400  16.201   4.665   4.324 -0.0139  0.0953 -0.4193
 4592W        W20401  15.687   8.178  14.520  0.1176 -0.0855 -0.2223
 4593W        W20402  16.644  16.692   4.490  0.0349  0.0703  0.2716
 4594W        W20403   5.999   8.197  16.217 -0.0776 -0.1079  0.0073
 4595W        W20404  13.715   0.665  12.979 -0.1337 -0.3348 -0.3027
 4596W        W20405   0.430   1.233   1.242  0.0940 -0.1091  0.1155
 4597W        W20406   1.885   8.039   2.940 -0.0179  0.2113  0.1783
 4598W        W20407  12.931   4.903  11.595  0.1092  0.3491  0.2668
 4599W        W20408  17.011   0.171  14.423 -0.0565 -0.1052  0.0408
 4600W        W20409   2.348  10.855  13.269  0.0514 -0.0736 -0.0836
 4601W        W20410  16.431   2.806  11.951 -0.0164  0.2100  0.2137
 4602W        W20411   2.621  12.096   3.973 -0.2288  0.1049  0.1172
 4603W        W20412   7.249  11.059   2.470  0.1855 -0.1197 -0.0116
 4604W        W20413  12.323   4.450  13.218 -0.1619 -0.1939 -0.1690
 4605W        W20414   0.502  11.485  12.553 -0.0238  0.1643 -0.1412
 4606W        W20415   1.480  15.857   5.146 -0.0735 -0.3197 -0.1974
 4607W        W20416   3.778  17.073  14.337  0.1440  0.1658 -0.0978
 4608W        W20417  14.860  10.990   2.051 -0.0457 -0.0365 -0.1288
 4609W        W20418   7.888  14.882  15.746  0.0480  0.2603 -0.3887
 4610W        W20419   2.764  15.913   1.708 -0.1809  0.0316 -0.3415
 4611W        W20420   5.940   5.074  11.676 -0.0474  0.2008  0.1844
 4612W        W20421  17.514  15.888   3.048  0.1021 -0.1267 -0.0037
 4613W        W20422   7.075   5.175  12.279  0.0772  0.3355  0.3027
 4614W        W20423  16.044  16.492  11.814 -0.1679 -0.0341  0.0672
 4615W        W20424  13.696   9.379  16.137 -0.0819 -0.0559  0.1511
 4616W        W20425   0.480   1.123   6.346  0.0701 -0.3335  0.0052
 4617W        W20426   5.535  13.721   4.524  0.3503  0.0031  0.1825
 4618W        W20427  16.367  16.284   1.774  0.1821  0.1555  0.1312
 4619W        W20428   6.712  17.301  14.351 -0.4474 -0.1455 -0.2269
 4620W        W20429  16.811   5.366   0.996 -0.1568 -0.2055  0.1866
 4621W        W20430   1.022   4.708   2.985  0.2678 -0.3049 -0.0177
 4622W        W20431   5.382   7.575   5.463  0.1617 -0.1744  0.1732
 4623W        W20432  14.886  14.163  16.363 -0.0634 -0.0423 -0.0349
 4624W        W20433  13.534  11.318   4.840 -0.0110 -0.0725  0.0381
 4625W        W20434  15.542  10.650   2.689 -0.2640 -0.1842 -0.3424
 4626W        W20435  16.607   8.138  12.112 -0.0190  0.2151  0.1677
 4627W        W20436  13.885   4.022   4.523 -0.3724 -0.2435  0.1954
 4628W        W20437  15.922  17.633   4.564  0.1902  0.1072  0.2342
 4629W        W20438   9.891   7.156  11.702 -0.0358  0.0515 -0.0058
 4630W        W20439   6.751  15.960   0.100 -0.2408 -0.0502 -0.0011
 4631W        W20440  16.047  16.215   0.915 -0.0313 -0.2048 -0.3918
 4632W        W20441   2.253   0.480   5.650 -0.1378  0.1376  0.3024
 4633W        W20442   4.398   6.468  13.725 -0.3095  0.0954  0.1634
 4634W        W20443  12.417  11.975   1.147  0.0642  0.0417  0.2453
 4635W        W20444  11.864   8.462  12.624  0.0343  0.1195 -0.2177
 4636W        W20445  11.856  13.335  12.438  0.1113 -0.1725  0.1034
 4637W        W20446   3.624  16.581  15.431 -0.0172  0.4182  0.1314
 4638W        W20447   6.451  12.672   2.706  0.0183 -0.1293 -0.3669
 4639W        W20448   9.215  16.646  16.522 -0.1339 -0.0965 -0.0174
 4640W        W20449  15.545   6.365   0.222 -0.0635  0.0670 -0.2250
 4641W        W20450   7.363  10.248  11.164  0.0252  0.0608  0.0213
 4642W        W20451  13.663   4.288  11.277  0.2487 -0.2399  0.4373
 4643W        W20452  17.083  15.771  12.981 -0.0260  0.2660  0.1872
 4644W        W20453   2.611  13.637  14.360  0.2194 -0.0255 -0.1091
 4645W        W20454   2.490   0.590  10.793 -0.2323 -0.1132 -0.3081
 4646W        W20455  11.846  12.822   4.563  0.2179  0.0373  0.0896
 4647W        W20456   0.696   7.563   5.717 -0.0910  0.1516  0.0334
 4648W        W20457  16.181  13.299   0.185  0.3598 -0.0034  0.2102
 4649W        W20458   5.313  10.122  15.002  0.0440  0.2799  0.0010
 4650W        W20459   1.019   0.590  13.635  0.0623 -0.0580  0.0208
 4651W        W20460   2.384  12.806   1.822 -0.1013  0.1680 -0.0162
 4652W        W20461  11.259   2.336  12.747 -0.0989 -0.0451  0.0188
 4653W        W20462  13.468  16.802  15.521 -0.0979  0.0197 -0.1829
 4654W        W20463   8.125  12.314   3.407 -0.0166  0.1689  0.0617
 4655W        W20464  17.531  11.655  15.260  0.0143 -0.3032  0.0627
 4656W        W20465   0.756  15.513  13.543  0.2448  0.0029  0.2128
 4657W        W20466   4.925   2.365  15.176 -0.0111  0.2207 -0.2101
 4658W        W20467   8.098  11.748   5.080  0.0381 -0.0270 -0.1311
 4659W        W20468  13.936  11.345   5.889  0.3588 -0.0757  0.1379
 4660W        W20469   5.141   1.789   3.728 -0.0334  0.2553  0.1321
 4661W        W20470   9.027   9.383   3.148 -0.1001  0.1799 -0.2853
 4662W        W20471  16.499   1.620   2.066 -0.1333  0.1395  0.2035
 4663W        W20472   4.299   4.184   1.953 -0.0664  0.2595  0.0237
 4664W        W20473   5.053   8.691  15.452 -0.1284 -0.0652  0.0502
 4665W        W20474  12.362   3.809   0.670  0.1285  0.0441  0.0000
 4666W        W20475   1.611   2.770  13.691 -0.3534 -0.0610  0.0751
 4667W        W20476  11.099   4.886  13.344  0.0061 -0.2070 -0.0618
 4668W        W20477   9.550   3.513  14.696 -0.5055  0.3952 -0.1112
 4669W        W20478  12.545   5.294   1.093 -0.1664  0.0763  0.2531
 4670W        W20479   2.172  13.179   5.286 -0.0105 -0.0164  0.1197
 4671W        W20480   0.377  14.973  15.238 -0.1568 -0.0642  0.3030
 4672W        W20481   4.516   0.522  13.401  0.3104 -0.0116  0.2309
 4673W        W20482   4.082  14.790   4.202 -0.1244 -0.0098  0.3696
 4674W        W20483  12.994   1.187   6.923 -0.0700  0.0552  0.0080
 4675W        W20484   8.673   0.752   1.283  0.1578  0.0784  0.3599
 4676W        W20485  15.412  11.592   2.079  0.0120 -0.0495 -0.0908
 4677W        W20486   2.722   0.109  13.376  0.1115  0.2158 -0.5718
 4678W        W20487  12.853  15.087   4.242  0.0603  0.0670  0.0107
 4679W        W20488   6.445  15.763   0.898  0.2182  0.0429  0.2751
 4680W        W20489  11.108  12.856   1.893  0.0173 -0.0284  0.1037
 4681W        W20490   5.682  14.793  14.088 -0.0571 -0.3197  0.3997
 4682W        W20491   7.691   3.568   0.392 -0.0282 -0.1600 -0.0267
 4683W        W20492  12.968   1.905   1.423  0.1953 -0.1259 -0.2753
 4684W        W20493  17.597  14.900  16.037 -0.0302  0.1532 -0.1230
 4685W        W20494   5.487   1.005  12.617 -0.1218 -0.0270  0.1289
 4686W        W20495  16.653  14.951   4.478 -0.0944 -0.2992  0.0949
 4687W        W20496   3.000  15.817  13.086  0.1354  0.4097 -0.4402
 4688W        W20497  16.241   5.638  12.327 -0.0806  0.1498 -0.0377
 4689W        W20498  14.139  11.268   0.055  0.0402  0.2634 -0.1275
 4690W        W20499  15.665  10.477   2.024  0.1325  0.1299  0.2262
 4691W        W20500  15.489  15.659  15.903 -0.0076 -0.2999  0.1471
 4692W        W20501   3.335  10.320  13.056  0.0847  0.2973  0.0160
 4693W        W20502  15.012   3.877   4.947 -0.2904 -0.0666 -0.1125
 4694W        W20503   3.624  17.528   3.518 -0.0552  0.0135 -0.3373
 4695W        W20504   3.587   0.876  13.434  0.2064 -0.1931  0.0762
 4696W        W20505   4.617  15.820  13.841  0.0121  0.1469  0.2660
 4697W        W20506   9.859  13.758   6.190  0.0056 -0.1884 -0.1008
 4698W        W20507   5.838   4.659   4.267  0.0334 -0.0350  0.1253
 4699W        W20508   3.555   6.039   4.722  0.1993  0.0843 -0.2133
 4700W        W20509  13.152   8.409   3.637 -0.1517  0.1369  0.1112
 4701W        W20510   5.978  12.606   0.029  0.0600 -0.0227 -0.2938
 4702W        W20511  13.526  15.937  16.520 -0.3172 -0.1557  0.0684
 4703W        W20512   7.200   6.190  13.799  0.0858 -0.2437  0.0451
 4704W        W20513  17.205  11.378  15.050 -0.1870  0.0103 -0.0001
 4705W        W20514  13.589   4.276   0.572  0.2695  0.2345  0.0640
 4706W        W20515   4.840   9.384   0.934  0.1446  0.0057 -0.0039
 4707W        W20516  11.058  10.572  14.996 -0.1128 -0.2017  0.0451
 4708W        W20517   2.845  12.541   5.261  0.0096 -0.1781  0.1947
 4709W        W20518   7.525   1.522  15.399  0.1998  0.1253  0.1777
 4710W        W20519   6.887   5.190   1.437 -0.2482 -0.0461  0.0539
 4711W        W20520  11.993  14.559  15.959 -0.0493 -0.1082 -0.0486
 4712W        W20521  13.039  12.448  15.356 -0.4697 -0.0024 -0.0276
 4713W        W20522  17.622  16.298   5.629 -0.1979 -0.0798 -0.1087
 4714W        W20523   7.359   0.020   2.567 -0.0135 -0.1315 -0.0718
 4715W        W20524   6.115   9.753  16.479  0.0414  0.0454 -0.0838
 4716W        W20525   1.833  11.015  15.767 -0.5717 -0.0621  0.2188
 4717W        W20526   1.702  14.645  16.534  0.1437  0.3735 -0.0244
 4718W        W20527  13.630   7.893  12.797  0.1583 -0.3279  0.0417
 4719W        W20528   9.996   9.005   1.475 -0.0789  0.0350 -0.1001
 4720W        W20529  17.899   6.627   3.517  0.1796 -0.2535  0.0097
 4721W        W20530   5.048   9.261   5.426  0.1789  0.0160 -0.1381
 4722W        W20531  12.514   0.777  14.088  0.2969  0.1101  0.1730
 4723W        W20532  12.648   2.700  13.691  0.0101  0.3917  0.3498
 4724W        W20533   1.389  10.427   4.070  0.0287 -0.2730 -0.0275
 4725W        W20534  15.973  12.828   0.195  0.1119  0.2741 -0.0849
 4726W        W20535  11.581  12.237   5.261 -0.2333 -0.1089  0.0754
 4727W        W20536   4.864   2.503  12.447 -0.3338 -0.1110  0.1296
 4728W        W20537  14.683  10.673  13.556 -0.0345 -0.3565 -0.1515
 4729W        W20538   7.112  16.260  15.235  0.1829  0.3815 -0.3122
 4730W        W20539   4.880   8.643  12.285 -0.2556  0.1880 -0.0441
 4731W        W20540  11.941   8.939  14.120 -0.1684  0.0161  0.0901
 4732W        W20541  14.654   7.733   3.447 -0.2981 -0.1585  0.0301
 4733W        W20542   7.476  17.527   0.077 -0.1946 -0.0095 -0.0292
 4734W        W20543   3.619   5.624  10.937  0.1533  0.2270 -0.3358
 4735W        W20544   1.988  10.109   2.250 -0.2436  0.0033  0.4402
 4736W        W20545   2.070  16.379   2.285  0.2050 -0.1617 -0.1037
 4737W        W20546   9.645  12.457   1.286 -0.1019  0.0927  0.2058
 4738W        W20547   8.356  11.593  15.827  0.2214  0.2613 -0.1560
 4739W        W20548  13.963  13.193   0.816 -0.1359 -0.2598 -0.2708
 4740W        W20549  10.528  10.579   0.044  0.2681  0.4897 -0.1728
 4741W        W20550   1.407   3.187   3.584 -0.2284 -0.3188  0.3157
 4742W        W20551   4.553   0.789   0.551 -0.0092  0.0029  0.1846
 4743W        W20552   6.241   5.786  11.767  0.2962 -0.1148  0.0638
 4744W        W20553  17.032   9.289  11.638 -0.1895  0.2200 -0.1797
 4745W        W20554  15.932   9.240   3.860 -0.0148  0.3891 -0.1309
 4746W        W20555   7.316  11.735   0.644  0.0047 -0.1539 -0.0178
 4747W        W20556  13.500   0.729  10.864 -0.0718 -0.3132 -0.1312
 4748W        W20557  16.830  17.894  12.164  0.0080  0.4515  0.3307
 4749W        W20558  14.822   0.456   1.042 -0.0558  0.4545 -0.0770
 4750W        W20559   6.566  14.210   2.096  0.0738 -0.6605 -0.0678
 4751W        W20560  12.773   0.705   0.496  0.0406 -0.1758  0.1200
 4752W        W20561   6.744  16.775   2.302 -0.0773  0.0246  0.1557
 4753W        W20562   3.068  10.170   0.905  0.1639 -0.0401 -0.2549
 4754W        W20563   6.053   1.867  15.711  0.0184  0.2556  0.0502
 4755W        W20564   4.990   1.162  12.903 -0.0062 -0.1459  0.1314
 4756W        W20565   8.523  12.875   5.402 -0.2525 -0.2726 -0.0646
 4757W        W20566   3.485   3.961   9.965  0.0164 -0.1160 -0.0298
 4758W        W20567  10.575  10.300   3.796 -0.2708  0.1732 -0.2180
 4759W        W20568  10.943   2.840  13.803  0.0489  0.1846  0.0387
 4760W        W20569  11.134   4.336   4.045 -0.3138 -0.0174 -0.0396
 4761W        W20570   3.431   9.435  13.569 -0.1466  0.2092 -0.0725
 4762W        W20571   4.662  17.290   0.477  0.0422  0.3960 -0.0922
 4763W        W20572  17.952   8.965   3.737 -0.2861  0.2523  0.0425
 4764W        W20573  11.690  12.472   1.737 -0.1125 -0.2460  0.2304
 4765W        W20574   0.694   1.247  14.725  0.1275 -0.2112 -0.0040
 4766W        W20575   7.559  11.866   0.269  0.0236 -0.0253 -0.1715
 4767W        W20576   0.414  11.726  10.920 -0.2367 -0.2355 -0.0953
 4768W        W20577   1.095   3.018   0.376 -0.0274 -0.0243  0.3642
 4769W        W20578   9.773   0.023  11.677 -0.0030  0.0990  0.1267
 4770W        W20579  10.359   9.948   1.972 -0.2064  0.1798  0.0922
 4771W        W20580  17.910   9.880  11.878  0.0793  0.0126  0.1853
 4772W        W20581  10.327   1.198   0.102 -0.0777  0.0869 -0.0256
 4773W        W20582  16.922   8.263  15.083 -0.0344  0.0663  0.1585
 4774W        W20583   7.150   7.130   3.152  0.0739 -0.1461  0.1049
 4775W        W20584   2.604  14.753   0.952  0.3740 -0.1413 -0.1252
 4776W        W20585   0.398  13.670   4.498  0.0459  0.0072  0.1031
 4777W        W20586   5.747   8.434   0.568  0.0585  0.1315 -0.1359
 4778W        W20587   1.435  13.406  13.134  0.0721  0.1053 -0.0590
 4779W        W20588  11.971   6.766   2.685 -0.0059 -0.0363  0.2291
 4780W        W20589  10.991  13.057  12.484 -0.0841  0.3985  0.0170
 4781W        W20590   7.410  15.331   3.809  0.0079 -0.1530  0.0906
 4782W        W20591   5.069  12.495  11.292 -0.1216 -0.0683  0.0418
 4783W        W20592   9.481   6.407  13.074  0.0094 -0.2973 -0.0163
 4784W        W20593   7.743   8.128   3.439  0.0751  0.0046 -0.0451
 4785W        W20594   2.937  16.295   2.139 -0.0409 -0.0517  0.4614
 4786W        W20595  10.982  11.873  13.487 -0.0625 -0.0236 -0.0684
 4787W        W20596   1.347   4.447  13.688 -0.2239  0.0407  0.1475
 4788W        W20597   1.359   7.309  12.614  0.2704 -0.0914  0.0880
 4789W        W20598   8.387   5.835  14.232 -0.3582  0.0921 -0.3100
 4790W        W20599   3.295  10.354  16.352  0.0279 -0.2846 -0.0879
 4791W        W20600  15.371  11.880  13.892 -0.0243  0.3303 -0.0330
 4792W        W20601  12.105  16.869  13.232 -0.0404 -0.1256 -0.4209
 4793W        W20602   3.726   5.892  13.616  0.1846  0.1615 -0.2769
 4794W        W20603  17.289   8.066  15.298  0.0095  0.0578 -0.5470
 4795W        W20604   0.470  10.810  16.086  0.0717  0.1027 -0.1906
 4796W        W20605   3.278   8.104  16.428 -0.1281 -0.0358  0.1149
 4797W        W20606   8.929   1.403   2.845 -0.4185 -0.0110  0.1437
 4798W        W20607   7.013   1.647  14.909  0.2212  0.0526 -0.0170
 4799W        W20608  17.479   7.455  13.435  0.1791  0.1677  0.2586
 4800W        W20609   2.121   4.955  14.779 -0.1180  0.2683  0.3280
 4801W        W20610   2.463   9.521   3.179 -0.0612 -0.1803  0.3878
 4802W        W20611   3.305  15.002  15.976 -0.1145  0.0429 -0.0862
 4803W        W20612   0.407  17.537   3.576 -0.2001  0.1243  0.1860
 4804W        W20613  15.308   2.267  11.585  0.4235  0.1736  0.1061
 4805W        W20614   6.848   1.054   2.563 -0.3234 -0.2756 -0.2586
 4806W        W20615  13.886  13.630   1.205 -0.2193  0.1400  0.2129
 4807W        W20616  14.212  15.826   2.097 -0.0590 -0.0637  0.0647
 4808W        W20617  17.129   5.583  13.485  0.1737 -0.0783  0.0558
 4809W        W20618   7.060  11.286  14.318 -0.0890 -0.1951  0.2915
 4810W        W20619  11.160   7.787   1.706  0.3393  0.3038 -0.0279
 4811W        W20620   9.241   4.352   4.934 -0.0508  0.3434 -0.0900
 4812W        W20621  17.879  17.858  14.388 -0.4170 -0.2380  0.0205
 4813W        W20622   3.271   1.047  15.022  0.2725 -0.0245 -0.0025
 4814W        W20623   9.029  14.191   5.526 -0.1157 -0.0124  0.0521
 4815W        W20624   2.862   3.445   0.401  0.4813  0.0402 -0.2580
 4816W        W20625   4.041   6.786  15.756  0.3907 -0.0999  0.0661
 4817W        W20626  13.625   6.090  15.298 -0.0134 -0.2772 -0.0474
 4818W        W20627  16.481  14.746  14.491 -0.1418 -0.2286 -0.2341
 4819W        W20628   4.549   3.654   3.735 -0.0287  0.3798  0.0072
 4820W        W20629  13.782   4.368  13.501 -0.2437  0.1559  0.1525
 4821W        W20630  17.246  10.991   3.306 -0.0699  0.1252  0.0781
 4822W        W20631   3.392   7.620  14.542  0.1277 -0.0776 -0.0617
 4823W        W20632   2.604  16.893  11.347 -0.1540 -0.1957  0.2132
 4824W        W20633  17.841   6.622  15.951 -0.0095 -0.2401 -0.1044
 4825W        W20634   0.776   6.594  14.405 -0.1039  0.0848  0.0357
 4826W        W20635   5.194  12.359   2.198 -0.1524 -0.1231  0.1896
 4827W        W20636  13.535   1.333   5.995 -0.3786 -0.1460  0.0691
 4828W        W20637   8.348   9.787   2.533 -0.1214  0.0493 -0.0701
 4829W        W20638   6.426   6.661  14.847 -0.0939 -0.1510  0.0179
 4830W        W20639   2.117  12.037   4.043 -0.1835 -0.0387 -0.0981
 4831W        W20640   1.343   9.611  14.968  0.0824 -0.1254  0.2919
 4832W        W20641  17.211   5.317  15.895  0.0863 -0.1165 -0.0117
 4833W        W20642  13.682  12.296  14.820  0.0991  0.2974  0.0921
 4834W        W20643   3.124   0.922  11.870 -0.2841 -0.2281 -0.3028
 4835W        W20644  12.667  17.456  13.496 -0.1042  0.4708 -0.3525
 4836W        W20645   6.803  10.368   2.590  0.1249 -0.1130 -0.2672
 4837W        W20646  17.775  15.104   2.475 -0.2243 -0.2582  0.2494
 4838W        W20647   4.060  17.957   0.681  0.4258  0.1704  0.0597
 4839W        W20648   4.880  11.723   4.819  0.1756  0.3218  0.0650
 4840W        W20649   8.094   2.085   5.321  0.0098 -0.0884 -0.1268
 4841W        W20650   7.928  14.202   4.369  0.0398  0.0785 -0.0633
 4842W        W20651  13.192   1.149  16.075  0.0031  0.0058 -0.1820
 4843W        W20652  16.766  17.383  14.820 -0.0010  0.5951  0.1503
 4844W        W20653   5.594  16.298   2.911 -0.0299  0.0005 -0.1445
 4845W        W20654  13.462   0.660   2.603  0.0891  0.4222 -0.1190
 4846W        W20655   6.628   0.935   6.338 -0.2274  0.0196 -0.2580
 4847W        W20656  10.173   3.601   2.582  0.1665  0.1510 -0.0068
 4848W        W20657  12.286   3.841   3.592  0.1342  0.0288  0.2016
 4849W        W20658   5.862  13.982   4.738  0.3664 -0.2492  0.0378
 4850W        W20659   7.227  17.426   2.673 -0.2196 -0.2010  0.0383
 4851W        W20660  10.184   8.511   3.544 -0.0400  0.0483 -0.3504
 4852W        W20661   8.445  10.550  10.258  0.0055  0.1766  0.1517
 4853W        W20662  13.959   6.942  12.639 -0.0292  0.1905  0.2406
 4854W        W20663   8.246  17.020  15.078 -0.1199 -0.2464 -0.2296
 4855W        W20664   5.418   9.919  16.019  0.0426  0.1456 -0.2828
 4856W        W20665   4.993  16.913   0.064 -0.0204  0.1327 -0.1325
 4857W        W20666  10.839   6.276   5.972  0.0894 -0.0401 -0.0856
 4858W        W20667  11.421  13.790   1.581 -0.0145 -0.0542  0.2582
 4859W        W20668   3.781   8.824  10.240 -0.2106  0.0702 -0.0584
 4860W        W20669  14.876  13.456  16.046  0.4690 -0.2774  0.2536
 4861W        W20670   9.617   6.546  15.233  0.1032 -0.2273 -0.2577
 4862W        W20671   1.865  13.018  11.166 -0.0518  0.3155  0.1121
 4863W        W20672  10.307   9.307   0.891 -0.0970  0.1154  0.1992
 4864W        W20673   1.318  12.292   4.236 -0.1381  0.2533 -0.0415
 4865W        W20674   8.799   8.176   4.497 -0.0676 -0.0370  0.3617
 4866W        W20675   9.868  14.568  12.495 -0.0756  0.1359 -0.3738
 4867W        W20676   6.969   4.364  16.118  0.1611  0.0061 -0.1053
 4868W        W20677   4.237   5.197   3.674  0.4150  0.1115 -0.0025
 4869W        W20678   9.967  14.855   3.143 -0.1703  0.0043  0.2238
 4870W        W20679  17.389   3.257  15.159  0.1094  0.0033 -0.3207
 4871W        W20680  15.944  12.917  14.365 -0.0045 -0.1566 -0.1247
 4872W        W20681   6.790  10.112  12.610  0.4320  0.0927  0.2077
 4873W        W20682  15.600  17.748   1.786  0.5848 -0.1685  0.1559
 4874W        W20683   0.737  11.523   3.902 -0.3348  0.0599 -0.2008
 4875W        W20684   7.175  17.096   1.104 -0.0156  0.1177  0.0960
 4876W        W20685   8.069  10.104   6.167 -0.1994 -0.2353  0.1358
 4877W        W20686   6.723   1.014  11.863 -0.0425  0.3384 -0.3283
 4878W        W20687   2.419  12.972   0.909 -0.0515 -0.1135 -0.1015
 4879W        W20688  12.517  15.643  14.787  0.2293 -0.1304  0.0025
 4880W        W20689  16.868   2.076  12.487  0.5347  0.1835 -0.1207
 4881W        W20690   4.726   6.552   0.404 -0.1621  0.0827  0.4523
 4882W        W20691   4.287  10.937   1.835  0.0398  0.4484 -0.0623
 4883W        W20692  11.293  12.824   2.959 -0.0518 -0.2111  0.1304
 4884W        W20693   1.057  10.715  12.316 -0.0412 -0.0916  0.0339
 4885W        W20694   4.184  11.756  16.514 -0.0929  0.1785 -0.1845
 4886W        W20695   8.686  16.996   0.462  0.0589 -0.3422 -0.1025
 4887W        W20696   9.988  15.709   0.871  0.0014  0.0409  0.3341
 4888W        W20697   5.149  16.220   5.821 -0.0004  0.2847 -0.2301
 4889W        W20698   7.993  17.566   4.969  0.3510 -0.2459  0.0662
 4890W        W20699   4.629  13.107  11.075  0.4146  0.0064 -0.0711
 4891W        W20700  10.760   4.219  13.938  0.0910  0.3794 -0.1709
 4892W        W20701  10.880   0.620  16.043 -0.1003  0.0545 -0.0561
 4893W        W20702   6.833  11.068   4.903  0.2545  0.1654 -0.1339
 4894W        W20703  10.058  14.337   1.265  0.0474  0.0751 -0.2594
 4895W        W20704   4.501  13.751  11.630 -0.1893 -0.1423  0.0421
 4896W        W20705   0.973   7.262  16.540  0.5667  0.1348 -0.1380
 4897W        W20706   1.749  14.452   1.416 -0.2644  0.1393 -0.1437
 4898W        W20707  15.536  13.864  15.763 -0.0154  0.3578 -0.1172
 4899W        W20708  10.248   0.879   3.917 -0.1642 -0.0694  0.0186
 4900W        W20709  13.620   1.261  11.900 -0.1530 -0.2920  0.0805
 4901W        W20710   1.510  10.292   0.051  0.0701  0.1705 -0.2996
 4902W        W20711  12.010   5.108  15.039  0.1676 -0.0200  0.0567
 4903W        W20712   3.687   0.177  16.330 -0.0085 -0.0504 -0.0307
 4904W        W20713  10.330  16.519   3.013  0.0484 -0.0422  0.4322
 4905W        W20714   5.465  17.799  16.125 -0.1610 -0.1003 -0.0230
 4906W        W20715  14.057  16.263  12.252  0.3648 -0.0604  0.0640
 4907W        W20716  14.520   5.677   1.636  0.2353  0.0469 -0.2611
 4908W        W20717  12.761   0.673   3.400 -0.0269  0.1954 -0.0919
 4909W        W20718  10.291  17.133  14.709  0.0303  0.0387  0.0420
 4910W        W20719  14.445  15.939  12.021 -0.2979 -0.0032  0.1521
 4911W        W20720  12.910   4.124  13.653  0.2169 -0.1480 -0.1918
 4912W        W20721  15.927   2.374   4.796 -0.1186 -0.0972  0.0230
 4913W        W20722  10.006  10.806   4.292 -0.1080 -0.1650  0.2041
 4914W        W20723   9.245  12.011  14.896  0.0810 -0.2971  0.0280
 4915W        W20724  13.836   8.100   0.788 -0.2266  0.0687 -0.3932
 4916W        W20725   4.314  11.920  13.119  0.0572 -0.1718 -0.0830
 4917W        W20726  10.256  17.303  15.989 -0.1613 -0.1062 -0.2323
 4918W        W20727   3.909  16.314   4.285  0.0789 -0.3506  0.0667
 4919W        W20728   5.506  17.023  13.326  0.1481  0.0086 -0.0459
 4920W        W20729   9.489   7.823  14.387  0.0824 -0.1126  0.2524
 4921W        W20730   0.945   9.319  15.016  0.2630 -0.0911 -0.1965
 4922W        W20731   6.971   1.806  11.937 -0.0012 -0.1705  0.0710
 4923W        W20732  17.296  13.855  12.310  0.1021 -0.1068 -0.0218
 4924W        W20733  16.713   2.847   1.910 -0.0430  0.1462  0.0689
 4925W        W20734   7.015  10.029  15.560 -0.2398  0.0414  0.1810
 4926W        W20735  17.453  15.906  13.249 -0.1053  0.0050  0.0094
 4927W        W20736   6.326  17.127  15.359  0.4191 -0.2317 -0.2068
 4928W        W20737   3.643   1.908   1.204  0.0591  0.0268  0.1215
 4929W        W20738  12.058  14.693   4.759  0.0431  0.1575  0.3268
 4930W        W20739   6.476  15.103   0.870  0.1490  0.2336 -0.0254
 4931W        W20740   1.375  13.863   3.995  0.1283 -0.2798  0.2737
 4932W        W20741  17.418  10.763  11.765 -0.0368  0.3554  0.0955
 4933W        W20742   9.717  15.159  14.355 -0.0801  0.0752 -0.0388
 4934W        W20743  17.490  16.541   6.568 -0.0143  0.2904 -0.1703
 4935W        W20744  11.671  13.216   5.502  0.2872  0.0382  0.4026
 4936W        W20745   7.488   5.992  15.632 -0.2426  0.2121  0.2299
 4937W        W20746  12.577   7.565   1.587 -0.0381  0.3639 -0.2623
 4938W        W20747   7.575   8.527   4.800 -0.0682  0.0092  0.1556
 4939W        W20748   2.217  17.524   4.136  0.0821 -0.1682 -0.1942
 4940W        W20749  14.536   7.285  15.968 -0.1672  0.1918  0.1951
 4941W        W20750   1.365   0.142   1.796  0.0184  0.1584  0.1198
 4942W        W20751   2.227   9.791  13.089  0.2168 -0.0851  0.1118
 4943W        W20752   0.627   1.153  16.529  0.1361 -0.1769 -0.1813
 4944W        W20753  13.004   8.220   2.638 -0.2354 -0.1615 -0.1821
 4945W        W20754   4.636   2.882   1.792  0.0561 -0.1577 -0.1281
 4946W        W20755   6.404   0.536  15.233 -0.0251 -0.0617  0.0829
 4947W        W20756   4.042   4.794   0.401  0.1163  0.1439 -0.2061
 4948W        W20757  13.665   0.294   1.784 -0.1152 -0.0862  0.1105
 4949W        W20758   9.958  10.206  12.560  0.0740 -0.0668 -0.1951
 4950W        W20759   3.704   3.613  16.614 -0.1751  0.1909 -0.1508
 4951W        W20760   4.065  15.650  16.615 -0.2125  0.3369 -0.1148
 4952W        W20761  15.463  12.527   2.033 -0.1105 -0.0671 -0.2755
 4953W        W20762   1.581  12.654   5.937  0.0786  0.0835  0.0403
 4954W        W20763   3.233   9.015  16.413 -0.0494 -0.2396 -0.0939
 4955W        W20764   6.182   3.057   2.001 -0.0692  0.0782 -0.0583
 4956W        W20765  12.736  13.912  11.398 -0.2190 -0.0083 -0.2469
 4957W        W20766  11.835   6.922  10.961  0.1852  0.0617 -0.0868
 4958W        W20767  13.252   0.413   5.039 -0.0425 -0.2495  0.3460
 4959W        W20768   3.063   9.123   3.691  0.1758 -0.4012 -0.1624
 4960W        W20769  11.546   7.494  16.514  0.1353 -0.1345  0.0495
 4961W        W20770   1.212  14.170   2.966  0.0133  0.0072 -0.2658
 4962W        W20771   6.878  13.761   5.302  0.1431  0.3148  0.1769
 4963W        W20772   5.497  16.201  16.582  0.3442  0.0471 -0.0277
 4964W        W20773   3.984  16.197   1.955  0.2484  0.0123 -0.0518
 4965W        W20774   0.810   6.124  14.262 -0.0983  0.1084  0.0046
 4966W        W20775   2.156   4.550  15.099  0.0961  0.0149  0.1447
 4967W        W20776  13.729   6.548  15.181 -0.3597 -0.0344 -0.1218
 4968W        W20777  13.578  13.531  13.136  0.2118  0.2424 -0.0305
 4969W        W20778   7.680  13.334  12.044  0.1030  0.0953 -0.1938
 4970W        W20779  13.925   6.923   2.784  0.0687 -0.0343 -0.0088
 4971W        W20780   1.257   4.940  14.485  0.0819 -0.0460  0.0592
 4972W        W20781   3.688  15.339  13.071  0.4027  0.0290  0.1289
 4973W        W20782  13.095   0.285   1.719  0.2674  0.0482  0.2322
 4974W        W20783   5.574  16.066   1.309  0.1500  0.0501  0.0713
 4975W        W20784   1.682   7.476  14.346 -0.0018  0.0117  0.2110
 4976W        W20785   2.863   4.026   3.328  0.2002 -0.2128  0.0054
 4977W        W20786   4.883   5.590   3.137 -0.0234 -0.1135 -0.1154
 4978W        W20787   0.422  15.972  13.868 -0.1640  0.0523 -0.0410
 4979W        W20788   6.911  11.619  12.992 -0.0400  0.0307  0.1774
 4980W        W20789  14.088  10.962  14.207 -0.0212 -0.3532  0.1030
 4981W        W20790   3.827  12.546  15.847 -0.0414 -0.3442  0.0259
 4982W        W20791  10.615   3.431  14.349  0.0441 -0.0311  0.1510
 4983W        W20792   1.928   7.347   4.272 -0.1542  0.0254 -0.0552
 4984W        W20793   6.196  11.700   2.102 -0.1954  0.1197 -0.5994
 4985W        W20794  17.379  10.598   4.253 -0.3558 -0.2476 -0.1343
 4986W        W20795  17.873   5.398   2.659  0.1720 -0.3042  0.0859
 4987W        W20796   3.796   8.665  12.395 -0.0170  0.2808  0.0694
 4988W        W20797  15.755  12.010   0.731 -0.2340  0.0946 -0.1729
 4989W        W20798   2.095  16.282   3.190 -0.0939 -0.1703 -0.0539
 4990W        W20799  11.507  12.008  14.891  0.3550 -0.2059 -0.4080
 4991W        W20800   2.710   4.692  13.705  0.0034  0.0872  0.0148
 4992W        W20801  12.964  11.403   5.939  0.3039  0.5792  0.0755
 4993W        W20802   7.732  10.555  14.662  0.0335 -0.0826  0.1079
 4994W        W20803  12.173  10.109   6.262  0.0788 -0.1532  0.0171
 4995W        W20804   5.327   5.702  16.550 -0.1927  0.0274  0.1016
 4996W        W20805   4.125  15.469  11.684 -0.2039  0.3103 -0.0083
 4997W        W20806  11.773  13.765   1.151  0.0090 -0.1889 -0.3224
 4998W        W20807   2.529   3.281  15.252 -0.0895 -0.0899 -0.1357
 4999W        W20808  17.780   8.149  16.274 -0.1237 -0.0508 -0.3863
 5000W        W20809  14.782   5.779  14.376 -0.1171  0.3003  0.0141
 5001W        W20810   4.548   5.055   5.519 -0.1444 -0.1364  0.3056
 5002W        W20811   5.344  14.114  15.314  0.0336  0.1018  0.0110
 5003W        W20812   9.500  10.688  14.386  0.5317  0.1344 -0.2809
 5004W        W20813   5.345  10.420   2.435 -0.1292  0.0989 -0.3344
 5005W        W20814   5.785  17.430   4.598  0.2549  0.0989  0.0157
 5006W        W20815   8.455   7.776  15.578 -0.1159  0.1430 -0.0910
 5007W        W20816  14.739  14.256  14.715  0.3053  0.0981 -0.1947
 5008W        W20817   0.035  13.531  14.348  0.1182 -0.2541 -0.1782
 5009W        W20818   6.055   6.978  15.403  0.1710 -0.1618  0.0711
 5010W        W20819  12.804  13.904  12.053  0.0573  0.0098  0.1071
 5011W        W20820  15.827  10.990  14.241 -0.2146  0.1168 -0.0832
 5012W        W20821   5.555   5.283  11.870 -0.4022  0.0790  0.0579
 5013W        W20822  15.102  14.624   3.599  0.1148 -0.2359  0.0289
 5014W        W20823  17.748  12.819  12.027 -0.1975 -0.1309  0.2073
 5015W        W20824   9.023   0.944   2.907  0.0893 -0.2691  0.0838
 5016W        W20825  10.051   5.102  12.071 -0.1125 -0.0747  0.1084
 5017W        W20826  13.974  11.275  11.359 -0.3085  0.0667 -0.0429
 5018W        W20827  14.560   4.253   1.527 -0.2034  0.2919  0.1542
 5019W        W20828   1.075  11.262   1.911 -0.0203  0.3968  0.5574
 5020W        W20829  13.313   7.712  15.679 -0.1902 -0.1335  0.0615
 5021W        W20830   0.951  16.579  13.200 -0.1419  0.1709  0.2174
 5022W        W20831   0.505   3.704   5.109 -0.1217 -0.0003  0.2340
 5023W        W20832  12.805   4.946   4.269  0.0122  0.0661  0.0238
 5024W        W20833   4.492   9.911   3.230  0.2586 -0.0688 -0.1430
 5025W        W20834  11.152   7.028  13.587  0.1111 -0.0852 -0.0356
 5026W        W20835   7.118   6.721  12.971 -0.0971 -0.2025 -0.3768
 5027W        W20836   4.767   7.639   1.951  0.0240  0.0191  0.2217
 5028W        W20837   8.085   4.193  13.465  0.0617  0.1384  0.1246
 5029W        W20838   1.962  12.025  15.096 -0.1499 -0.4953 -0.2740
 5030W        W20839   3.459   6.172  14.479  0.0863  0.1906 -0.0594
 5031W        W20840   2.278   5.211   5.078 -0.2595 -0.1839 -0.1095
 5032W        W20841   8.133  17.582   0.573  0.0271  0.0862  0.1364
 5033W        W20842  13.679   1.963   2.838  0.0739  0.1493 -0.1206
 5034W        W20843   9.783   4.381  15.030  0.0757 -0.0179 -0.2707
 5035W        W20844  15.393   0.345   1.665 -0.0567  0.0284  0.1306
 5036W        W20845   8.875   1.560   3.748 -0.1555 -0.0774 -0.2572
 5037W        W20846   8.546   0.638  16.558  0.0362 -0.1005 -0.2111
 5038W        W20847  15.638   0.734  13.496  0.0727  0.0072 -0.0413
 5039W        W20848   2.046   6.102   2.344 -0.1067 -0.2455  0.0490
 5040W        W20849  17.382  10.948   2.806 -0.1057 -0.2020 -0.2618
 5041W        W20850  15.017  13.561   1.147  0.2507  0.1911 -0.0922
 5042W        W20851  13.769   1.293   3.960 -0.1124  0.2426  0.1746
 5043W        W20852   4.450   2.908  14.850  0.0203 -0.3221 -0.0727
 5044W        W20853  16.161  11.260   2.063  0.1889 -0.4147  0.3285
 5045W        W20854   3.579  17.958  14.256  0.0443 -0.0373 -0.0980
 5046W        W20855   2.489  12.259   0.197  0.3147  0.1904 -0.0046
 5047W        W20856   1.864   1.749   4.318  0.0622  0.0438 -0.2153
 5048W        W20857  13.782  13.152   3.285 -0.4068 -0.0512  0.0450
 5049W        W20858   5.986  13.878   5.270  0.1752 -0.0677 -0.2230
 5050W        W20859   2.926   0.206  15.547  0.0864 -0.2322 -0.2259
 5051W        W20860   3.560  14.350  14.268 -0.3239 -0.2055 -0.2226
 5052W        W20861  16.693  13.268  16.598 -0.0203 -0.0600 -0.3287
 5053W        W20862  13.467   4.346  12.864 -0.1899  0.0523 -0.1296
 5054W        W20863  13.158   3.757  15.046 -0.0199 -0.2431 -0.0246
 5055W        W20864  10.370   0.513   2.692 -0.0771  0.1092  0.2031
 5056W        W20865   7.260   6.693   2.773 -0.1298  0.2726 -0.0074
 5057W        W20866   8.581   4.915  14.642 -0.2089 -0.3548  0.0520
 5058W        W20867  11.256  17.638  12.145  0.2741  0.4323 -0.0066
 5059W        W20868  10.813  16.318  15.615 -0.4194 -0.2930  0.2690
 5060W        W20869   0.907  13.330   2.014 -0.1172 -0.0925 -0.0273
 5061W        W20870  12.341   9.677   4.067  0.0520  0.1450  0.2462
 5062W        W20871  11.225  16.485   4.372  0.1142 -0.0150  0.3826
 5063W        W20872  15.597  10.390  11.746 -0.0869  0.0463 -0.0735
 5064W        W20873   8.551   7.601  15.132  0.1055 -0.1227  0.0823
 5065W        W20874   3.677  10.677   4.401  0.2368  0.2942  0.0034
 5066W        W20875   0.941  13.161   3.244  0.2475 -0.1643  0.3034
 5067W        W20876  14.397   2.088  11.709 -0.0017 -0.0143 -0.2603
 5068W        W20877  10.290   3.488   5.449  0.1004 -0.1067  0.1163
 5069W        W20878   3.770  16.821  14.848 -0.2549  0.3325  0.1682
 5070W        W20879  11.144   1.463  14.215 -0.1857  0.1838 -0.0079
 5071W        W20880  11.496   3.959  15.862  0.1805 -0.0496 -0.0962
 5072W        W20881  17.210  11.522  11.366  0.0948 -0.1546  0.1715
 5073W        W20882  11.653  10.948  16.009 -0.1099 -0.0557 -0.2811
 5074W        W20883   6.251   8.425  15.880  0.0862 -0.0593  0.0402
 5075W        W20884   5.130   5.230  12.976  0.0044  0.1873  0.1483
 5076W        W20885  14.454   9.807  13.469  0.0334 -0.0800  0.1553
 5077W        W20886   5.917   2.363  11.743 -0.1788  0.1812 -0.0093
 5078W        W20887  13.896   6.352   0.449  0.1334 -0.1660 -0.0701
 5079W        W20888  10.400   6.181   1.637 -0.0548 -0.0801 -0.0729
 5080W        W20889  12.467   1.050   1.404 -0.2236 -0.1654  0.3440
 5081W        W20890   6.237   8.085   2.695  0.1621  0.1213 -0.0833
 5082W        W20891   5.341  10.578  13.525  0.1444 -0.1819 -0.0850
 5083W        W20892  16.822   4.810   4.606  0.2875  0.4102  0.1063
 5084W        W20893   3.878  14.089   0.684  0.0768 -0.0094  0.2384
 5085W        W20894   9.868  13.137   5.592 -0.0795 -0.4645  0.0936
 5086W        W20895   8.497  11.145   0.331  0.2227  0.1479 -0.2027
 5087W        W20896  13.100  10.058   4.991 -0.1475 -0.0723  0.3380
 5088W        W20897  10.671  11.491   0.860 -0.1845 -0.1707 -0.4115
 5089W        W20898   4.885  16.386  12.998 -0.0288 -0.5218  0.0514
 5090W        W20899   9.178   7.273  11.130 -0.0398 -0.2915 -0.0982
 5091W        W20900   1.443   4.287  12.708  0.3582 -0.1283 -0.4471
 5092W        W20901   9.811  15.006  15.739  0.0587 -0.1474 -0.0129
 5093W        W20902   6.694  13.172  16.297  0.0226  0.2566 -0.0588
 5094W        W20903   1.988   6.326   4.434  0.0373  0.1008  0.0899
 5095W        W20904   3.475  12.601  13.922  0.3054  0.1034  0.2757
 5096W        W20905  13.673   3.339   3.845  0.1797  0.2311 -0.2244
 5097W        W20906  11.291   9.044  15.781 -0.0971  0.3765  0.0593
 5098W        W20907   0.026   1.348   1.613 -0.2889 -0.2788  0.3241
 5099W        W20908   7.832   1.355   1.731  0.2365  0.0477 -0.2607
 5100W        W20909  12.405  16.178   3.884  0.2277  0.0724 -0.1940
 5101W        W20910  17.558   8.555   5.099 -0.1773 -0.2339  0.1650
 5102W        W20911  12.978   2.704   4.126  0.1204 -0.1337  0.0544
 5103W        W20912   4.053  13.350   4.297  0.0595 -0.0552  0.5978
 5104W        W20913   6.495   0.093  12.322  0.0255 -0.2953  0.2362
 5105W        W20914   6.141   1.627   5.971  0.2775  0.0518 -0.0866
 5106W        W20915   5.125  10.483  13.016 -0.0688  0.1635  0.0098
 5107W        W20916  17.537  15.421  12.139 -0.0841  0.0986 -0.2571
 5108W        W20917  15.589   8.298   5.527 -0.1924  0.1013 -0.1109
 5109W        W20918   7.393  12.977   2.584 -0.2625 -0.1705 -0.0082
 5110W        W20919   4.472  13.381  15.993 -0.1338  0.3760 -0.2265
 5111W        W20920  16.178   9.218   4.459  0.2062 -0.3464  0.0476
 5112W        W20921  17.288   5.385   3.861  0.0729  0.0377 -0.0553
 5113W        W20922  12.768   2.266   1.131  0.2693  0.2990 -0.0051
 5114W        W20923   4.509   9.210  15.620  0.0896  0.3832 -0.3522
 5115W        W20924  14.834  11.988  15.865 -0.0667  0.0670 -0.1439
 5116W        W20925   5.435  10.644  11.931 -0.1486  0.1560 -0.1480
 5117W        W20926  10.370   4.767  16.526  0.0665 -0.1442  0.1926
 5118W        W20927  14.964  14.591  16.124 -0.2399 -0.1008 -0.1145
 5119W        W20928   0.338   1.737   1.979  0.0558 -0.3717 -0.1948
 5120W        W20929  11.681   5.977  14.142  0.1613  0.1563 -0.1310
 5121W        W20930  15.544   6.532   5.068 -0.0765 -0.0645 -0.0627
 5122W        W20931  11.370  10.220  14.148  0.2320 -0.0382  0.0367
 5123W        W20932   1.517   6.117  13.669  0.0402 -0.0987  0.0020
 5124W        W20933   4.714   4.818   0.881 -0.2696 -0.1468  0.2459
 5125W        W20934   3.873  11.951  12.878  0.0361 -0.2882 -0.1972
 5126W        W20935   9.144   8.804  15.146 -0.0280 -0.2663  0.1064
 5127W        W20936  15.280   9.985   3.666  0.0029 -0.0309 -0.2764
 5128W        W20937  15.972  17.451  15.556 -0.0950 -0.1168  0.1755
 5129W        W20938  15.425  11.907  13.397 -0.0176  0.0761  0.0462
 5130W        W20939   5.473   3.875  12.830  0.2211 -0.1160 -0.2281
 5131W        W20940   6.195   0.478   0.263  0.0867 -0.0035 -0.1769
 5132W        W20941   3.434  17.785   2.963  0.0365  0.0973  0.2335
 5133W        W20942   3.515   2.039  15.756  0.0658 -0.3864  0.2925
 5134W        W20943  16.484   4.122  13.686 -0.0446  0.0483  0.1186
 5135W        W20944   7.163  14.291  14.765  0.2075 -0.2572  0.0187
 5136W        W20945   2.102   6.520   0.214 -0.1207 -0.0188  0.1023
 5137W        W20946   2.966  16.709   5.461  0.1138  0.0353 -0.0975
 5138W        W20947  11.736   1.442   2.671 -0.0387 -0.3160 -0.1346
 5139W        W20948   9.867   4.132  15.934  0.0491  0.1221  0.1022
 5140W        W20949  15.538   4.761   0.833 -0.0924  0.0986  0.0691
 5141W        W20950  16.142   3.285  11.200 -0.0372 -0.3233  0.1258
 5142W        W20951   6.744  12.195   1.294  0.0294  0.1441  0.0353
 5143W        W20952  12.782  12.021   3.874  0.1073  0.0701 -0.0507
 5144W        W20953   6.878  16.957   0.727  0.0427  0.0552  0.0298
 5145W        W20954   1.650   9.652   1.140  0.1144  0.2584  0.1944
 5146W        W20955   3.785  10.166   4.671  0.0593 -0.0176  0.1669
 5147W        W20956  17.042   5.389  11.477  0.2728 -0.0130 -0.1726
 5148W        W20957  12.964   2.300   5.396  0.0838  0.3370 -0.2074
 5149W        W20958   6.717   4.138   3.534  0.3224  0.3726 -0.0024
 5150W        W20959  17.935   2.248   2.105 -0.1685 -0.1912 -0.2240
 5151W        W20960   6.757  13.008  14.714  0.1602 -0.2047  0.2692
 5152W        W20961  13.429   8.899   4.841  0.2510  0.0149  0.1854
 5153W        W20962  12.297   9.234   0.653  0.1103  0.0128 -0.0170
 5154W        W20963   3.864  10.726  14.372 -0.1018 -0.1945 -0.1349
 5155W        W20964  17.834  11.198  14.426  0.1340  0.2779  0.1988
 5156W        W20965   4.718  16.217   3.429 -0.0074  0.2059 -0.2246
 5157W        W20966  10.654  13.159  15.157 -0.1422 -0.0056 -0.1298
 5158W        W20967  16.808  11.456  13.294 -0.0219  0.3441 -0.2330
 5159W        W20968   8.054   2.728  11.213 -0.1870 -0.0642 -0.0485
 5160W        W20969  17.708   7.819  12.693  0.0971  0.2218 -0.0352
 5161W        W20970  16.272  11.167  14.617 -0.0493 -0.3074  0.0238
 5162W        W20971   1.504  17.126   5.130 -0.0395 -0.3993 -0.1480
 5163W        W20972  13.425  16.298  11.926  0.2797 -0.1076  0.0435
 5164W        W20973   0.935   9.171  11.933 -0.0280  0.2256  0.0718
 5165W        W20974   3.996   4.535  11.815  0.1096 -0.3052 -0.0399
 5166W        W20975   5.565  17.313  16.157 -0.0802 -0.0844  0.0711
 5167W        W20976  17.364   6.674  15.254 -0.1214  0.2027  0.1100
 5168W        W20977  10.682  11.142   3.652  0.1727 -0.0389 -0.0211
 5169W        W20978   5.406   0.812   1.761  0.2920 -0.2267 -0.2355
 5170W        W20979   9.069   5.029  14.697  0.1427 -0.0921 -0.2206
 5171W        W20980  13.933   5.063   4.422  0.6969  0.1658 -0.3650
 5172W        W20981  10.535   6.604   1.410 -0.0551 -0.5100 -0.0972
 5173W        W20982  11.647   0.108  12.335 -0.1459 -0.2803  0.1922
 5174W        W20983  10.834   6.616   2.489  0.3301  0.2302 -0.0119
 5175W        W20984   1.221   6.634  11.786  0.1367 -0.0296  0.2791
 5176W        W20985  15.199   8.412   0.657  0.2245 -0.0760  0.2687
 5177W        W20986  17.881  16.286   3.181 -0.1112  0.1223  0.0932
 5178W        W20987  16.069   5.477   2.307  0.1175 -0.2106  0.1258
 5179W        W20988   7.956  15.013  14.960  0.3060 -0.2867 -0.1653
 5180W        W20989   0.273  11.283  12.075 -0.1116  0.2797  0.2239
 5181W        W20990   0.524  12.097  14.381  0.1081 -0.1570 -0.1910
 5182W        W20991   6.314  15.994  11.946 -0.0784 -0.1030  0.0502
 5183W        W20992   8.094  16.997  12.662  0.0412  0.1921 -0.0859
 5184W        W20993  12.941  12.879   2.000 -0.0317  0.1808  0.1324
 5185W        W20994   3.317   5.379   1.413  0.0990 -0.1349  0.0525
 5186W        W20995   9.542  14.264   1.109  0.2543 -0.1242  0.0250
 5187W        W20996  12.572   5.355  15.561  0.0011  0.1054  0.3209
 5188W        W20997   6.254  10.328  14.685 -0.3764  0.1384 -0.2400
 5189W        W20998   9.725   9.042   5.323  0.0287 -0.2948 -0.1678
 5190W        W20999   0.681   3.467  14.465 -0.1689  0.2613 -0.5483
 5191W        W21000   0.080  13.461   2.488 -0.0342  0.4290  0.0610
 5192W        W21001   9.145   0.282  12.404 -0.2200  0.0528 -0.3526
 5193W        W21002   5.663   5.046  13.696 -0.0011  0.0006  0.2922
 5194W        W21003   4.787  15.616   6.239 -0.2351 -0.2626  0.1404
 5195W        W21004   1.630   9.454  12.362 -0.3213 -0.1053 -0.0076
 5196W        W21005   5.016   3.142   0.262 -0.0562  0.0296 -0.1597
 5197W        W21006  15.603   0.186  11.937  0.0643  0.1451  0.3973
 5198W        W21007   9.517  12.683  13.232 -0.2130 -0.1996 -0.1154
 5199W        W21008  14.012   2.417  11.468 -0.3641  0.0914 -0.2173
 5200W        W21009  14.542  13.993   4.169 -0.2229  0.2991  0.0736
 5201W        W21010  10.703   5.129   0.692  0.1206  0.1828 -0.1103
 5202W        W21011  13.012   4.430   4.589  0.1172  0.0732 -0.2996
 5203W        W21012   2.537   3.123   0.680  0.0372  0.3917 -0.1110
 5204W        W21013  13.532  10.466  14.868 -0.2424  0.2153 -0.0202
 5205W        W21014   6.348   9.610  13.209 -0.1952 -0.0943 -0.1729
 5206W        W21015   8.038   4.990   3.381 -0.1040 -0.0699  0.0832
 5207W        W21016   1.892  11.904   1.170 -0.1852 -0.2245 -0.2628
 5208W        W21017  13.666  17.460  12.019 -0.1170 -0.0202 -0.0700
 5209W        W21018   2.460   8.555  11.222  0.0883 -0.1732  0.0201
 5210W        W21019   7.320   9.605  14.795 -0.1036 -0.0223 -0.1600
 5211W        W21020  13.728   2.849  13.738  0.0512  0.2031  0.0406
 5212W        W21021  11.912   7.716  15.253  0.2975 -0.2449  0.3223
 5213W        W21022   4.469   5.371  10.628 -0.2337 -0.0812 -0.4543
 5214W        W21023   4.007  11.507   2.643 -0.0557 -0.0023 -0.3224
 5215W        W21024   6.262  10.315   1.001 -0.1537 -0.3277  0.1873
 5216W        W21025  14.419   6.578  11.840  0.2926  0.0031  0.3127
 5217W        W21026  12.652  16.145   4.588  0.0834  0.0069 -0.1112
 5218W        W21027   9.100  12.052   2.366 -0.0471  0.1923 -0.1118
 5219W        W21028   4.801   0.511  14.655  0.1319  0.0781 -0.1498
 5220W        W21029   9.874   1.159   4.216 -0.0761 -0.0397  0.1455
 5221W        W21030   6.221   0.909   4.679  0.1129 -0.0954 -0.0964
 5222W        W21031  14.350   4.936  13.373 -0.1726  0.3487 -0.2079
 5223W        W21032   6.143  15.501  16.348  0.0856 -0.1536 -0.0564
 5224W        W21033   9.292   1.557   0.217 -0.1590  0.3649 -0.1036
 5225W        W21034   0.889  11.867  14.214 -0.0355  0.2622 -0.0366
 5226W        W21035   9.136  16.207   5.861  0.2694 -0.1086  0.0316
 5227W        W21036   2.351  17.736  13.555 -0.1674 -0.0650 -0.3032
 5228W        W21037  16.574  10.365  14.556  0.1713 -0.0953  0.2508
 5229W        W21038   2.950  14.368  15.561  0.3298  0.0237 -0.3757
 5230W        W21039  14.861   9.670  12.568  0.1076  0.1168  0.2230
 5231W        W21040  11.442   4.174  13.905  0.2236 -0.1839 -0.1755
 5232W        W21041   3.112  13.514  16.149 -0.1407  0.1466  0.0661
 5233W        W21042   9.898   8.338  16.296  0.1343 -0.0075  0.2296
 5234W        W21043  13.508   1.616   4.246  0.0972  0.0723 -0.2329
 5235W        W21044   8.253  15.375   1.669  0.0030  0.1083 -0.0159
 5236W        W21045  13.770  15.409  14.136 -0.2169  0.1966 -0.1156
 5237W        W21046  11.594  13.967   2.751  0.0310 -0.1848  0.1965
 5238W        W21047   2.507  17.490  16.206 -0.3343  0.1320  0.0679
 5239W        W21048   4.898   3.102  15.722 -0.1937 -0.3451 -0.1367
 5240W        W21049  12.101   2.142   5.800  0.0745  0.0889  0.0246
 5241W        W21050  10.589  12.725  12.477  0.3345  0.0194  0.1243
 5242W        W21051   2.491  11.978  15.154  0.1647  0.1372  0.1435
 5243W        W21052  17.837   6.582  16.631 -0.0089  0.0701  0.0488
 5244W        W21053   6.354  16.653   4.594  0.0694  0.3417  0.1089
 5245W        W21054   6.926   8.204   5.446 -0.2494 -0.1161 -0.0174
 5246W        W21055  14.112   7.707   2.692  0.3534 -0.1413  0.0717
 5247W        W21056   0.949   0.817   2.441  0.4391 -0.2674  0.0269
 5248W        W21057   0.352  17.281   2.306  0.2442 -0.1101 -0.0308
 5249W        W21058  13.118  11.008   4.966  0.1242 -0.2683 -0.1722
 5250W        W21059   6.543  11.628  15.936  0.0779 -0.0937  0.1747
 5251W        W21060   0.130  10.284   0.465  0.1366  0.1324 -0.0914
 5252W        W21061   3.421   8.353  11.659  0.0539  0.0382  0.1415
 5253W        W21062   7.068   8.622   4.626  0.0104 -0.0027 -0.0053
 5254W        W21063  11.203  11.364   0.728  0.2377  0.1362 -0.2622
 5255W        W21064   9.630   0.389  12.513 -0.0926  0.1696 -0.0372
 5256W        W21065   3.992   2.765   1.047  0.0914  0.2919  0.0563
 5257W        W21066   5.060  17.239  11.382 -0.0272 -0.0890  0.1869
 5258W        W21067  16.478   4.084   1.817 -0.1009  0.3203  0.1397
 5259W        W21068   1.133   4.645  16.407  0.2208  0.0686  0.2445
 5260W        W21069  13.232   5.107   3.994  0.1943  0.0204  0.2381
 5261W        W21070  17.236   1.887   1.766 -0.1845 -0.0576  0.0465
 5262W        W21071  12.249  16.764  12.185  0.0012 -0.1684  0.1941
 5263W        W21072  17.729   3.062   0.264  0.1537 -0.0837  0.0063
 5264W        W21073  16.569   8.881  11.772  0.0140 -0.0667 -0.2545
 5265W        W21074   1.780   9.009  15.487 -0.1827  0.1543 -0.0703
 5266W        W21075   0.335   1.936  15.282 -0.0142  0.3432  0.0099
 5267W        W21076  14.700   2.860  11.975 -0.0165  0.0197 -0.0219
 5268W        W21077  12.005   3.168   0.101  0.0062  0.0919  0.0443
 5269W        W21078   6.289  10.528   0.092  0.0882  0.2104  0.3039
 5270W        W21079   3.132   6.418  16.105 -0.0439 -0.0391  0.0871
 5271W        W21080  10.343  16.290   3.829  0.0946 -0.2592  0.1299
 5272W        W21081  15.843   4.975   4.567  0.0125  0.0460  0.4588
 5273W        W21082  13.657   5.693   5.205 -0.0535  0.3377 -0.0056
 5274W        W21083  13.154  16.359   4.488 -0.3307 -0.0304 -0.1381
 5275W        W21084   4.273   8.821   0.017 -0.0553  0.0274 -0.0525
 5276W        W21085   3.755  13.752   4.214  0.2998 -0.0997 -0.0844
 5277W        W21086  17.465  17.261  11.599 -0.0588  0.2266  0.1916
 5278W        W21087  12.253   7.718  15.638 -0.1156 -0.2054  0.1737
 5279W        W21088  17.504  12.325  11.932  0.1664  0.2061  0.1585
 5280W        W21089   0.579   2.728   1.742  0.0013  0.4741 -0.1015
 5281W        W21090  10.410   7.087  11.583  0.2509  0.0009  0.1950
 5282W        W21091   7.730   7.690  11.538  0.0276 -0.1645  0.1555
 5283W        W21092   2.239  13.995  16.215  0.1190 -0.0979  0.0980
 5284W        W21093  10.399   2.283  12.732  0.0664 -0.0957 -0.3540
 5285W        W21094  14.648   3.211   3.638 -0.1300  0.0981 -0.0402
 5286W        W21095   3.500   0.576  14.254 -0.2239 -0.1457 -0.1223
 5287W        W21096  12.592   4.233   5.407  0.0094  0.5639 -0.0769
 5288W        W21097  13.415   8.030   1.128 -0.2351  0.0844  0.2136
 5289W        W21098  16.684   2.555  12.708 -0.2851 -0.1892  0.0103
 5290W        W21099  15.250   3.465  12.492 -0.1499  0.0501 -0.4536
 5291W        W21100   7.619  11.508   3.192 -0.0132  0.0967 -0.0396
 5292W        W21101  16.373  10.057   5.103  0.0114  0.1219 -0.1169
 5293W        W21102  17.472   2.174  14.431  0.1393 -0.4249  0.1944
 5294W        W21103  12.968  16.282   1.945  0.2064  0.3695 -0.4233
 5295W        W21104   9.103   4.380  13.909 -0.0943 -0.0199  0.2126
 5296W        W21105  15.941  11.838   0.252  0.1259 -0.2001 -0.1941
 5297W        W21106  14.072   5.989   5.265  0.1599  0.1353  0.1262
 5298W        W21107   3.744  11.826  10.547 -0.1961 -0.0572  0.0165
 5299W        W21108   8.349  15.797  14.609 -0.3357 -0.0405 -0.3874
 5300W        W21109   0.537  11.519  14.005  0.1212 -0.1589  0.1931
 5301W        W21110  10.139  16.722  15.976 -0.2795 -0.2009 -0.0764
 5302W        W21111  15.311  17.952   3.899  0.0931  0.1373 -0.0615
 5303W        W21112   9.998   7.848  13.255  0.0106 -0.1570  0.2664
 5304W        W21113   3.971  15.102  12.126  0.0570 -0.0698 -0.1203
 5305W        W21114   9.282  14.101   0.557  0.1860 -0.2330  0.2326
 5306W        W21115  16.829   0.184   2.511 -0.2498 -0.2121 -0.1270
 5307W        W21116   9.137   3.890   4.989  0.4159  0.1084  0.1699
 5308W        W21117   6.131   4.207   2.937  0.0695  0.0966  0.2387
 5309W        W21118  15.026   6.237   1.753 -0.0557 -0.3321 -0.0080
 5310W        W21119   4.472   0.982   2.776 -0.0969  0.0172 -0.0499
 5311W        W21120   1.107   8.946  16.321 -0.2843  0.0276 -0.0638
 5312W        W21121   3.450   6.994   4.100  0.0659  0.0856  0.0593
 5313W        W21122  13.149   1.242   0.954 -0.1829 -0.2913  0.0473
 5314W        W21123   7.140   2.905  15.098  0.4468 -0.0944  0.1045
 5315W        W21124   6.401  10.035   0.106 -0.0546  0.1047 -0.1099
 5316W        W21125   4.210   1.134  14.765  0.0922  0.0759 -0.0500
 5317W        W21126  14.678   2.826  14.358  0.0824 -0.2613  0.1147
 5318W        W21127   3.461   9.309  11.741 -0.1264  0.2647  0.1645
 5319W        W21128   6.030   6.053   2.761  0.0810  0.0018  0.1418
 5320W        W21129  16.270   5.982   0.235  0.3819  0.0359 -0.1079
 5321W        W21130  10.194   4.065   4.101  0.1295  0.2349 -0.0643
 5322W        W21131   9.364   9.143   0.709 -0.0018 -0.2200  0.1057
 5323W        W21132   0.025  13.552  13.018 -0.0454 -0.1786 -0.0024
 5324W        W21133   2.242  10.047   5.464  0.3467  0.2292  0.1187
 5325W        W21134   1.640  16.724  15.380 -0.4046 -0.0720 -0.1177
 5326W        W21135   9.060   5.325   0.675  0.1202 -0.2968  0.0228
 5327W        W21136   5.503  15.241   3.927  0.3371  0.0604 -0.3352
 5328W        W21137  14.834   1.362  12.202 -0.1294  0.0454  0.1200
 5329W        W21138   3.096   3.238  11.599  0.1133 -0.0233 -0.0127
 5330W        W21139   0.070   9.195   0.448  0.0887 -0.0183 -0.1296
 5331W        W21140  10.325  14.965   4.816 -0.1460 -0.0276  0.1524
 5332W        W21141   3.981  13.055   0.346  0.0502  0.1739  0.1853
 5333W        W21142  17.888   6.521  11.609 -0.0117  0.0672  0.0173
 5334W        W21143  14.324   1.152   1.478 -0.3173  0.1496 -0.3449
 5335W        W21144   4.005  14.209  14.522 -0.0470 -0.0064  0.2916
 5336W        W21145  11.968  12.252  13.535  0.0321 -0.0166 -0.2327
 5337W        W21146   2.461   8.645   1.385 -0.0852  0.2181 -0.0902
 5338W        W21147   9.017   6.468  14.400 -0.1706  0.0324 -0.1244
 5339W        W21148   2.649   0.253  12.496  0.3687  0.0715  0.2491
 5340W        W21149  10.936   5.742   5.114  0.0646  0.1802  0.1081
 5341W        W21150   9.064  11.717  12.138  0.1734  0.0555  0.0351
 5342W        W21151   5.420  15.264  11.569  0.1021  0.0909 -0.0932
 5343W        W21152  14.657  17.321   4.164 -0.1123  0.2147  0.1039
 5344W        W21153   1.453  10.782  14.989  0.1477  0.0164 -0.0081
 5345W        W21154   3.552   5.800   5.525  0.0591 -0.5426 -0.3254
 5346W        W21155  14.652   6.269  15.458 -0.2420  0.2688  0.0267
 5347W        W21156   4.340   1.447   1.661 -0.2334 -0.0905 -0.3431
 5348W        W21157   8.391  16.275  13.003 -0.3977  0.0413  0.1927
 5349W        W21158   0.229   1.184   3.037  0.0185 -0.0703 -0.1118
 5350W        W21159  16.482   6.309   4.632 -0.1218  0.3965 -0.0375
 5351W        W21160   9.464  10.530   3.538  0.0686 -0.0215 -0.0886
 5352W        W21161  11.454  11.053  11.982 -0.1064 -0.0896 -0.1554
 5353W        W21162  12.576   1.916   3.342 -0.0676 -0.2282  0.0147
 5354W        W21163  12.400  15.113   0.104  0.2731 -0.1964 -0.1006
 5355W        W21164   2.308  16.689  13.295  0.0823 -0.1672  0.0733
 5356W        W21165  14.952   7.434   3.133 -0.3279  0.0370 -0.0471
 5357W        W21166   3.192   3.104  14.474 -0.0197 -0.0817  0.0962
 5358W        W21167  13.063  14.545   5.857 -0.1198 -0.0974  0.0793
 5359W        W21168  15.613  13.445  14.465  0.0608  0.0246 -0.3166
 5360W        W21169  14.640   2.019   2.667  0.1329 -0.1451 -0.2203
 5361W        W21170  13.339  10.193  13.768 -0.3165 -0.1011  0.1057
 5362W        W21171   1.993   2.102  14.261  0.0242  0.0592  0.1756
 5363W        W21172   0.886   2.007  11.358 -0.1446  0.1286 -0.1256
 5364W        W21173  17.862  15.471  14.938 -0.0522 -0.3394  0.0638
 5365W        W21174   9.589  14.587  15.982 -0.2110 -0.0216  0.1399
 5366W        W21175  16.250  14.558  16.530  0.1638 -0.1738 -0.2346
 5367W        W21176  13.162   2.729  11.982  0.0940 -0.2094 -0.0026
 5368W        W21177   8.681  17.834  14.390 -0.2346 -0.0254  0.0285
 5369W        W21178  13.810  14.622  12.559 -0.1145  0.4887  0.1919
 5370W        W21179   8.476   9.490   1.132 -0.1314 -0.0782 -0.0952
 5371W        W21180   9.416   0.790  12.262  0.0118 -0.0972 -0.0415
 5372W        W21181  16.488   3.522  14.122  0.2714 -0.2808 -0.5048
 5373W        W21182  17.072   3.905  11.319 -0.3024  0.1552  0.1972
 5374W        W21183   6.608   1.613   0.908 -0.2540 -0.1662 -0.0662
 5375W        W21184  15.897   1.396   4.565 -0.2034 -0.1187 -0.2413
 5376W        W21185   6.260  12.265  13.099  0.1379  0.0952  0.0194
 5377W        W21186   7.806   8.058   1.290 -0.0133  0.2329 -0.1900
 5378W        W21187  14.232  14.974   2.289 -0.0550 -0.1259 -0.1792
 5379W        W21188  10.216   5.065   4.682 -0.2194  0.0287 -0.2285
 5380W        W21189   8.309   2.495   2.446 -0.0977  0.2402  0.1517
 5381W        W21190  15.769   0.250   3.437  0.0767 -0.0421  0.1065
 5382W        W21191  13.072  13.830  12.446 -0.0749  0.0182  0.1543
 5383W        W21192   5.712   0.756   4.844 -0.1672 -0.0078  0.0777
 5384W        W21193  14.133   5.850   0.507 -0.0416  0.0696 -0.1116
 5385W        W21194   0.482  15.583   2.706  0.1929 -0.0434  0.2488
 5386W        W21195  17.245  16.002   3.855  0.3129 -0.0496  0.1233
 5387W        W21196   2.641   4.701  12.317  0.1374 -0.1869 -0.0090
 5388W        W21197   3.273   8.231   4.428  0.2456  0.1258 -0.2181
 5389W        W21198   1.441  15.794   2.242 -0.3032 -0.1311  0.0914
 5390W        W21199   5.084  10.487   2.935 -0.0217  0.1538 -0.0581
 5391W        W21200  16.831   1.974  15.927 -0.1959  0.2058 -0.3216
 5392W        W21201  10.059  13.458  14.499  0.0125  0.3581 -0.4124
 5393W        W21202  11.381  15.417   2.104 -0.0394 -0.2658 -0.3102
 5394W        W21203  14.775   9.827  15.625  0.0556 -0.0963  0.2574
 5395W        W21204  11.535  14.603  15.022 -0.2338 -0.0903 -0.1109
 5396W        W21205   8.109   5.776   5.105 -0.1699 -0.1335 -0.0159
 5397W        W21206   4.292   8.221  14.922 -0.0598 -0.1276  0.0050
 5398W        W21207   3.494  13.384  11.164 -0.0493 -0.0641 -0.0781
 5399W        W21208  14.094  15.965  11.366  0.1859  0.0319  0.1442
 5400W        W21209   2.812   8.341  16.474  0.1660 -0.0521 -0.0675
 5401W        W21210  16.437  14.097   3.819 -0.5199  0.1771  0.4581
 5402W        W21211   6.612   9.677  16.369  0.1734  0.1244 -0.2760
 5403W        W21212   0.050   8.387  13.559 -0.0424  0.0049  0.1371
 5404W        W21213  13.470   4.268  15.572  0.2785 -0.1932  0.0988
 5405W        W21214   3.029   6.469  13.261 -0.3118  0.2163  0.0492
 5406W        W21215   0.045   9.421  15.013  0.0266 -0.3959  0.1252
 5407W        W21216   5.573  16.551  14.087  0.0360  0.0072 -0.3583
 5408W        W21217   6.620  10.356  15.736  0.1221  0.3100 -0.0506
 5409W        W21218   8.040   1.748   2.948  0.1102 -0.0189 -0.1069
 5410W        W21219   4.191  17.125  15.831  0.1045 -0.1469 -0.0116
 5411W        W21220  11.454   0.810   3.286 -0.2137 -0.2705  0.4977
 5412W        W21221   4.116   7.839   1.345 -0.1049 -0.0031 -0.0521
 5413W        W21222   4.335   2.092   2.658  0.1126 -0.1326 -0.4774
 5414W        W21223   7.277   5.567  13.486  0.2789  0.1354 -0.0758
 5415W        W21224   7.619   2.551  12.715  0.1066  0.0675 -0.1093
 5416W        W21225  14.477   0.942  15.747  0.0157 -0.3470  0.0011
 5417W        W21226  14.151  11.601   0.901 -0.2276  0.3664 -0.0672
 5418W        W21227   1.555   3.870  14.435 -0.0185 -0.1143  0.0705
 5419W        W21228   6.330   2.484  13.569 -0.0329 -0.1538 -0.2281
 5420W        W21229  17.498   6.675  13.711 -0.1536 -0.1205 -0.2963
 5421W        W21230  15.427   8.303   3.943 -0.0878  0.0774  0.1770
 5422W        W21231  12.029   9.433  13.697  0.0527 -0.1469  0.0082
 5423W        W21232  17.898   7.305   1.666 -0.1785 -0.0645  0.2056
 5424W        W21233   6.469   7.126   3.617  0.1488 -0.1778  0.0007
 5425W        W21234  10.869  10.140   4.590 -0.0614 -0.2197  0.2628
 5426W        W21235  13.704   9.507   3.143 -0.1531  0.4049 -0.1733
 5427W        W21236  17.801  17.141  15.672  0.0862  0.0807  0.2087
 5428W        W21237   2.527  11.253   1.097  0.2558 -0.1073  0.1847
 5429W        W21238   5.937   6.078  12.771 -0.1278  0.0148  0.2271
 5430W        W21239  11.388  15.899   5.777 -0.0844 -0.1182  0.1106
 5431W        W21240   5.036  11.840   9.861  0.0942 -0.0871 -0.0288
 5432W        W21241  15.667   2.040  13.534  0.1438 -0.0825 -0.3039
 5433W        W21242   8.805  12.466   1.568 -0.0303  0.0927  0.0665
 5434W        W21243  13.484   8.697   1.800 -0.0837 -0.1003 -0.0803
 5435W        W21244  11.985   6.000   3.124  0.2598  0.0828  0.0223
 5436W        W21245  10.732   6.990  16.670 -0.0335  0.1692 -0.0607
 5437W        W21246   2.881   1.559   3.064  0.0148  0.0722  0.0254
 5438W        W21247   5.846  12.968  11.373 -0.0165  0.1100  0.1298
 5439W        W21248  13.018   7.069   3.549 -0.0491  0.3761 -0.0160
 5440W        W21249  15.860   6.966  16.483 -0.0137  0.3382  0.0450
 5441W        W21250   4.278   6.399   0.973  0.2267  0.1593 -0.0739
 5442W        W21251   0.491   7.461   2.273 -0.1410  0.2474  0.3369
 5443W        W21252   3.122  13.154   2.400 -0.0769  0.0177  0.1037
 5444W        W21253  13.361   9.345   4.043 -0.0782 -0.1960  0.2202
 5445W        W21254   0.307  16.865   4.085  0.0162  0.4275 -0.0888
 5446W        W21255   8.084  16.806   1.664 -0.0772  0.0657  0.2058
 5447W        W21256   4.785  15.178   2.279 -0.4077  0.0727  0.2678
 5448W        W21257  16.960   7.734   4.022 -0.0626  0.2510 -0.0399
 5449W        W21258  15.789  11.485   1.229 -0.1108  0.0495  0.0853
 5450W        W21259   1.968   9.493   2.923 -0.1553 -0.2949  0.0573
 5451W        W21260   6.273   2.735  11.756  0.1691  0.1635 -0.1943
 5452W        W21261  15.507   9.634   5.018 -0.3609  0.0020  0.0645
 5453W        W21262   6.899   4.848  11.438 -0.0282 -0.0955 -0.1800
 5454W        W21263   8.320   0.718   3.405 -0.0872  0.3288  0.0278
 5455W        W21264   2.702  13.667   0.176 -0.3538 -0.0124 -0.1236
 5456W        W21265  17.299  12.508  14.736 -0.2944  0.1763 -0.3026
 5457W        W21266   3.686   0.913   2.741  0.3114 -0.1350 -0.0512
 5458W        W21267   4.307   1.851   1.292  0.0309 -0.3439  0.0195
 5459W        W21268   6.882   4.845   6.033  0.2405 -0.0064 -0.1309
 5460W        W21269   9.207  10.127  12.069 -0.3910  0.0274 -0.0106
 5461W        W21270   0.413   2.408   3.779  0.0958  0.0003  0.1304
 5462W        W21271   4.208   7.177   0.776  0.2062 -0.2615 -0.1387
 5463W        W21272  15.260  11.621   5.731 -0.2483 -0.0457 -0.1104
 5464W        W21273  15.163   9.226  16.349 -0.2322  0.0302 -0.1688
 5465W        W21274  14.881  17.258   5.490 -0.1221 -0.1707 -0.0014
 5466W        W21275  10.777  13.446  12.157 -0.0075  0.0192  0.0935
 5467W        W21276  14.244  15.706  16.084  0.0752 -0.0898  0.1188
 5468W        W21277   0.378   1.721   1.458 -0.1348 -0.0929 -0.1915
 5469W        W21278  11.182   2.701  15.545  0.0586  0.1400 -0.0609
 5470W        W21279  17.794   8.682  16.300 -0.0839  0.3310 -0.1505
 5471W        W21280   2.566   1.519  12.153  0.3764 -0.1939  0.2560
 5472W        W21281   9.793   1.399   5.184  0.0432 -0.1056 -0.2749
 5473W        W21282  12.409  16.528  13.421 -0.2460  0.1068  0.1322
 5474W        W21283  17.525  14.299   2.670 -0.1180  0.0567 -0.3159
 5475W        W21284   5.837  14.443  11.175  0.0455  0.0460  0.0261
 5476W        W21285  13.365   9.584   2.259 -0.1168 -0.0581  0.1155
 5477W        W21286  11.383   7.664  15.997 -0.0431 -0.2176  0.3937
 5478W        W21287   6.890   2.327  12.082 -0.1094  0.3860  0.2013
 5479W        W21288   0.148  12.272   1.104  0.0948 -0.3568 -0.0244
 5480W        W21289   6.985   0.549   6.306  0.0686 -0.1553 -0.0555
 5481W        W21290   8.889   6.299  10.897  0.2134 -0.0719  0.1627
 5482W        W21291   9.340  13.198   5.708 -0.1806 -0.3587 -0.0878
 5483W        W21292  17.874   7.514  13.825 -0.0203 -0.1437 -0.1325
 5484W        W21293  12.683   0.348  14.903  0.0101  0.0453 -0.0992
 5485W        W21294  11.486   5.714  13.625 -0.0757  0.0062  0.1241
 5486W        W21295  15.638   4.684   2.601  0.1266  0.0134 -0.0127
 5487W        W21296   7.750   5.351   0.716 -0.0539  0.3519 -0.1569
 5488W        W21297   1.508   6.903  12.072  0.1930  0.0729  0.0323
 5489W        W21298   5.650  13.310   2.704 -0.3531 -0.0907 -0.2194
 5490W        W21299  13.483   9.124  16.617 -0.3575  0.2092  0.0468
 5491W        W21300  15.736   7.682   2.821 -0.1423 -0.0980 -0.1284
 5492W        W21301   0.387  16.364  14.868 -0.1230  0.2107 -0.0506
 5493W        W21302  16.696  12.049  11.924  0.0459  0.1718  0.1044
 5494W        W21303  13.261   8.380   4.830  0.0712 -0.3362 -0.1636
 5495W        W21304  15.312   4.510  16.529  0.1267 -0.0274  0.5974
 5496W        W21305   3.144   3.018   3.170 -0.0877  0.1537 -0.0180
 5497W        W21306  13.684   5.111   2.027  0.0284  0.1595 -0.2893
 5498W        W21307   8.932   1.753   4.337 -0.0696 -0.3379 -0.0599
 5499W        W21308   6.254   9.098  13.026  0.1282  0.1407 -0.1638
 5500W        W21309   9.029  11.672   3.078  0.2520 -0.0155 -0.0388
 5501W        W21310  14.702   9.479   4.864 -0.2872 -0.3177  0.1900
 5502W        W21311   6.824   6.535  10.209  0.0715 -0.1882 -0.1163
 5503W        W21312  10.692   4.527  13.253 -0.3068 -0.2429  0.2089
 5504W        W21313  12.925  14.350   2.792  0.1918 -0.1996  0.4190
 5505W        W21314  12.736   1.964  16.433 -0.0914 -0.1061  0.0560
 5506W        W21315  12.210  11.281  12.539  0.1760 -0.0138  0.4146
 5507W        W21316   2.794   6.581  15.118 -0.1468  0.1563  0.2418
 5508W        W21317   4.641   6.917  13.919 -0.0253 -0.0217 -0.1732
 5509W        W21318   0.297  11.704  16.686 -0.0523  0.0019 -0.0703
 5510W        W21319   5.495  16.633   1.534 -0.0958  0.0373  0.0085
 5511W        W21320   9.512   5.348  13.857 -0.0091  0.1006  0.1363
 5512W        W21321   2.761  11.997  11.329  0.0383  0.1233  0.0177
 5513W        W21322  15.010  16.493   1.511  0.0044 -0.1712  0.2999
 5514W        W21323  16.724   6.750   0.651  0.1508 -0.2041  0.1699
 5515W        W21324   8.992   3.155   5.361 -0.2104 -0.1327  0.3049
 5516W        W21325  10.577   0.284  14.251  0.0104 -0.0286  0.0691
 5517W        W21326   2.034   9.487   0.176  0.0328  0.1993 -0.1608
 5518W        W21327  16.670   4.037   1.362  0.0802 -0.1242 -0.2061
 5519W        W21328   7.002   5.862   4.398 -0.3589 -0.2178 -0.2539
 5520W        W21329  11.758  12.718   6.739 -0.0846 -0.0854 -0.0335
 5521W        W21330  12.624   6.630  15.941  0.2909  0.2982  0.2340
 5522W        W21331  15.930   8.918   0.653 -0.1475 -0.2312 -0.0078
 5523W        W21332   8.870  17.849   5.446  0.0861  0.2018 -0.0926
 5524W        W21333   3.123  11.873  11.697  0.0664  0.1436  0.0181
 5525W        W21334  17.617   3.024   4.941  0.0194  0.0004 -0.1658
 5526W        W21335  10.302   4.253  14.234 -0.1844  0.1714 -0.0380
 5527W        W21336   9.104  15.213   0.796  0.0514  0.1764  0.2032
 5528W        W21337   1.978   8.519  11.447  0.0506  0.0761  0.0188
 5529W        W21338  14.471   3.837  13.593 -0.0956 -0.1704  0.0661
 5530W        W21339   1.219  13.169  15.098  0.3194  0.0239 -0.0865
 5531W        W21340   0.006   0.575  15.381 -0.2798  0.0343 -0.3115
 5532W        W21341  10.966  16.379   0.615  0.0074 -0.1203  0.0834
 5533W        W21342  10.971   8.132  13.562  0.3438  0.1481 -0.1815
 5534W        W21343  12.849   4.602  14.409  0.1987 -0.0248 -0.1837
 5535W        W21344   7.818   9.719  12.388 -0.1300 -0.0648  0.0597
 5536W        W21345  17.490   9.010  12.948  0.2284  0.0921 -0.0125
 5537W        W21346   1.156   1.591   0.368 -0.0411 -0.1943  0.2270
 5538W        W21347   5.514   9.827   3.779 -0.3224  0.2816 -0.0192
 5539W        W21348   1.499   2.533   4.364 -0.0753  0.2485  0.1079
 5540W        W21349  13.873  17.929   2.132  0.0704 -0.1846 -0.0101
 5541W        W21350   0.677   0.036   0.702  0.0762  0.0961  0.0344
 5542W        W21351   3.791   0.430  11.452  0.2444 -0.0072 -0.0958
 5543W        W21352   3.744  11.000   1.610 -0.0657 -0.2239 -0.1843
 5544W        W21353   0.516  15.805  15.448  0.1480  0.0252 -0.0741
 5545W        W21354   9.430   6.301  14.690  0.0992 -0.1881  0.1616
 5546W        W21355  14.099  11.331   5.034  0.1880 -0.1391  0.1527
 5547W        W21356   3.509  10.317   5.385 -0.2514  0.2862 -0.0893
 5548W        W21357   5.832  11.851   3.403  0.1924 -0.0320  0.2172
 5549W        W21358  13.657  16.558   4.463  0.2283 -0.3484  0.0092
 5550W        W21359  14.105  15.821   4.438 -0.3369 -0.3244 -0.0553
 5551W        W21360   5.246  17.528  11.730  0.1491  0.0250 -0.1837
 5552W        W21361   5.309   7.549   4.544 -0.1903  0.2246 -0.4319
 5553W        W21362  14.377  15.965   6.020 -0.2805 -0.4337 -0.0866
 5554W        W21363  12.081  11.097  14.165  0.0153  0.1265 -0.0787
 5555W        W21364   6.839   9.699   0.314  0.1938  0.1552 -0.0760
 5556W        W21365   5.693  17.260  12.488  0.0556 -0.3015  0.0626
 5557W        W21366  14.739   2.507  10.979 -0.2240  0.1257  0.0095
 5558W        W21367  12.184  14.951  14.304 -0.1805 -0.1685  0.0317
 5559W        W21368   5.673   0.984  13.091 -0.0222  0.0258 -0.2518
 5560W        W21369  10.649   7.401  16.034 -0.2037 -0.1665  0.2267
 5561W        W21370   2.791   9.644   3.633 -0.0531  0.1642  0.2475
 5562W        W21371  13.442  15.747  14.677  0.0426  0.1059 -0.1275
 5563W        W21372  10.409   0.151  12.958 -0.2542  0.1173 -0.3890
 5564W        W21373   5.213  12.425  12.475  0.0893 -0.0372  0.0881
 5565W        W21374  17.519  15.901  12.194 -0.1296  0.0850 -0.2155
 5566W        W21375   9.971   4.206   1.664  0.0957 -0.1646 -0.0000
 5567W        W21376   5.576  16.687   5.117 -0.0195 -0.2144 -0.0719
 5568W        W21377   2.460  11.634  14.390  0.1181 -0.2534  0.0768
 5569W        W21378  14.899   6.045   2.566  0.1089 -0.0413  0.1510
 5570W        W21379  14.408  16.919  14.419 -0.0589  0.0545  0.4054
 5571W        W21380   1.242  14.625  14.140 -0.2252  0.1146 -0.0176
 5572W        W21381   1.626   8.098   3.559 -0.2778 -0.3630 -0.2360
 5573W        W21382  11.702  16.367  12.432 -0.0653  0.1383 -0.1524
 5574W        W21383   1.559   8.936  16.071  0.1669  0.1027 -0.0350
 5575W        W21384   1.492   6.226   4.778 -0.0459 -0.2187 -0.2756
 5576W        W21385  11.550   1.174  15.520  0.1244 -0.3941 -0.2171
 5577W        W21386  15.311  15.629  15.329 -0.0806 -0.1802 -0.1009
 5578W        W21387   6.614   8.956  16.628  0.0197 -0.4229  0.2849
 5579W        W21388   7.795  15.395   3.460 -0.0026 -0.2041 -0.3785
 5580W        W21389  13.124  11.055  15.279 -0.3112 -0.3702 -0.1020
 5581W        W21390  14.718   8.099  15.301 -0.0274 -0.1942  0.0571
 5582W        W21391  11.447  16.333   0.847  0.2735 -0.0832 -0.1508
 5583W        W21392   7.686   3.500   3.265  0.0130 -0.0369  0.0781
 5584W        W21393  17.398  10.848  14.136  0.1455 -0.0271 -0.0968
 5585W        W21394   0.836   2.815   4.962  0.1352  0.0487  0.2621
 5586W        W21395  11.680   3.716   1.936 -0.0644  0.1975  0.0735
 5587W        W21396   2.858  11.275  15.366 -0.3178  0.2041 -0.2488
 5588W        W21397   3.267  17.399  11.223  0.1417  0.1236  0.3306
 5589W        W21398   7.304   4.504   2.360 -0.1980  0.0260 -0.1519
 5590W        W21399  11.560   4.448   4.784 -0.3099  0.1347  0.0584
 5591W        W21400  17.356  16.551  11.710 -0.1797 -0.1557 -0.1024
 5592W        W21401  17.399   6.648   5.039  0.1084  0.1451  0.1158
 5593W        W21402   1.145  16.962  15.340  0.0184  0.2230 -0.0802
 5594W        W21403  15.482  15.171   6.503 -0.0390  0.0749  0.0003
 5595W        W21404   9.531   3.584   1.007 -0.1312  0.2813  0.1646
 5596W        W21405   8.017   2.887  14.117 -0.0007  0.1983 -0.2979
 5597W        W21406   2.417  17.325   1.348  0.0894 -0.0310  0.1540
 5598W        W21407   4.558  17.425  11.260  0.1103  0.0912 -0.1662
 5599W        W21408  13.028   4.522   5.705 -0.1243  0.2741  0.1122
 5600W        W21409   5.894  13.008   4.452 -0.1615 -0.0894  0.2709
 5601W        W21410   8.776   9.856  16.627 -0.1343  0.0253 -0.2763
 5602W        W21411   7.822   8.680  14.474 -0.1715  0.0922 -0.0103
 5603W        W21412  14.504   0.267   5.558  0.2854 -0.1480  0.1224
 5604W        W21413   6.352  15.474   1.773  0.2130  0.3870  0.2464
 5605W        W21414  11.257  17.692   3.356 -0.1599 -0.1170 -0.0619
 5606W        W21415   2.256  15.642  11.682 -0.4300 -0.0831  0.0428
 5607W        W21416   0.089  14.450  14.567  0.1042  0.0660 -0.0319
 5608W        W21417  12.648   2.919  10.879 -0.2100 -0.1621 -0.3117
 5609W        W21418   6.985   3.480   5.381  0.3552 -0.0591 -0.1542
 5610W        W21419   0.072  14.746  11.897  0.2675  0.0614 -0.0863
 5611W        W21420   2.279  16.150   1.485 -0.1216 -0.0733  0.0576
 5612W        W21421   1.072   2.459   5.268  0.0587 -0.4168  0.0205
 5613W        W21422   1.735   9.539  14.230  0.0427  0.1366 -0.2424
 5614W        W21423  12.822  11.566   4.013 -0.0316 -0.0454  0.0610
 5615W        W21424   8.864   2.053   2.258 -0.1940 -0.2922  0.1570
 5616W        W21425  12.622   3.697   5.705  0.0189  0.0600  0.0678
 5617W        W21426  10.546   6.179  12.245 -0.0194 -0.2843 -0.1371
 5618W        W21427  12.329   9.270  12.265  0.2270  0.6442 -0.0388
 5619W        W21428   1.469   2.661   3.674  0.1134 -0.2262 -0.1014
 5620W        W21429   5.445   1.703   4.514 -0.0278  0.0094 -0.1624
 5621W        W21430  16.615  14.205  14.316 -0.2402 -0.0878 -0.0699
 5622W        W21431  13.255  17.674  11.838 -0.1201 -0.2019 -0.0374
 5623W        W21432   7.707   1.281   4.950 -0.3764  0.0853 -0.0698
 5624W        W21433   0.351   5.500   2.979  0.2074  0.4584  0.2245
 5625W        W21434   6.449   1.889   5.454  0.0588 -0.0785 -0.1675
 5626W        W21435  17.042  17.682   5.815 -0.2079 -0.1148 -0.1189
 5627W        W21436   8.562   7.446  15.956  0.2436 -0.1268 -0.0418
 5628W        W21437  16.727  11.442   4.439  0.1109 -0.3518 -0.1832
 5629W        W21438  16.451   1.858   1.160 -0.1763  0.1889  0.1624
 5630W        W21439   0.456  12.103   3.809 -0.0087 -0.0876 -0.0440
 5631W        W21440  17.711   4.864   4.687  0.1151 -0.0577 -0.0691
 5632W        W21441  12.843  15.045  15.040 -0.0190  0.1356  0.1299
 5633W        W21442   6.080   8.892   4.690  0.1108  0.1102  0.1667
 5634W        W21443  11.443   8.717   0.386 -0.2329 -0.3656  0.4672
 5635W        W21444   4.393  10.019   0.347  0.1755  0.1750  0.0163
 5636W        W21445   9.605  17.402  15.374 -0.1186  0.1253 -0.3856
 5637W        W21446   4.483  14.418   1.752 -0.1357 -0.0403 -0.0501
 5638W        W21447  17.376  11.478  15.958 -0.1184  0.3478  0.3556
 5639W        W21448   2.603  15.301   0.480 -0.1009  0.2050 -0.1439
 5640W        W21449   9.590  15.568  16.108 -0.3264  0.0609  0.0728
 5641W        W21450   2.780   3.599   4.329 -0.1868  0.0300 -0.0832
 5642W        W21451  14.137  14.699   0.155 -0.2303 -0.0565 -0.0448
 5643W        W21452  13.930   5.012  15.303 -0.0104  0.3258 -0.0533
 5644W        W21453   3.469   2.666   3.508  0.0172 -0.2808 -0.5385
 5645W        W21454  12.259   7.283   3.102  0.0324 -0.0444 -0.4181
 5646W        W21455  15.811   1.638  11.955  0.1183  0.0427 -0.3042
 5647W        W21456   0.245  11.787  15.772  0.1756 -0.2425 -0.0743
 5648W        W21457   2.864  15.458  13.444 -0.0559 -0.0437 -0.2408
 5649W        W21458  13.499   0.608  14.902  0.1364 -0.1635  0.0907
 5650W        W21459   4.988   3.847  13.010  0.1835  0.2072 -0.3336
 5651W        W21460   3.967   4.692  10.166  0.1660  0.4492 -0.2112
 5652W        W21461   8.935   5.684  12.732  0.0636 -0.0069  0.2257
 5653W        W21462  12.680   8.846  16.000  0.0454  0.2891 -0.2650
 5654W        W21463   4.370   0.089   1.632 -0.1254  0.4269  0.0153
 5655W        W21464   0.362  11.144  14.273  0.2496  0.2010  0.0194
 5656W        W21465  16.516   5.073  16.462  0.2059 -0.0858 -0.0576
 5657W        W21466  15.982   2.074   3.414 -0.0479 -0.2436  0.2287
 5658W        W21467   5.130  15.479  15.002  0.3471 -0.1826  0.1881
 5659W        W21468  16.790  12.892  13.870  0.0118 -0.1689  0.0388
 5660W        W21469   0.386  11.781  11.983  0.0176 -0.3464  0.1093
 5661W        W21470  15.275   4.851   3.624  0.1280 -0.1525 -0.0090
 5662W        W21471   2.675  10.000  10.923  0.0386 -0.0564 -0.0597
 5663W        W21472   7.787  13.002  15.632 -0.1358  0.2281  0.1663
 5664W        W21473   9.449   0.887   4.043  0.2169  0.4095 -0.1076
 5665W        W21474   6.332   2.985   5.324 -0.3496  0.0710  0.2353
 5666W        W21475   9.631  11.883   3.340  0.2749  0.0105  0.1026
 5667W        W21476  10.243  13.941   6.004  0.0705 -0.2087 -0.0315
 5668W        W21477   1.468  16.696  14.032  0.1460  0.2745 -0.1029
 5669W        W21478  13.504   0.909   1.172  0.1283  0.0137 -0.0330
 5670W        W21479   3.857   8.436  13.745  0.0027  0.0297 -0.0897
 5671W        W21480   9.204   6.865  14.716 -0.0508 -0.2005  0.0773
 5672W        W21481  15.220   0.830   1.919  0.0245  0.1226 -0.0227
 5673W        W21482  14.689  15.787   0.308  0.0552  0.1390  0.0481
 5674W        W21483   5.560  12.308   4.386 -0.2026 -0.2211 -0.3084
 5675W        W21484   0.980  15.611  11.854 -0.2813 -0.1970 -0.0394
 5676W        W21485  17.094   8.676   5.237 -0.0307 -0.0017 -0.0473
 5677W        W21486  15.127  17.794   2.140 -0.1815 -0.1873  0.5875
 5678W        W21487   1.383  15.119  15.814  0.1831  0.0475  0.2132
 5679W        W21488   7.547  15.232   2.246  0.0563  0.1446  0.1821
 5680W        W21489  17.060  14.597  13.464  0.1075 -0.3807 -0.0484
 5681W        W21490  11.070   7.463   5.724  0.2861 -0.2448  0.2794
 5682W        W21491   8.563  14.697   3.165  0.0794  0.0042 -0.1309
 5683W        W21492  13.991  10.145   0.591 -0.3355 -0.3728  0.0826
 5684W        W21493   3.891  10.120   5.149 -0.1807 -0.2337 -0.0955
 5685W        W21494   0.307  16.971  14.725 -0.0203 -0.1223 -0.2609
 5686W        W21495   6.218   0.371   3.781  0.2323  0.1573 -0.2090
 5687W        W21496   6.357   4.606  14.503 -0.2260 -0.0576  0.3899
 5688W        W21497   0.689   6.552   1.728 -0.2550 -0.2614 -0.2142
 5689W        W21498  12.272   9.281   1.348  0.5119 -0.2141  0.0845
 5690W        W21499   0.937   7.519  16.062  0.0094 -0.1499  0.0518
 5691W        W21500   0.371  16.618   0.965 -0.0759  0.1582  0.0436
 5692W        W21501   5.641   0.073   2.986  0.1448 -0.0783 -0.0469
 5693W        W21502   4.553   9.057  16.169  0.2146  0.2654  0.0254
 5694W        W21503  16.260  13.066  11.944  0.3083 -0.1410 -0.2684
 5695W        W21504   2.332   8.460  16.605  0.0502  0.0735 -0.0955
 5696W        W21505   7.117   7.223   2.643  0.3616 -0.0269  0.0695
 5697W        W21506  15.320   0.858  12.582 -0.1888  0.1545  0.2336
 5698W        W21507   9.151  12.996  14.354  0.0140  0.1815  0.0054
 5699W        W21508  14.315   6.559   5.837 -0.1562 -0.1637 -0.0619
 5700W        W21509  10.730  12.568  10.797  0.0846  0.1295 -0.0061
 5701W        W21510   7.060   4.225   2.062  0.1432 -0.0142  0.0213
 5702W        W21511  15.154   6.074   0.204 -0.2758  0.0860  0.0015
 5703W        W21512   2.224  17.153   5.551 -0.1221  0.2368 -0.0723
 5704W        W21513   7.547   4.239   3.352 -0.1725 -0.2230  0.1565
 5705W        W21514   1.836   4.941  12.002 -0.0211  0.2277  0.3048
 5706W        W21515  13.515  15.620   3.658 -0.0901  0.2164  0.0280
 5707W        W21516  15.811  12.752  11.316  0.2149 -0.2122 -0.2088
 5708W        W21517   3.663   8.538  14.219  0.0312 -0.0391 -0.1385
 5709W        W21518  16.705   1.093  11.534  0.0150  0.2121  0.0527
 5710W        W21519   7.721   3.342  15.573  0.0572  0.0294 -0.1415
 5711W        W21520   0.889  13.226  13.963  0.2018  0.0748  0.0072
 5712W        W21521   3.274   1.053  14.531  0.1117  0.0328  0.0957
 5713W        W21522  12.615  10.558   4.376  0.0140 -0.1252  0.0337
 5714W        W21523   2.751  15.261  16.468  0.1341  0.0648 -0.1941
 5715W        W21524   2.475  16.106   4.271  0.1229  0.3765 -0.1226
 5716W        W21525  17.919  16.981   5.019 -0.1471  0.0917  0.2271
 5717W        W21526  11.583   4.859  14.746  0.1203 -0.1141  0.0734
 5718W        W21527  17.534  15.387   3.189  0.1103 -0.0042 -0.1808
 5719W        W21528   7.659  11.889  14.733 -0.1223 -0.0771 -0.1929
 5720W        W21529   2.617  16.547   2.471 -0.0267  0.4120 -0.3300
 5721W        W21530   9.842  13.130   4.064  0.2156  0.0699 -0.2873
 5722W        W21531  16.660   5.338  12.389 -0.1458  0.0306  0.2624
 5723W        W21532  13.233   1.028  14.251 -0.2087 -0.2278  0.0236
 5724W        W21533   8.310  16.366   1.778 -0.2451 -0.2028 -0.1096
 5725W        W21534   7.295  11.499  15.775  0.4027 -0.2551 -0.0639
 5726W        W21535  11.895  16.932  15.415  0.4194 -0.2136  0.0295
 5727W        W21536   2.001   1.842   2.206 -0.2697  0.0348  0.0377
 5728W        W21537   3.113  10.523   4.490 -0.0965 -0.0459 -0.0305
 5729W        W21538   7.083  16.943  13.664  0.0933 -0.2046  0.3231
 5730W        W21539   8.351   6.413  13.020 -0.1357  0.1069  0.0662
 5731W        W21540   0.129  10.864   0.645 -0.4593  0.4526  0.0992
 5732W        W21541  15.267  11.136  12.923 -0.2345 -0.1368 -0.0639
 5733W        W21542  14.585   2.715  13.211 -0.1941 -0.1650  0.2632
 5734W        W21543   9.133  12.134   5.079 -0.0594  0.0178  0.0092
 5735W        W21544  11.629  11.194  13.811 -0.0149  0.1012 -0.1029
 5736W        W21545   9.811   8.951   0.887 -0.1116  0.0545 -0.2467
 5737W        W21546   6.729   7.870   1.034  0.1124  0.0597 -0.4385
 5738W        W21547  14.039  17.159   2.720  0.0307 -0.1395  0.0608
 5739W        W21548   9.606   6.148  15.753 -0.0158 -0.1481  0.0103
 5740W        W21549   6.082   7.238   1.252 -0.1172 -0.0937  0.0885
 5741W        W21550  14.031  17.266   6.372 -0.1877  0.0367 -0.5020
 5742W        W21551   6.308   6.165   5.300  0.0498  0.0447 -0.1323
 5743W        W21552   2.112   5.864   1.443 -0.0626  0.1570 -0.2387
 5744W        W21553  15.161   5.313   2.108 -0.0739 -0.0946  0.1483
 5745W        W21554   4.637  14.048   4.626 -0.0300  0.1583  0.0038
 5746W        W21555   4.073  11.492  13.013 -0.2023  0.3013  0.0303
 5747W        W21556   4.401   2.045  14.952 -0.0423  0.4040 -0.0156
 5748W        W21557  14.452  13.396   0.712  0.3249 -0.0682  0.0970
 5749W        W21558   8.270   5.733   0.391 -0.2201 -0.0425  0.0291
 5750W        W21559  15.800  11.545  15.064  0.2498  0.0534  0.1217
 5751W        W21560   4.142  11.533  10.718 -0.0783 -0.3203 -0.1061
 5752W        W21561   4.841  17.600   1.622  0.0014 -0.0681  0.1865
 5753W        W21562  13.256   8.477  14.777  0.1256 -0.2251 -0.2445
 5754W        W21563   2.962  13.536   4.919  0.3672 -0.0187 -0.1769
 5755W        W21564   1.915   2.625  14.042 -0.1611  0.0400 -0.1140
 5756W        W21565   0.918  16.468   1.729  0.0329  0.1677 -0.2307
 5757W        W21566   0.843   7.575   0.705  0.0343 -0.0639  0.1578
 5758W        W21567   4.648   8.956   5.547 -0.2075 -0.4951 -0.1563
 5759W        W21568  16.475  13.125   2.026 -0.0474 -0.0910 -0.2673
 5760W        W21569   8.207  12.033   2.465  0.2693  0.1485  0.1867
 5761W        W21570   9.426   6.640   1.000 -0.2279  0.2933 -0.0163
 5762W        W21571   9.017  14.690  16.672 -0.0362  0.0898 -0.1542
 5763W        W21572   2.254   4.497   3.987 -0.1658  0.1415 -0.1990
 5764W        W21573   9.561   4.597  15.991  0.1413  0.2539 -0.0352
 5765W        W21574   7.128  16.045  12.645 -0.1818 -0.0585 -0.0777
 5766W        W21575   5.669  10.013   4.922  0.4535 -0.0743 -0.0031
 5767W        W21576   0.742   2.664   5.577  0.2708  0.0763  0.1111
 5768W        W21577  14.816   4.122  13.171  0.0665  0.2060  0.1801
 5769W        W21578   7.718   9.505  13.943 -0.2994  0.0263 -0.1280
 5770W        W21579   2.889   1.367  11.749  0.6090  0.1379 -0.1162
 5771W        W21580   6.433   1.880  14.966  0.2882  0.0622 -0.3289
 5772W        W21581   8.049   8.119   3.833 -0.1331  0.0798 -0.0834
 5773W        W21582   4.895   1.247   5.790 -0.2364 -0.0461 -0.1901
 5774W        W21583   0.143  15.509  13.089 -0.2042 -0.0533 -0.3088
 5775W        W21584   5.010   6.899   5.137  0.1233 -0.0479 -0.0468
 5776W        W21585  13.835   8.793   0.081  0.0739  0.2627 -0.0382
 5777W        W21586  15.654  17.663  11.399  0.0932 -0.1067  0.1068
 5778W        W21587   6.665  12.410   3.603  0.4211  0.1908  0.2086
 5779W        W21588  10.819   9.995  16.205 -0.3024 -0.2129 -0.0615
 5780W        W21589   1.823   2.588  12.182 -0.0523 -0.0628  0.4832
 5781W        W21590  11.829  10.761  16.591 -0.0485  0.1580  0.1945
 5782W        W21591   3.002   3.036   1.992  0.1999 -0.0644 -0.0393
 5783W        W21592   2.311   7.057  15.849 -0.0608  0.2840 -0.3441
 5784W        W21593  11.525   4.398  14.889  0.1967  0.4097 -0.2526
 5785W        W21594  15.133   6.678   4.761  0.1121  0.2041 -0.0653
 5786W        W21595   5.045   8.119  15.577 -0.0275 -0.1547  0.0669
 5787W        W21596  14.034   5.681   4.124 -0.3189  0.1186  0.3092
 5788W        W21597   9.568   4.522   0.855 -0.0432  0.0548  0.1907
 5789W        W21598   2.806   7.612  14.941  0.2960  0.1088 -0.1011
 5790W        W21599   7.234  14.723  12.496  0.1166  0.2040  0.0615
 5791W        W21600  11.159  15.555   0.199  0.2666 -0.1620  0.1039
 5792W        W21601   1.788  15.057   1.939  0.0643  0.0731  0.0953
 5793W        W21602   8.751  12.556   2.930  0.0408 -0.3015  0.1963
 5794W        W21603   9.753   0.488   1.321  0.1453  0.0632 -0.0638
 5795W        W21604   0.160  10.677   3.471 -0.1609  0.0407  0.1151
 5796W        W21605  14.205  13.181   3.627  0.1462 -0.0197  0.1054
 5797W        W21606   9.266  17.710   5.742  0.1107 -0.1527  0.0503
 5798W        W21607   0.059  15.922   4.872 -0.0930  0.3813 -0.2303
 5799W        W21608   5.528   5.120   2.072 -0.1477  0.1868 -0.0073
 5800W        W21609  10.125   6.834   5.806 -0.1792  0.0279 -0.2288
 5801W        W21610   6.563  12.518   0.621  0.1378 -0.1288 -0.0550
 5802W        W21611  16.800  11.256   0.211 -0.2285 -0.0983 -0.3827
 5803W        W21612   4.253   8.290  13.996 -0.0134 -0.2043 -0.0276
 5804W        W21613  16.293   2.969   2.258  0.0043  0.0380  0.0065
 5805W        W21614  11.096   0.186   5.750 -0.2364 -0.0241 -0.2064
 5806W        W21615   4.963  16.487  16.459 -0.0350 -0.1086 -0.0497
 5807W        W21616  14.995   1.292   2.053 -0.0959 -0.1266 -0.2059
 5808W        W21617  11.703  17.434   5.753  0.4380  0.0549 -0.1135
 5809W        W21618  11.873   0.838  15.644 -0.2373 -0.1836  0.2607
 5810W        W21619  11.421   7.100  16.187 -0.0922 -0.1062  0.2063
 5811W        W21620   2.074  16.167  15.073 -0.2381 -0.3269 -0.1502
 5812W        W21621   9.590  16.861   0.638  0.0724 -0.1986  0.1739
 5813W        W21622  10.713   0.806   4.077 -0.1709 -0.2595 -0.1554
 5814W        W21623   8.341   0.708  13.071  0.2158 -0.1446 -0.1977
 5815W        W21624  10.317  12.397   1.990  0.0086 -0.0352 -0.0171
 5816W        W21625   8.798   1.283   4.149 -0.3599 -0.3549  0.2053
 5817W        W21626   8.022   7.710  14.337 -0.0001  0.0656  0.0968
 5818W        W21627  11.749  14.604  12.538  0.4363 -0.1343  0.1890
 5819W        W21628  17.107   0.400   3.408  0.0609  0.1429 -0.3165
 5820W        W21629  11.672   4.183  15.291  0.0368  0.1258  0.1247
 5821W        W21630   3.879   3.408   5.746  0.1925 -0.2456 -0.1333
 5822W        W21631  11.753   7.511  12.456  0.1198 -0.0003  0.3728
 5823W        W21632  17.764  17.874  13.423 -0.0127 -0.1155  0.2059
 5824W        W21633   3.228  15.225  16.654 -0.0468  0.0272 -0.2962
 5825W        W21634   5.654   5.487   4.082  0.2141 -0.0883  0.1108
 5826W        W21635  16.993   7.055   3.316  0.0659  0.2284 -0.1612
 5827W        W21636   6.569  16.429  12.040 -0.0352  0.0303 -0.0195
 5828W        W21637  16.329   2.696  16.025  0.3372 -0.0141 -0.0526
 5829W        W21638   6.301   6.365   0.847 -0.2059 -0.0235  0.1511
 5830W        W21639  12.221   9.264   3.180 -0.1373 -0.1423 -0.2228
 5831W        W21640   4.923  14.526   1.410  0.2650 -0.1163  0.0331
 5832W        W21641   1.038   4.359  12.392  0.3179 -0.2556  0.1003
 5833W        W21642   9.139  12.212  15.574  0.0120  0.1638 -0.0585
 5834W        W21643   6.168  14.196  15.658 -0.0744 -0.1443  0.1571
 5835W        W21644   1.055   7.870  13.189 -0.2687  0.1868  0.2085
 5836W        W21645  15.296   0.001  12.912  0.0159  0.4089 -0.0516
 5837W        W21646   1.141  10.528  10.615 -0.0574  0.1352 -0.2535
 5838W        W21647   6.497  13.439  15.887  0.0874  0.1484 -0.0077
 5839W        W21648   4.235   4.651  11.336  0.0209  0.0223 -0.2383
 5840W        W21649   2.843  12.212  15.499  0.1222  0.0642 -0.1138
 5841W        W21650  15.478  10.932  12.513 -0.2128  0.5287 -0.2426
 5842W        W21651   9.001   4.053  13.559 -0.1657  0.0993  0.1466
 5843W        W21652  16.165   2.072   2.670 -0.0525  0.1447 -0.2118
 5844W        W21653   0.587   5.911  11.601 -0.0161 -0.3005  0.0919
 5845W        W21654   0.520  16.160  15.901 -0.1045 -0.0629 -0.1507
 5846W        W21655  16.470  12.120   1.145  0.0972  0.1594 -0.2449
 5847W        W21656   3.273   1.240   2.880  0.1415  0.2501  0.0127
 5848W        W21657  13.314   9.572   1.718  0.0254 -0.0264  0.1377
 5849W        W21658   2.818   8.632  10.010  0.2735 -0.0835 -0.0990
 5850W        W21659   8.451  17.268  16.429  0.0464 -0.3265  0.3183
 5851W        W21660   2.216   0.007   3.940  0.3391 -0.1036 -0.0312
 5852W        W21661  17.754   6.827   2.378 -0.2371 -0.2259  0.0007
 5853W        W21662  16.047   5.223  16.430 -0.1019  0.2738 -0.3732
 5854W        W21663   1.135   1.831  16.614  0.0399  0.3299 -0.0718
 5855W        W21664  16.462   1.690  15.546 -0.1864 -0.1349 -0.1049
 5856W        W21665   0.657   8.315  10.824 -0.0450 -0.1939  0.0200
 5857W        W21666   6.195   2.965   6.268 -0.1273 -0.3003  0.0738
 5858W        W21667   6.805   2.595   4.059 -0.2104 -0.1695 -0.1732
 5859W        W21668   0.447   7.116  12.382 -0.0767  0.0702 -0.1563
 5860W        W21669   5.941  12.954  11.885 -0.1014 -0.0168 -0.2074
 5861W        W21670  14.362  12.646  15.900 -0.0062  0.1389 -0.0541
 5862W        W21671  13.545   6.094   6.021 -0.0357  0.1169 -0.1413
 5863W        W21672   3.801   6.204   3.055  0.1238  0.2173 -0.2053
 5864W        W21673   5.808  10.160   3.491  0.1086  0.3135  0.1590
 5865W        W21674   9.741  14.418  13.047 -0.3487 -0.1665  0.2546
 5866W        W21675   6.037  12.248  13.958  0.1119  0.0604  0.1766
 5867W        W21676   9.374   2.725   5.699  0.2825  0.1652 -0.1089
 5868W        W21677   0.770  14.166   1.556  0.0053  0.2202  0.4893
 5869W        W21678  15.096  15.674   5.964 -0.1956 -0.0385 -0.1625
 5870W        W21679   0.122  12.055   1.922  0.0421 -0.0455  0.1397
 5871W        W21680   3.832   8.378  11.336 -0.0196  0.1795 -0.1216
 5872W        W21681  13.575   9.616   0.150  0.0873  0.1273  0.0227
 5873W        W21682   0.564   1.729  14.870 -0.0335  0.1192 -0.3413
 5874W        W21683  14.945   7.974   2.192 -0.1784 -0.0258 -0.0433
 5875W        W21684   3.843  14.063   5.232  0.1527 -0.3037  0.1969
 5876W        W21685   3.703  17.517  11.586 -0.2918 -0.0116  0.1914
 5877W        W21686  16.350   5.342   3.747  0.3577  0.0388 -0.1240
 5878W        W21687   7.877  12.021  15.246 -0.0457 -0.1037  0.0463
 5879W        W21688   7.005  15.412  14.721 -0.1855  0.0628 -0.1137
 5880W        W21689  17.724  13.129  12.944 -0.2002  0.2034  0.0478
 5881W        W21690   5.973   0.465  14.457  0.0181 -0.0470  0.0859
 5882W        W21691   5.488  13.189  11.962  0.0875 -0.2529  0.1753
 5883W        W21692   4.284  12.867  15.765 -0.1565 -0.1856 -0.3697
 5884W        W21693  12.230  14.474  14.628  0.2878 -0.0355 -0.0033
 5885W        W21694  16.588   0.788   4.764 -0.1279 -0.0927  0.1188
 5886W        W21695   6.290   8.197  14.065  0.0414  0.2498  0.0731
 5887W        W21696  11.363   2.223  12.219 -0.0671 -0.0505  0.1404
 5888W        W21697  14.121  14.832   3.605 -0.1159  0.1837 -0.5240
 5889W        W21698   2.487  11.544   0.195  0.0181  0.1473  0.1980
 5890W        W21699   6.702   6.067  16.448 -0.2826  0.0555  0.2065
 5891W        W21700   4.048   2.201  16.417  0.0810  0.0875 -0.0176
 5892W        W21701   3.920   9.129   0.508 -0.0157  0.1449 -0.2571
 5893W        W21702   1.506  10.816  12.116  0.2754  0.0118 -0.0018
 5894W        W21703   2.844  16.950   4.546  0.1373  0.1981 -0.2902
 5895W        W21704  14.534   9.798   3.421 -0.1083  0.3775 -0.1098
 5896W        W21705   4.470  15.443   3.869 -0.1836  0.0114  0.3775
 5897W        W21706  11.051  17.017  13.921 -0.0762 -0.2713  0.1152
 5898W        W21707   7.581   2.419  13.319 -0.1402 -0.0907  0.0042
 5899W        W21708  13.468   9.936  15.980  0.0653 -0.1548 -0.1066
 5900W        W21709  17.449   0.970   5.625 -0.0929 -0.4150  0.4561
 5901W        W21710   7.978   1.803  12.617 -0.3707  0.2123  0.2209
 5902W        W21711   0.464  13.141   0.934 -0.0612  0.0896  0.0600
 5903W        W21712   3.906   9.713  14.382  0.2789 -0.2301  0.2132
 5904W        W21713   0.847  11.176   4.717  0.4541  0.3337 -0.0635
 5905W        W21714  17.464  17.374   4.012  0.0024 -0.1157 -0.0767
 5906W        W21715  14.606   0.258   3.235  0.0326 -0.1678  0.0160
 5907W        W21716   2.718  17.410  11.343  0.1294 -0.0939  0.1720
 5908W        W21717  16.227   3.275  13.414  0.1165  0.4438  0.0163
 5909W        W21718  14.350  17.768   1.535  0.1284  0.2546 -0.1413
 5910W        W21719  14.752   4.722   5.164 -0.2593  0.2851 -0.0514
 5911W        W21720   9.692   3.035  15.969 -0.0282 -0.2854  0.2180
 5912W        W21721  10.063   2.293   6.044 -0.0106  0.0754  0.2904
 5913W        W21722  10.593  10.901   5.679 -0.0520  0.0694 -0.2412
 5914W        W21723  15.281  14.300  14.985 -0.1747 -0.2418  0.1927
 5915W        W21724   3.492  15.513   5.529 -0.1113 -0.3188 -0.1100
 5916W        W21725   2.003  14.118  10.668  0.0477  0.1050 -0.0590
 5917W        W21726  15.919  12.607  11.776 -0.1069 -0.1646  0.0691
 5918W        W21727   9.269  12.013  12.996  0.0033 -0.3150  0.1269
 5919W        W21728  12.271   7.146   0.792  0.1217 -0.1375  0.0020
 5920W        W21729   9.855   1.333   0.254  0.0564  0.0254  0.2709
 5921W        W21730  14.825  11.218  14.893  0.1477  0.3275  0.4241
 5922W        W21731   2.625   0.575   0.197  0.0616  0.1347 -0.1746
 5923W        W21732   1.587   1.740  15.171  0.2303  0.1833 -0.2035
 5924W        W21733   1.920  12.846   1.017  0.0394 -0.1454 -0.1683
 5925W        W21734  14.961  10.775   2.481 -0.1434  0.0915  0.0429
 5926W        W21735   5.831   8.695   5.085 -0.1838 -0.0794 -0.1711
 5927W        W21736  17.089   2.232   5.521  0.1702 -0.3276  0.2551
 5928W        W21737   4.364   1.205  15.744  0.0001  0.0270 -0.0415
 5929W        W21738  11.956   8.439  16.154  0.0844  0.0991 -0.0503
 5930W        W21739  12.982  13.017  13.473 -0.3705  0.3820 -0.0697
 5931W        W21740   6.323   2.869  13.158 -0.0078  0.1834 -0.1934
 5932W        W21741  12.850   2.399   0.133 -0.2508  0.0829  0.0364
 5933W        W21742   0.779  14.721  11.327 -0.2410  0.2301  0.2278
 5934W        W21743  17.442   5.626  11.620 -0.0838  0.0091  0.1399
 5935W        W21744  10.358  11.603   0.203 -0.1684 -0.2324  0.1902
 5936W        W21745  12.307  10.440   5.925  0.0781 -0.1090  0.1203
 5937W        W21746   3.408  14.321   2.542 -0.2770 -0.0533 -0.0481
 5938W        W21747   2.107   5.719   5.210 -0.0889 -0.1493 -0.1559
 5939W        W21748  14.412  16.171   0.062  0.0124 -0.0217 -0.3060
 5940W        W21749  12.854   5.925  13.560  0.1142  0.0564 -0.2657
 5941W        W21750  11.215  17.123   4.513 -0.3385 -0.3208  0.2198
 5942W        W21751   0.682   3.557   0.700  0.4341 -0.0771  0.3734
 5943W        W21752   5.495   4.854   0.168 -0.0957 -0.1219  0.1073
 5944W        W21753  15.962   6.481   5.789  0.2124  0.0105 -0.0807
 5945W        W21754   1.881  17.390   1.459  0.2782 -0.2192  0.6115
 5946W        W21755  17.241   7.228  16.035  0.0797  0.0177 -0.1610
 5947W        W21756   6.298  12.680   5.063 -0.2308 -0.0619 -0.0208
 5948W        W21757   3.921   9.115   2.378 -0.1510 -0.2869  0.0988
 5949W        W21758   0.445  12.151   3.246 -0.1508 -0.0554 -0.2555
 5950W        W21759  13.507  12.302   4.927  0.1969  0.0252 -0.0822
 5951W        W21760   2.928  16.639  16.086  0.0231 -0.1271  0.0068
 5952W        W21761  14.263   3.298   3.993 -0.1389 -0.0314  0.1030
 5953W        W21762  13.947   0.791   2.763  0.2695  0.1643 -0.2337
 5954W        W21763   7.195   0.490  15.745  0.1959  0.4412  0.0058
 5955W        W21764  17.182   7.703   6.081 -0.3018  0.0785 -0.0103
 5956W        W21765   6.949   1.421  15.297 -0.3283 -0.0041 -0.0874
 5957W        W21766   4.590  15.256   0.908 -0.1786  0.0705  0.0211
 5958W        W21767  16.199  16.848   5.115 -0.0099  0.1222 -0.1069
 5959W        W21768   5.750   4.793   0.759  0.0215  0.1862 -0.0573
 5960W        W21769   5.549  16.360  12.168 -0.1684 -0.0367  0.0998
 5961W        W21770   3.659  12.960  14.991  0.0153  0.3260 -0.0050
 5962W        W21771  14.723   7.859   3.973 -0.0888  0.3507 -0.0277
 5963W        W21772   0.458  13.817   5.005  0.2344 -0.4182 -0.0660
 5964W        W21773   1.787  10.584  15.303  0.0848 -0.1964  0.1078
 5965W        W21774   0.002   2.878  16.430 -0.0515 -0.2052 -0.0051
 5966W        W21775   7.546  13.963  14.541 -0.1097  0.1528 -0.2985
 5967W        W21776   9.350  11.581   2.076 -0.0059  0.0159  0.1837
 5968W        W21777   3.423   8.022  11.265  0.1595  0.0365  0.1323
 5969W        W21778  17.172   3.910   3.684  0.1345 -0.4019  0.2446
 5970W        W21779   3.899   4.457   2.290 -0.0167  0.0048 -0.0819
 5971W        W21780   9.287   7.481  14.100 -0.0534 -0.3386  0.1394
 5972W        W21781   9.595   2.625  15.682 -0.0631  0.1394 -0.1148
 5973W        W21782   3.044   9.482   2.003  0.2626  0.0344  0.0583
 5974W        W21783  12.842  12.163   2.333  0.3297 -0.2329 -0.0930
 5975W        W21784  10.531   0.906   3.057 -0.2262  0.0281  0.0585
 5976W        W21785  14.244  14.394  15.997  0.1529  0.0345  0.0805
 5977W        W21786  12.871   2.361   3.347  0.0195 -0.3380  0.0667
 5978W        W21787  14.786  13.775  15.598 -0.0043 -0.0524 -0.1354
 5979W        W21788   5.328  17.247  15.238  0.0896  0.3089 -0.1384
 5980W        W21789   0.507   3.334   3.843  0.0223 -0.1696 -0.0979
 5981W        W21790  11.762  14.352   0.242 -0.2160 -0.0074 -0.1597
 5982W        W21791   9.262   1.316  13.556 -0.0175 -0.2653 -0.0388
 5983W        W21792  16.014   0.930   0.740 -0.2298 -0.0373 -0.0192
 5984W        W21793   1.641   6.872   1.890  0.3478  0.3103 -0.1473
 5985W        W21794   1.267   0.587   5.434 -0.2152 -0.3223 -0.1951
 5986W        W21795   4.289  10.200  16.633  0.1096 -0.0704 -0.1962
 5987W        W21796  17.546   5.663   3.515 -0.2225  0.1712  0.1207
 5988W        W21797   9.437   7.836  13.150 -0.0078  0.1244 -0.1231
 5989W        W21798   2.950  10.970   5.623  0.0839 -0.0836  0.0972
 5990W        W21799   5.977  15.131  13.790 -0.2049 -0.1613 -0.0030
 5991W        W21800  11.195  17.037  16.062  0.0439 -0.4325  0.0447
 5992W        W21801  17.139   6.703   5.778  0.1591  0.2586  0.3014
 5993W        W21802  10.712  15.573  14.108 -0.3948  0.1474  0.0590
 5994W        W21803   2.154   4.937   1.261  0.0370  0.2074  0.0623
 5995W        W21804  10.239   1.245  15.973  0.0161 -0.2273  0.1842
 5996W        W21805  14.701   9.370   3.180 -0.0369 -0.0408 -0.0307
 5997W        W21806   0.060  15.749  12.409 -0.0213 -0.0633  0.2602
 5998W        W21807   4.714   3.244  11.854  0.3178 -0.2013 -0.0069
 5999W        W21808   3.519  15.509   1.302 -0.0040  0.1560  0.3103
 6000W        W21809  12.585   0.830   6.140 -0.0506  0.4083 -0.1510
 6001W        W21810   3.601  13.029   3.682 -0.2721  0.0335  0.0555
 6002W        W21811   0.950  14.598  15.069 -0.1124 -0.1093  0.0949
 6003W        W21812   9.951   2.100   3.200 -0.1460 -0.2218  0.0236
 6004W        W21813   7.962  11.247   4.772  0.0984 -0.1230  0.0602
 6005W        W21814   4.193  11.751   2.243 -0.2757  0.1304 -0.0563
 6006W        W21815  14.929   4.566  13.417 -0.1882  0.1232 -0.1234
 6007W        W21816   4.371  15.695   2.416 -0.0539 -0.1690 -0.1823
 6008W        W21817   3.652  17.491   2.587  0.1364 -0.0066 -0.2458
 6009W        W21818  13.900   4.103  12.825 -0.1453 -0.2423 -0.1364
 6010W        W21819  16.502   9.177   0.167  0.0161  0.0200 -0.3289
 6011W        W21820   7.804  12.823  14.754 -0.0237  0.1528  0.0060
 6012W        W21821  15.654   1.809  12.843  0.1073  0.0717 -0.3254
 6013W        W21822   2.636   9.241   2.758 -0.1918 -0.1243 -0.0008
 6014W        W21823  13.278  15.692   4.437  0.0698  0.0893 -0.0168
 6015W        W21824   3.653  17.231   5.389  0.1325 -0.1011 -0.2330
 6016W        W21825  17.416   0.722   2.160 -0.3128  0.0922 -0.0628
 6017W        W21826   1.565   1.059   0.781  0.0770  0.0900  0.4237
 6018W        W21827   1.118   0.515   3.751  0.2614  0.0472  0.4513
 6019W        W21828  16.670  14.936   1.412  0.3217 -0.4713 -0.0563
 6020W        W21829   8.266   3.577   1.743  0.0967  0.1122 -0.0256
 6021W        W21830  15.035  16.551  13.097 -0.0035  0.1274  0.0885
 6022W        W21831   6.242   9.970  15.608  0.2339  0.2960 -0.1117
 6023W        W21832   0.664  13.565   1.077 -0.0754  0.3908 -0.4285
 6024W        W21833   8.910  11.554   5.919  0.0198 -0.0750  0.0858
 6025W        W21834  11.998  10.764   2.646  0.0726  0.0390 -0.1064
 6026W        W21835  10.718  12.540   3.588  0.1360  0.0464 -0.1755
 6027W        W21836  10.669  12.170  14.743 -0.0253  0.2378 -0.4717
 6028W        W21837   7.006   3.077   3.005 -0.1463  0.2223  0.1483
 6029W        W21838   5.246   1.723  12.650 -0.1746  0.0333  0.2619
 6030W        W21839  16.275   2.308   4.286 -0.2311 -0.0821  0.1279
 6031W        W21840   0.500   4.753  13.775 -0.1471  0.0362  0.0098
 6032W        W21841   7.216   5.506   4.105 -0.0788  0.0336  0.2210
 6033W        W21842   7.606  16.036   3.146 -0.1027 -0.0159  0.1065
 6034W        W21843  16.361   2.187   3.091 -0.0359 -0.0718 -0.0261
 6035W        W21844   7.501  15.115   4.893  0.2934 -0.1192  0.1780
 6036W        W21845  14.749  14.234   2.414  0.0166  0.2745  0.3535
 6037W        W21846   1.084  10.340  11.978  0.2293 -0.1302 -0.0153
 6038W        W21847   8.243   9.953   3.589 -0.4417 -0.0803 -0.0861
 6039W        W21848   1.970  15.576   5.042 -0.1387  0.2860  0.0215
 6040W        W21849  13.505   3.006  12.508  0.0475  0.2323  0.0373
 6041W        W21850  11.889  12.774   5.825  0.0567  0.0032 -0.2042
 6042W        W21851  15.010  13.225   5.204 -0.4995 -0.2695  0.0336
 6043W        W21852   3.430  17.895   1.544  0.0997 -0.2135  0.1261
 6044W        W21853   3.188   8.262  10.858 -0.0671  0.2329  0.2696
 6045W        W21854   2.526  12.244  12.869 -0.0853  0.1227  0.1052
 6046W        W21855   9.856  10.981   5.841  0.1516  0.1146 -0.1750
 6047W        W21856   0.055   7.164  14.199  0.2289 -0.2302 -0.0810
 6048W        W21857  13.988   6.234  12.201  0.3983 -0.2859 -0.2389
 6049W        W21858  15.412   0.479   0.077 -0.2131  0.1319 -0.1835
 6050W        W21859  16.164   5.380  14.656 -0.1288 -0.1158  0.1952
 6051W        W21860  16.763  10.255   1.135  0.2928 -0.2696 -0.1438
 6052W        W21861  16.068   5.176  12.611  0.5049 -0.0586  0.1406
 6053W        W21862  15.342   0.906  16.436 -0.2290 -0.1593  0.1014
 6054W        W21863   8.496   0.573   4.745  0.0059  0.1846 -0.1296
 6055W        W21864   6.918  16.383   5.149  0.2810 -0.0515 -0.0961
 6056W        W21865  17.007  13.827  12.718 -0.0972  0.0195  0.4520
 6057W        W21866   7.831   5.479  13.829 -0.1404 -0.2087  0.1928
 6058W        W21867  13.637   3.943   3.686  0.0862  0.2023 -0.3699
 6059W        W21868   6.216  11.104   0.070  0.1845  0.1462  0.3432
 6060W        W21869   9.963  12.723   1.875 -0.0317  0.1707 -0.2773
 6061W        W21870  14.323   4.545   5.318  0.1055  0.1171 -0.0676
 6062W        W21871   4.790   2.937  10.983 -0.1488  0.1458  0.2939
 6063W        W21872  14.608  10.253  15.462 -0.2254 -0.0925  0.1834
 6064W        W21873   8.903   5.274   6.389  0.1515 -0.0819  0.1558
 6065W        W21874   2.334   7.778  10.309  0.0641  0.1854  0.0325
 6066W        W21875  16.928  10.495  14.883 -0.0034 -0.0003 -0.1985
 6067W        W21876  11.804  17.439   3.321 -0.2987 -0.2058  0.0872
 6068W        W21877  10.083  13.425   1.529 -0.0636  0.1482  0.2810
 6069W        W21878   5.687   2.772   0.533  0.0881  0.2683 -0.1677
 6070W        W21879  12.931  17.105   0.946  0.0211 -0.3617  0.0577
 6071W        W21880  14.835   9.199   0.656 -0.3055  0.0987 -0.1175
 6072W        W21881   2.478   9.293   5.041 -0.1635 -0.4636 -0.0088
 6073W        W21882   0.850  16.988   2.553 -0.1285  0.2456  0.1591
 6074W        W21883  15.197  13.082   1.220  0.0845 -0.1797 -0.1244
 6075W        W21884  17.410   3.235  11.713  0.1632 -0.2294 -0.2114
 6076W        W21885   6.857   9.165  10.867 -0.0928  0.0842 -0.0654
 6077W        W21886   9.801  16.030  15.372 -0.1089  0.0082 -0.2063
 6078W        W21887  15.514  13.237  15.271 -0.0343 -0.2212  0.3230
 6079W        W21888   0.565   7.671  11.334 -0.0995 -0.1964 -0.1834
 6080W        W21889   2.463  14.199  12.678  0.1183  0.0551 -0.2738
 6081W        W21890  10.875  17.618   2.542  0.3637 -0.2418 -0.0551
 6082W        W21891   9.508   5.643  16.135  0.0753  0.3243  0.0570
 6083W        W21892   6.536   7.721   1.969  0.1132  0.0362  0.0332
 6084W        W21893  12.372  16.264   5.279  0.1828  0.1494 -0.1035
 6085W        W21894  15.311   7.014   3.556  0.1067 -0.0621  0.0299
 6086W        W21895   4.833   1.331  13.326 -0.0522  0.0366  0.1925
 6087W        W21896   3.220   4.474  16.623 -0.0458 -0.2505  0.3648
 6088W        W21897  14.643   2.704  15.701  0.1756 -0.0614 -0.0011
 6089W        W21898  14.605  14.341   4.739  0.2234  0.3060  0.1605
 6090W        W21899  13.745   2.143   0.759 -0.1200 -0.2029 -0.1293
 6091W        W21900  10.754   6.546  13.325 -0.2048  0.1233  0.1728
 6092W        W21901   8.465   9.202   3.959 -0.0476  0.0835 -0.1037
 6093W        W21902  12.477   7.751   0.014 -0.3191  0.1903 -0.0581
 6094W        W21903  14.147   4.627  13.789 -0.0607 -0.1003  0.0390
 6095W        W21904  13.779  11.140  16.043 -0.0323 -0.1187 -0.0055
 6096W        W21905   7.311   4.491  15.774 -0.3577 -0.0171  0.1794
 6097W        W21906  17.143   1.766   1.211 -0.1392  0.1559 -0.0241
 6098W        W21907   7.743   7.620   5.174  0.1968  0.2670  0.2104
 6099W        W21908   1.120   6.362   2.310 -0.2776  0.0510  0.0147
 6100W        W21909  12.299   5.243  14.188 -0.0955 -0.0011  0.0079
 6101W        W21910   9.309   1.373   5.092  0.2825 -0.3404  0.1787
 6102W        W21911   5.189  10.283  12.284  0.2803 -0.3066 -0.2250
 6103W        W21912   8.017   7.493   2.691  0.1284  0.3992 -0.0420
 6104W        W21913   4.501   4.568  12.283  0.0719 -0.0448 -0.1291
 6105W        W21914  14.016   5.267   3.417  0.2158 -0.0326  0.0993
 6106W        W21915   6.346  13.289  11.875  0.0270 -0.1517 -0.0765
 6107W        W21916  12.303   2.494   6.142  0.3484  0.0969  0.0995
 6108W        W21917   3.000   6.948   1.137 -0.0676 -0.0585 -0.2421
 6109W        W21918  15.130   4.908   2.581  0.2939 -0.2015 -0.1006
 6110W        W21919   1.322  14.796   1.932  0.1233 -0.1479 -0.0837
 6111W        W21920  12.426   3.043  15.119 -0.0242 -0.1386 -0.0549
 6112W        W21921  14.525  15.127  12.978  0.2178  0.1695 -0.1537
 6113W        W21922  11.903   3.764   0.977 -0.0709 -0.1373 -0.2401
 6114W        W21923  15.897   6.199  16.030 -0.2088  0.0866 -0.1939
 6115W        W21924   4.521   8.349   2.110  0.2604 -0.1463  0.0255
 6116W        W21925  15.232  10.848   1.094 -0.1079 -0.1448 -0.5848
 6117W        W21926  11.723   5.514   0.650 -0.2212  0.0204 -0.1133
 6118W        W21927  13.986   3.195   5.191  0.2104  0.0102  0.1926
 6119W        W21928   1.305   3.424  14.316  0.0945  0.1022  0.0092
 6120W        W21929  10.368   0.652   5.935  0.0064  0.0513  0.0399
 6121W        W21930   2.364   6.589   4.509  0.0032  0.4934  0.0940
 6122W        W21931   5.410  15.184  10.964 -0.2401 -0.1119 -0.1778
 6123W        W21932  12.251   6.273  12.978 -0.0347  0.0730  0.2022
 6124W        W21933   6.991   6.547  16.343  0.0717 -0.3530  0.0372
 6125W        W21934  10.279  16.505  12.146  0.2459  0.0365  0.0845
 6126W        W21935   2.467  10.205  15.800 -0.2042 -0.1992 -0.2312
 6127W        W21936   0.237   7.106  15.556 -0.3544  0.1080  0.0932
 6128W        W21937  14.860   8.659  14.422  0.2579 -0.1723 -0.1020
 6129W        W21938   7.883   1.148   2.283 -0.3179 -0.1484 -0.0921
 6130W        W21939   9.311  15.894   5.443  0.1419 -0.4314 -0.0261
 6131W        W21940   7.248  12.794  12.027  0.0114  0.1268 -0.0858
 6132W        W21941   0.266   9.024  16.187 -0.1266 -0.3474  0.3495
 6133W        W21942   3.349  15.998   0.852  0.0324 -0.3071 -0.1138
 6134W        W21943   7.734   2.729   0.879 -0.0710  0.1483  0.0596
 6135W        W21944   4.622   7.860  10.487 -0.4006 -0.0120  0.0018
 6136W        W21945   7.935   9.256   4.730  0.0441 -0.1815  0.0342
 6137W        W21946   7.773  14.323  12.194 -0.0555  0.1714 -0.1773
 6138W        W21947   2.429   3.698  16.166 -0.3794  0.1645 -0.1086
 6139W        W21948  16.550  11.579   5.023  0.0517 -0.0200  0.0288
 6140W        W21949  13.856   7.020  15.022 -0.2520 -0.4310  0.0960
 6141W        W21950  17.236  11.891   0.832 -0.2240 -0.3618  0.1300
 6142W        W21951   7.335   6.497  14.790 -0.0039 -0.0262  0.1424
 6143W        W21952   3.973   8.120  12.907  0.0456 -0.0567 -0.1418
 6144W        W21953  15.836   1.842   5.438 -0.3124  0.1856  0.2141
 6145W        W21954   7.075   8.960   1.385 -0.2415  0.1708  0.0783
 6146W        W21955   3.501   1.085  12.134  0.1254 -0.0232 -0.1596
 6147W        W21956   2.881  13.301   5.731  0.1799  0.1778  0.0752
 6148W        W21957   3.544  16.573  14.156 -0.1032  0.1266 -0.3039
 6149W        W21958   7.750  17.946  13.986 -0.0990  0.0659  0.0114
 6150W        W21959   8.400   9.408   5.623 -0.2466  0.1317  0.0071
 6151W        W21960   6.366   3.500   5.390  0.6761 -0.0408 -0.3527
 6152W        W21961   1.256   3.273  15.214  0.2645  0.1293 -0.0616
 6153W        W21962   0.401   0.362  12.188 -0.1867 -0.1212 -0.0384
 6154W        W21963  11.595  10.976   0.622 -0.1219  0.0002  0.0142
 6155W        W21964  12.432  11.904   4.269 -0.2779 -0.2369 -0.1976
 6156W        W21965   4.987  13.231  13.827  0.3385 -0.0803  0.0118
 6157W        W21966  12.955   5.189   0.032 -0.0601  0.0282  0.0065
 6158W        W21967   3.017  12.688  15.551  0.2518  0.0870  0.0889
 6159W        W21968   3.984   9.565   5.051  0.2344  0.0581  0.1197
 6160W        W21969  14.841   7.855  14.786 -0.0111 -0.0207  0.1817
 6161W        W21970  13.649   7.373  10.948  0.1933 -0.1397 -0.1076
 6162W        W21971  11.872  13.573  13.008 -0.0932 -0.1048 -0.4823
 6163W        W21972   7.246  14.431   0.030  0.0146  0.0010  0.0725
 6164W        W21973  16.153  17.358   4.250  0.0265  0.2575 -0.2386
 6165W        W21974   2.504  11.415   5.173  0.0184  0.0959 -0.1026
 6166W        W21975  12.666   1.694  12.171 -0.0047 -0.2233  0.2180
 6167W        W21976  17.679   2.604  12.703 -0.2000  0.1718 -0.4074
 6168W        W21977   1.800   6.841   2.827 -0.1594 -0.0722  0.0122
 6169W        W21978   2.782   9.871  12.400 -0.0050  0.0546 -0.0036
 6170W        W21979  12.183   0.222  14.903 -0.1363 -0.2843  0.2303
 6171W        W21980   6.765  10.083   3.700 -0.2212  0.0668  0.2753
 6172W        W21981  15.178   3.118  14.226 -0.1562  0.0924  0.1842
 6173W        W21982   7.792   0.056   2.222  0.0722  0.1383  0.1715
 6174W        W21983   6.502   5.153   0.560  0.1985  0.3923 -0.0641
 6175W        W21984   4.080   2.826   3.067  0.1098 -0.0933  0.1200
 6176W        W21985  15.411  17.037  16.589  0.1439 -0.2130 -0.1369
 6177W        W21986   6.390   2.152   4.989  0.0513  0.2193 -0.1945
 6178W        W21987   1.957   4.677   0.371  0.1695 -0.0884 -0.0487
 6179W        W21988   5.748   6.246  11.947 -0.3544 -0.0413  0.4470
 6180W        W21989  15.252   2.552   5.721 -0.2523 -0.0391  0.0615
 6181W        W21990  14.906  11.794   5.205 -0.1216 -0.0722 -0.0088
 6182W        W21991  14.057   9.597  12.994 -0.3858  0.2847  0.1217
 6183W        W21992  11.714  10.167   6.495  0.4617 -0.0404  0.2603
 6184W        W21993   1.385   1.636  12.099 -0.0081  0.0771  0.4735
 6185W        W21994   1.527   1.114  14.388  0.5102  0.2970  0.1811
 6186W        W21995   4.769  14.569   0.400  0.0894 -0.1453 -0.1580
 6187W        W21996   2.551  13.772   3.507 -0.1087  0.4027  0.0237
 6188W        W21997   3.567  14.356  14.790  0.1172 -0.2006 -0.0397
 6189W        W21998   4.488  17.309  14.185  0.1705 -0.0606 -0.2452
 6190W        W21999  14.983   8.432  16.679  0.2548  0.1135 -0.2893
 6191W        W22000  15.696  16.783   4.853 -0.0345 -0.0165 -0.3446
 6192W        W22001   3.578  17.348  16.121 -0.0302  0.2291 -0.4250
 6193W        W22002   0.736   3.730  15.494 -0.0083  0.0975  0.0653
 6194W        W22003   5.096   7.313  14.009 -0.1157 -0.3527 -0.1485
 6195W        W22004   8.696   6.429  13.990 -0.0112  0.1113 -0.0851
 6196W        W22005  13.062  14.176   4.097 -0.1176 -0.1828  0.0051
 6197W        W22006   0.006  11.014  13.378  0.0257 -0.3046 -0.0350
 6198W        W22007  15.455   1.223  12.908 -0.1862  0.2719 -0.0240
 6199W        W22008  13.567  15.687   4.806  0.0293  0.0981  0.3118
 6200W        W22009   3.164   1.938   0.368 -0.0309 -0.0739  0.0964
 6201W        W22010  17.016   9.231   4.033  0.3670 -0.1537 -0.1914
 6202W        W22011  14.216   2.902  15.085  0.0796  0.0048  0.3640
 6203W        W22012  16.643  13.081   0.379  0.3586  0.0989  0.1772
 6204W        W22013   6.476  13.957   2.664  0.0876  0.2507  0.0049
 6205W        W22014   6.398   4.502   2.604  0.0409  0.1127  0.0995
 6206W        W22015   3.757  12.502  14.829 -0.1747 -0.1651 -0.1536
 6207W        W22016   7.084   5.131  14.142 -0.0300  0.0369 -0.2268
 6208W        W22017  10.323   7.745  12.847  0.1417  0.0285 -0.0602
 6209W        W22018   0.211   4.760  11.056 -0.0521  0.1127 -0.0221
 6210W        W22019  14.602   9.350   3.754  0.1615 -0.1661  0.1234
 6211W        W22020  15.912   0.328  13.522 -0.0305  0.0255  0.1368
 6212W        W22021   1.661   6.365   2.645 -0.4319  0.0660  0.3185
 6213W        W22022  12.484  15.105   5.484  0.0853  0.1289  0.0244
 6214W        W22023   2.210   3.335  11.626 -0.0222  0.1870 -0.3523
 6215W        W22024  15.025   1.772  12.386  0.3798  0.2805  0.2697
 6216W        W22025   7.918   2.175   0.327 -0.1818 -0.0333 -0.2993
 6217W        W22026   9.297  10.074  13.718 -0.3429  0.1742 -0.1482
 6218W        W22027  17.181  10.982   3.894 -0.2805  0.0237  0.1282
 6219W        W22028   2.179  10.630  15.673  0.0637  0.4049 -0.1723
 6220W        W22029   9.309  10.226  15.095 -0.0236 -0.0540 -0.4136
 6221W        W22030   7.411  15.005  15.603 -0.0032  0.1875 -0.1953
 6222W        W22031   5.224  13.143   5.641 -0.2215 -0.1348 -0.2116
 6223W        W22032   3.451  14.429  13.218 -0.0415 -0.1117  0.2024
 6224W        W22033  15.475  14.797   3.289 -0.2887 -0.1775  0.1491
 6225W        W22034   7.706  10.937   2.555 -0.2195  0.2053 -0.0652
 6226W        W22035   4.206   9.860   4.502  0.0671 -0.4645 -0.1422
 6227W        W22036   5.277   8.454   2.432 -0.0910  0.2792 -0.3474
 6228W        W22037  11.660   7.747   1.616 -0.1019 -0.1870 -0.2882
 6229W        W22038  13.835  10.688   1.383 -0.0766 -0.0687  0.3813
 6230W        W22039   4.036   5.092   4.143 -0.1797  0.0335 -0.1321
 6231W        W22040   9.018  15.511   2.792  0.2854 -0.1567  0.0927
 6232W        W22041   5.061  17.485   5.704  0.1866 -0.1682  0.0241
 6233W        W22042  17.703  17.951  16.127 -0.0022 -0.4552 -0.0422
 6234W        W22043  12.348   1.309   4.100  0.4638 -0.2371  0.1612
 6235W        W22044   9.158  14.413   1.458 -0.2602  0.1902 -0.1611
 6236W        W22045   5.449   2.640   3.695  0.0381  0.1559 -0.0076
 6237W        W22046   0.135   6.456  12.943  0.1039 -0.0755  0.1009
 6238W        W22047   7.090   1.343  16.495  0.0336 -0.0580  0.2122
 6239W        W22048   7.355   6.235   2.934 -0.0155  0.1523  0.2813
 6240W        W22049   3.556   0.358  12.746 -0.2005  0.1874 -0.0493
 6241W        W22050   2.699  13.362   0.609 -0.1305  0.0928  0.4030
 6242W        W22051   7.951  10.063   2.269  0.0827 -0.1226  0.1673
 6243W        W22052   2.192  11.380   1.437  0.1583 -0.0172  0.0662
 6244W        W22053   6.230  11.451   3.259  0.2348  0.2581  0.0382
 6245W        W22054   4.716  10.831   5.501  0.0799 -0.1091 -0.0464
 6246W        W22055   5.128   0.889  14.583 -0.1806 -0.0248  0.0350
 6247W        W22056   0.532   1.635  11.538 -0.0128 -0.0408 -0.0876
 6248W        W22057  15.799   6.271  13.303  0.0806 -0.0514  0.3025
 6249W        W22058  13.732  16.028   0.491  0.0435 -0.2787  0.0467
 6250W        W22059   1.729  17.428  14.236 -0.0056  0.2970 -0.0740
 6251W        W22060  13.985   7.004   3.295  0.0929 -0.1190 -0.1509
 6252W        W22061   7.948   9.735   1.313 -0.1008  0.4063 -0.1700
 6253W        W22062   4.883   0.623  14.152  0.0338 -0.0513 -0.1568
 6254W        W22063   1.927   9.927   5.007 -0.0695  0.1551 -0.2323
 6255W        W22064   4.850   5.098  10.622 -0.0883 -0.0315  0.0212
 6256W        W22065  14.206   1.775  12.302  0.0078 -0.1926  0.1858
 6257W        W22066  12.340   7.978  13.077  0.2081  0.0411  0.0744
 6258W        W22067   9.620   7.325   4.230 -0.0582  0.0944  0.1073
 6259W        W22068  11.501   3.209  12.417 -0.1534  0.1701 -0.0772
 6260W        W22069   3.221   6.690  13.695  0.1971  0.0319  0.1183
 6261W        W22070   9.354   6.595   2.390 -0.3581  0.3089  0.0270
 6262W        W22071  12.172   6.266   0.734 -0.1878  0.2869 -0.3037
 6263W        W22072   5.761   3.953  11.675  0.0809  0.1336  0.3516
 6264W        W22073   7.963   5.292  14.309  0.0823  0.1557  0.0535
 6265W        W22074   4.143   6.945  15.199 -0.1915  0.0882 -0.1909
 6266W        W22075   0.724   1.092   4.737 -0.1685  0.2481  0.0870
 6267W        W22076  11.066  11.290   1.819  0.0458  0.1826  0.3351
 6268W        W22077   7.302  11.539  16.433  0.0314  0.0523  0.3228
 6269W        W22078   3.063   3.443   2.901  0.0138  0.0158  0.3509
 6270W        W22079   3.184   3.477   2.026  0.0648  0.0252  0.0801
 6271W        W22080   6.121  13.319  10.987  0.0952 -0.0273 -0.0173
 6272W        W22081  17.479  13.433  10.516 -0.0438 -0.0718 -0.0845
 6273W        W22082  14.090   8.452  16.484 -0.1409 -0.3278 -0.0943
 6274W        W22083  12.506   8.575  13.601  0.1534  0.4106 -0.1885
 6275W        W22084   6.259   5.389  16.101  0.0468  0.1014 -0.1131
 6276W        W22085   8.163  16.113   3.106  0.0398 -0.0049 -0.2037
 6277W        W22086   8.737   8.596   1.117  0.1461  0.2267  0.0106
 6278W        W22087   7.776  12.700   1.346 -0.0421 -0.2704  0.0020
 6279W        W22088   8.058  12.691  13.667 -0.0007 -0.1351  0.3066
 6280W        W22089   9.085  12.335  16.630  0.0066  0.1940  0.1865
 6281W        W22090   5.444   9.741   0.240 -0.0202  0.0989  0.2204
 6282W        W22091   6.295   9.409  14.925  0.4068 -0.1104  0.0147
 6283W        W22092  11.070   2.214   3.994  0.0675  0.2497  0.0792
 6284W        W22093  11.290  13.437  10.820  0.2853  0.2260  0.1874
 6285W        W22094   8.066  13.146   0.769 -0.1097 -0.2287 -0.2077
 6286W        W22095   0.848  16.199   5.586 -0.2667 -0.1506  0.3399
 6287W        W22096   9.495  16.356   2.046  0.1750 -0.0382 -0.5062
 6288W        W22097   3.676  16.156   3.322 -0.1149  0.2178  0.2245
 6289W        W22098  10.035   7.261   4.619 -0.0560  0.2018  0.1454
 6290W        W22099   0.263   9.966   2.271  0.0780  0.1407 -0.1929
 6291W        W22100  10.531  16.273  11.742  0.0803  0.1581 -0.1694
 6292W        W22101  17.282   1.888   3.157 -0.2142  0.2395  0.0075
 6293W        W22102   1.312  16.116   0.637  0.1121  0.1817  0.0108
 6294W        W22103  13.254   9.262   6.764 -0.1794 -0.0426  0.1618
 6295W        W22104  13.821  12.347  13.841  0.3784 -0.0352  0.1174
 6296W        W22105  16.886   1.310   0.903 -0.0378  0.1865 -0.2188
 6297W        W22106  16.274   6.343   2.358  0.1294  0.0868 -0.2445
 6298W        W22107   8.188  11.575  12.208 -0.1581 -0.2949  0.0360
 6299W        W22108  15.321   2.424   5.247 -0.0090 -0.1052  0.1164
 6300W        W22109  11.091   3.706  13.154  0.0313  0.1295 -0.2994
 6301W        W22110  15.192   2.569  14.137 -0.1472  0.1027 -0.1471
 6302W        W22111  10.375   8.881  14.874  0.2476  0.1345  0.1226
 6303W        W22112  13.112   7.717  14.512  0.1408  0.0586 -0.1152
 6304W        W22113   5.281   4.594   4.134 -0.3346 -0.0943  0.2118
 6305W        W22114   7.113   3.683  15.057 -0.0535  0.0677 -0.1634
 6306W        W22115   7.074   9.059   4.860  0.2963 -0.1653  0.1960
 6307W        W22116  17.274   7.805  12.365 -0.1328  0.0185  0.2711
 6308W        W22117  14.758  10.318   2.485 -0.0955  0.1458 -0.3420
 6309W        W22118  11.159   8.170   4.706 -0.0444 -0.3254  0.1245
 6310W        W22119   7.073   7.548   1.120  0.0873  0.0811  0.1992
 6311W        W22120   9.333   9.464   0.336 -0.1865 -0.1378  0.2303
 6312W        W22121   0.409   0.894  15.072 -0.3808  0.1979  0.3970
 6313W        W22122   4.395   3.268  15.591 -0.3839  0.2878 -0.1614
 6314W        W22123  17.594   4.286   4.610 -0.2792  0.3893  0.0018
 6315W        W22124   4.257   2.282  12.504 -0.0326 -0.2173 -0.0344
 6316W        W22125   2.341   5.283   2.704  0.1664 -0.1488  0.1728
 6317W        W22126  13.064   6.008  14.057 -0.1516  0.2013 -0.0351
 6318W        W22127  16.069   4.969  13.906  0.1881 -0.1557  0.0757
 6319W        W22128  14.387   4.169  12.946  0.1817 -0.0136 -0.0589
 6320W        W22129   8.035   9.489  15.261  0.2880  0.0541 -0.0146
 6321W        W22130   3.118   7.122  12.742  0.1802  0.1601  0.0985
 6322W        W22131   5.174   6.771  16.060 -0.2523  0.1429 -0.2036
 6323W        W22132   3.630  17.510   4.013 -0.0006  0.0302  0.2546
 6324W        W22133   0.134  17.352  13.506 -0.3490  0.2003 -0.0087
 6325W        W22134  12.999  16.616  15.558 -0.0861  0.0921 -0.0400
 6326W        W22135  10.936   0.959   0.780 -0.3383  0.1900  0.0096
 6327W        W22136   1.397  14.671   1.033 -0.0602  0.1465 -0.1304
 6328W        W22137   1.497   6.996  11.578 -0.3043  0.0987  0.1171
 6329W        W22138   4.975  10.929  11.666  0.2370  0.2289 -0.1538
 6330W        W22139   7.597  12.634  15.922 -0.1379 -0.2463 -0.1602
 6331W        W22140   2.890  17.324   3.207 -0.0533 -0.1429 -0.0208
 6332W        W22141  12.241   4.247  12.189 -0.0033  0.2025  0.0226
 6333W        W22142   7.871  17.359  14.661 -0.0137 -0.1016  0.3390
 6334W        W22143   1.306  16.331   5.695  0.2837 -0.4717  0.2584
 6335W        W22144  10.649   6.404   3.499 -0.2463 -0.0738 -0.1572
 6336W        W22145  10.756   5.038  14.181 -0.0547 -0.1579  0.0359
 6337W        W22146   2.315   4.944  14.260 -0.2792  0.2246  0.0529
 6338W        W22147  10.679   4.222   4.330 -0.0188 -0.3222  0.1387
 6339W        W22148   8.117   3.694  15.769  0.1156 -0.1830 -0.0447
 6340W        W22149  14.474  14.452  16.594  0.2194  0.0534 -0.1163
 6341W        W22150   2.867  14.185   5.365 -0.3214  0.2365 -0.0197
 6342W        W22151  12.807   6.052  16.570  0.0880  0.2491  0.0610
 6343W        W22152  12.642   0.347   3.799  0.3018  0.0530 -0.0703
 6344W        W22153   6.256  15.144  11.523  0.0216  0.0914 -0.2254
 6345W        W22154  10.452  17.889   3.194  0.1332 -0.0182  0.0082
 6346W        W22155   5.517   7.117  16.291 -0.0394 -0.1133  0.0274
 6347W        W22156  11.726   9.467  16.079  0.0485 -0.0812 -0.4585
 6348W        W22157   1.272  13.990   2.448 -0.1662 -0.1800  0.1869
 6349W        W22158  17.577   3.649   2.324  0.0861  0.0620 -0.1817
 6350W        W22159   4.485   7.725  11.576  0.0392 -0.1388 -0.0755
 6351W        W22160  14.197  11.550  10.986 -0.2431  0.2738 -0.0208
 6352W        W22161   1.580   9.596  13.129 -0.2218  0.2456 -0.2854
 6353W        W22162   4.891  14.711  14.795 -0.0930  0.2134 -0.0849
 6354W        W22163   2.682  14.347   4.865  0.2618  0.1139  0.3478
 6355W        W22164   1.922   0.787  12.362  0.1175  0.4295 -0.2470
 6356W        W22165  17.477  11.235  15.506 -0.2075  0.3518  0.2222
 6357W        W22166  10.050   9.959  15.670 -0.4275 -0.3105 -0.1416
 6358W        W22167   4.722  11.136  12.654  0.1074 -0.2845  0.0152
 6359W        W22168  10.127  15.860  12.672  0.2446  0.0397 -0.0189
 6360W        W22169  16.605   7.290   3.055  0.2231  0.0355  0.4416
 6361W        W22170  16.009  10.392   3.276  0.2088 -0.1168  0.0198
 6362W        W22171   5.262   8.827   0.073 -0.1612  0.0819 -0.0632
 6363W        W22172   5.671  13.736   2.395 -0.1684 -0.0370 -0.2163
 6364W        W22173  13.625  16.563   0.445  0.2275 -0.0812 -0.1531
 6365W        W22174  12.074   4.581  14.856 -0.1108 -0.3849  0.1195
 6366W        W22175   3.837   4.191  11.259  0.2489  0.2105 -0.0992
 6367W        W22176   2.578  16.160  14.841  0.1224 -0.1517  0.0959
 6368W        W22177   6.383   8.287  11.757 -0.0297 -0.0529  0.1256
 6369W        W22178  15.314  10.314  12.135 -0.2717 -0.0866 -0.4033
 6370W        W22179   5.311  14.781  11.762  0.2046 -0.2771  0.3136
 6371W        W22180   1.888   7.978  14.987  0.0572  0.1673  0.0164
 6372W        W22181  11.786   6.827  11.867 -0.0380  0.1471 -0.1623
 6373W        W22182   5.917   6.030   1.650  0.0343 -0.0337  0.0708
 6374W        W22183  14.150   9.107  11.262  0.1388  0.2754  0.3486
 6375W        W22184  11.138  12.662   0.629 -0.1374 -0.2185  0.1395
 6376W        W22185   9.737   5.723   5.243  0.0141  0.0279  0.2474
 6377W        W22186   2.251   4.517  13.525  0.1765 -0.0513  0.3581
 6378W        W22187  14.218  16.716   2.548 -0.0942  0.0886  0.0906
 6379W        W22188  14.967  12.506  15.779 -0.3043 -0.1823 -0.0615
 6380W        W22189   9.935  12.471   5.252  0.0540  0.0456  0.1558
 6381W        W22190   8.018  14.125  16.568 -0.0484 -0.2649  0.0855
 6382W        W22191   3.840   6.589   2.352 -0.0589 -0.2480  0.0648
 6383W        W22192   7.923  11.143  15.750 -0.0816 -0.0915  0.0530
 6384W        W22193   1.672  15.499   5.619  0.4595  0.1227 -0.2487
 6385W        W22194   7.630   8.292  15.310  0.0956 -0.0582  0.0531
 6386W        W22195   4.279   4.359  12.688 -0.0251  0.0926  0.0932
 6387W        W22196  15.928   0.951   1.248  0.0758 -0.2093 -0.0392
 6388W        W22197  12.621   3.874   4.547  0.0540 -0.3049 -0.0144
 6389W        W22198   1.490  10.228   4.979 -0.3274  0.2565  0.1572
 6390W        W22199  13.436  12.787   3.419  0.2685  0.0615  0.0580
 6391W        W22200   0.421   8.459   4.933 -0.1636  0.1876 -0.3619
 6392W        W22201  10.521   7.496  14.416 -0.2079 -0.2385 -0.0246
 6393W        W22202   5.227  16.811   4.021  0.0796  0.2467  0.2920
 6394W        W22203   2.889  13.517   3.193  0.1020 -0.1720 -0.1862
 6395W        W22204   0.534  12.434   4.345  0.3509  0.3113 -0.0366
 6396W        W22205  12.420   5.215   3.474  0.1102  0.4434  0.1176
 6397W        W22206  17.455  15.121  15.003 -0.1313 -0.0353  0.1210
 6398W        W22207   5.274   0.354   4.066 -0.1778  0.1238  0.0656
 6399W        W22208  15.738   4.812   3.439 -0.0340 -0.0146  0.2309
 6400W        W22209  16.475  11.337   0.719  0.0635 -0.2452 -0.2275
 6401W        W22210   5.540   3.811   4.257  0.1047  0.1359  0.0134
 6402W        W22211  14.040  12.872  12.505 -0.0826 -0.1453  0.0416
 6403W        W22212  15.697   6.178  12.235  0.2710 -0.0464 -0.0501
 6404W        W22213  14.520   9.797  16.218  0.0838  0.1495 -0.1449
 6405W        W22214   5.680  10.910   3.072  0.1530 -0.2419  0.1138
 6406W        W22215   5.612   3.414  16.085 -0.3255 -0.1277 -0.1007
 6407W        W22216  16.108   8.558   3.262  0.1953  0.1887 -0.0326
 6408W        W22217   4.505  17.157   3.554  0.1015  0.0316  0.1159
 6409W        W22218  17.658   5.102  15.689  0.2028  0.0628 -0.2090
 6410W        W22219   3.843   7.922  13.801 -0.0149  0.5479 -0.3041
 6411W        W22220  14.044   1.814   4.838 -0.1985 -0.0679  0.0217
 6412W        W22221   5.777   8.308   4.095 -0.0205  0.2214 -0.2771
 6413W        W22222  17.047   3.681   4.451  0.3024  0.2025  0.0316
 6414W        W22223  15.274  16.594  15.405 -0.0523 -0.1209 -0.3130
 6415W        W22224  10.719  11.958  16.613 -0.0692 -0.0401  0.1184
 6416W        W22225  17.003  13.686   5.070 -0.0015 -0.1760 -0.0323
 6417W        W22226  11.246  12.510  15.453  0.2599  0.1941  0.0664
 6418W        W22227   6.805  16.699   2.910  0.0732 -0.1349  0.0453
 6419W        W22228   5.089   0.867   3.988  0.1707  0.1371 -0.0161
 6420W        W22229   4.047   4.639   3.736 -0.4972  0.0558  0.0637
 6421W        W22230  17.816  14.676   3.823 -0.1973 -0.0851  0.2304
 6422W        W22231   3.571   5.130  15.899 -0.3872  0.2348 -0.0501
 6423W        W22232  12.899  11.214   2.151  0.2265  0.3470 -0.0276
 6424W        W22233   1.004  17.234   3.463  0.1082  0.4680  0.1971
 6425W        W22234   5.603   9.427  13.949 -0.2030 -0.0353 -0.1355
 6426W        W22235  14.525  12.581   2.962  0.1418  0.0319  0.3075
 6427W        W22236   7.224  13.227  12.202  0.4034 -0.1649  0.0987
 6428W        W22237  12.335   4.709  15.250 -0.0796 -0.2685 -0.0709
 6429W        W22238  12.677  12.681   0.526 -0.1996 -0.0354 -0.0473
 6430W        W22239   7.870   0.051   0.097  0.0340  0.1094 -0.1862
 6431W        W22240  11.484   8.207  16.141 -0.1303  0.4514 -0.0208
 6432W        W22241  15.947   1.161   1.716  0.2316 -0.3221  0.0269
 6433W        W22242  13.769  16.185   3.398  0.0552  0.1187  0.2781
 6434W        W22243  13.593   0.740  11.952 -0.1630  0.2263 -0.1027
 6435W        W22244   3.119   2.706  16.378 -0.0007 -0.1762 -0.1900
 6436W        W22245  15.551  11.073   1.395 -0.2001 -0.0413 -0.3326
 6437W        W22246  15.860   1.330  11.413 -0.0355  0.1904 -0.3801
 6438W        W22247  11.556   1.974   4.103  0.0505 -0.0121  0.2601
 6439W        W22248  17.359   8.025   5.578 -0.0101 -0.2162 -0.3099
 6440W        W22249   3.119   0.663  15.695  0.0991 -0.2694  0.0133
 6441W        W22250   4.853  14.768   3.224  0.0956 -0.1152  0.0155
 6442W        W22251  14.305   7.025  11.394  0.0243  0.0176 -0.1136
 6443W        W22252  11.106  14.109   5.569  0.0628  0.2573  0.0564
 6444W        W22253  14.680  14.480   4.255  0.1155 -0.1503  0.0474
 6445W        W22254  13.993   7.758  12.510 -0.0303 -0.2388  0.5825
 6446W        W22255   2.180  10.932  11.546 -0.3441 -0.1723  0.0588
 6447W        W22256  13.322  12.037   2.343 -0.0278 -0.1764 -0.0298
 6448W        W22257  17.197  14.052   1.322  0.1131  0.1594  0.2889
 6449W        W22258  17.207  14.613   4.972  0.0937  0.1084  0.4139
 6450W        W22259  13.618   6.513   2.506 -0.4029 -0.1732 -0.3378
 6451W        W22260  12.081  12.649  13.189  0.0883  0.2572  0.0466
 6452W        W22261  10.316   4.915  13.482 -0.1477  0.0753 -0.0406
 6453W        W22262  17.620   5.062  15.157  0.1371 -0.0095  0.1364
 6454W        W22263   0.888  16.065  15.576 -0.1284 -0.0368  0.3366
 6455W        W22264   8.960   2.087  14.028 -0.1310  0.2289 -0.1985
 6456W        W22265   2.985   1.067  13.518  0.1675 -0.0472 -0.0774
 6457W        W22266   8.495  13.652   5.959  0.1617  0.0719  0.0524
 6458W        W22267   4.240  10.326  15.401 -0.1955 -0.1488  0.1091
 6459W        W22268   5.415  11.922   1.903  0.2216  0.1088  0.1799
 6460W        W22269  11.594  15.042   2.585 -0.1064 -0.0714  0.0029
 6461W        W22270  12.579   9.218  13.558 -0.1462  0.2497  0.1871
 6462W        W22271  10.206  10.968   2.973 -0.0227 -0.1091 -0.1812
 6463W        W22272   7.619   2.092  12.842 -0.0422 -0.0264 -0.2074
 6464W        W22273   3.689   7.221  16.025 -0.0356  0.0207 -0.5477
 6465W        W22274  12.618   5.237  11.860  0.3668 -0.0786  0.0934
 6466W        W22275  13.712   8.359   3.291 -0.2442 -0.2604  0.2891
 6467W        W22276   5.766   8.234   1.449 -0.1378 -0.2766 -0.2532
 6468W        W22277   4.931   6.370   3.524 -0.0150 -0.0220 -0.0203
 6469W        W22278  12.953  16.910   1.917 -0.1242  0.4549  0.0778
 6470W        W22279  12.533  14.056   3.008  0.0209  0.0144  0.2320
 6471W        W22280   4.698   9.793  11.301 -0.1281 -0.2935  0.2275
 6472W        W22281  11.430  10.124  14.837 -0.1362  0.3092 -0.1650
 6473W        W22282   9.843   0.081   6.859 -0.0611 -0.0542  0.4372
 6474W        W22283   6.936   6.951   3.619  0.0017  0.2151  0.1577
 6475W        W22284   7.843   7.796   3.087  0.0745  0.1465 -0.0239
 6476W        W22285  16.764  15.475   3.228  0.2754  0.0872  0.1434
 6477W        W22286   1.804  15.902  12.504 -0.0609 -0.2355 -0.1082
 6478W        W22287   2.979   9.300  11.152 -0.1615 -0.1683 -0.0611
 6479W        W22288  13.047  11.159   0.220 -0.1667 -0.2113  0.1209
 6480W        W22289  16.956  12.479  11.939  0.2083 -0.4523 -0.0560
 6481W        W22290   0.598  12.910   1.344  0.2097 -0.2449  0.2385
 6482W        W22291   0.265   4.379  16.514  0.1131 -0.0354 -0.2586
 6483W        W22292   9.587   4.512  16.619 -0.1811  0.2311 -0.3639
 6484W        W22293   7.711   6.550  16.696  0.0867 -0.0462  0.2548
 6485W        W22294  10.299  14.456  14.516  0.0384  0.0433  0.0965
 6486W        W22295  14.244   0.476  15.656 -0.2038  0.1928 -0.5383
 6487W        W22296  12.236  10.149   4.066  0.0868 -0.1027 -0.0546
 6488W        W22297  12.739  15.508  14.205  0.2653 -0.0460  0.0614
 6489W        W22298   7.514  17.631   5.889 -0.0983  0.1294 -0.1697
 6490W        W22299   8.862   5.606   3.736 -0.1480  0.1934 -0.5117
 6491W        W22300   7.624  16.339   4.556  0.0514 -0.1151  0.0096
 6492W        W22301  11.255  13.835   3.344 -0.0978 -0.2231  0.1210
 6493W        W22302   7.033   3.010  13.049 -0.4328 -0.0400  0.3170
 6494W        W22303  13.325   2.898   2.557  0.0235 -0.4217  0.0800
 6495W        W22304  11.026  11.802   1.038  0.1074 -0.1605  0.0120
 6496W        W22305  12.099   1.714  15.287  0.0151 -0.1362  0.3596
 6497W        W22306   3.552  17.737  13.362  0.0918  0.0933  0.2388
 6498W        W22307  13.882  16.205  14.031 -0.2150 -0.2417  0.1411
 6499W        W22308  16.516  13.413   4.904  0.0275 -0.0603  0.1167
 6500W        W22309   8.079   4.428   1.357 -0.1511 -0.1180 -0.3161
 6501W        W22310   8.038   2.645  13.227  0.2493 -0.0041 -0.0412
 6502W        W22311  15.979  11.576   6.212  0.0756  0.2412  0.2345
 6503W        W22312  11.871  15.058   5.699  0.3121 -0.1878 -0.0070
 6504W        W22313  16.460   7.843  12.759  0.4245  0.1816 -0.3047
 6505W        W22314   9.346  12.212   1.603 -0.1636 -0.2960  0.0923
 6506W        W22315  10.742   3.207   3.034 -0.0121 -0.3285 -0.0582
 6507W        W22316  10.648   0.163  15.870 -0.2650 -0.0700 -0.0069
 6508W        W22317   0.207   1.872   4.893 -0.0316  0.1141  0.1570
 6509W        W22318  16.587   5.604   0.517 -0.2118 -0.2331  0.1234
 6510W        W22319  17.798  13.978  14.591 -0.0774 -0.0521 -0.1767
 6511W        W22320  15.280  14.578   1.726 -0.1076 -0.2000  0.4059
 6512W        W22321  12.413   4.047   2.885  0.0950 -0.1349 -0.2314
 6513W        W22322  15.011  12.160  15.039  0.1065 -0.0248 -0.5037
 6514W        W22323  13.718   1.110  13.321 -0.1863 -0.0279 -0.1059
 6515W        W22324   0.006  14.528  11.470 -0.0699 -0.1013 -0.0204
 6516W        W22325  11.786  14.604  13.522 -0.1872 -0.1374  0.1504
 6517W        W22326   0.196   5.886   2.709 -0.2115  0.2270  0.1986
 6518W        W22327   9.490   7.982   6.071  0.0053  0.2169 -0.3209
 6519W        W22328  13.261   6.871  13.740 -0.1784  0.0955 -0.0636
 6520W        W22329   4.945   2.596   3.466  0.2495  0.1811 -0.0315
 6521W        W22330   2.438  11.085  15.640 -0.0725  0.0641 -0.0013
 6522W        W22331   9.703  11.029   3.495  0.1621  0.0912  0.1063
 6523W        W22332  12.181  15.059   3.118 -0.0365 -0.1352  0.0652
 6524W        W22333   8.201   5.579   0.939 -0.0094 -0.1747  0.1805
 6525W        W22334  13.590  12.124  12.152  0.2182  0.1037  0.1560
 6526W        W22335   8.946  11.946   0.325  0.1113  0.5688  0.2601
 6527W        W22336   7.917   8.545  13.061 -0.2130  0.1653  0.1867
 6528W        W22337  11.430  17.120   3.506 -0.0536  0.0426  0.0873
 6529W        W22338  10.033   1.367  16.436 -0.3969 -0.0784  0.2850
 6530W        W22339  12.787   8.945   2.351 -0.0778 -0.2003 -0.1523
 6531W        W22340   0.709  14.045  15.592  0.2574 -0.0247  0.0719
 6532W        W22341   2.321   8.362   2.252 -0.0618 -0.0671  0.2665
 6533W        W22342   9.413   2.609  13.111  0.1301  0.2414  0.1724
 6534W        W22343  13.250   2.983   0.631 -0.3631  0.1159 -0.1737
 6535W        W22344  14.574   5.897   3.435  0.1617  0.0827  0.1481
 6536W        W22345   3.114  17.325   4.675 -0.1379  0.0789  0.0257
 6537W        W22346  16.154   7.759  13.541  0.3714  0.0030 -0.2178
 6538W        W22347   6.405  12.536   5.582 -0.0782  0.1311  0.0460
 6539W        W22348   8.199  14.085  11.129 -0.0341 -0.0703  0.2168
 6540W        W22349   8.042   6.894  12.476 -0.1808  0.1738  0.5839
 6541W        W22350  14.862  17.832  15.476 -0.2485  0.2065 -0.0632
 6542W        W22351  17.389  16.864   2.692  0.2328  0.4121 -0.4464
 6543W        W22352  11.638   6.027  13.035  0.0889 -0.1004 -0.0291
 6544W        W22353  11.601   8.963  14.600 -0.0266 -0.1662  0.1654
 6545W        W22354  14.801  17.792  12.998 -0.0682  0.3195 -0.1626
 6546W        W22355   2.336  14.050  13.177  0.4437  0.4029  0.0774
 6547W        W22356  17.673   3.721  16.352 -0.0730 -0.4265 -0.0014
 6548W        W22357  16.042   1.186  10.525  0.4149 -0.2473  0.1752
 6549W        W22358   1.005  16.685  12.222 -0.0488  0.0602  0.0686
 6550W        W22359  12.950  13.840   6.944  0.1142 -0.0386 -0.0378
 6551W        W22360  16.072   7.188   2.175  0.1970  0.0719 -0.0652
 6552W        W22361   8.192   6.584   5.635  0.1051  0.0848 -0.0598
 6553W        W22362  13.242   7.592   2.629  0.0020 -0.1943 -0.1269
 6554W        W22363  11.558  12.707   5.475  0.2519  0.2064  0.0255
 6555W        W22364  16.306   3.863   0.541  0.4205  0.0292  0.2916
 6556W        W22365  11.123  16.366   3.110  0.0401 -0.0454  0.3606
 6557W        W22366   2.524   7.580   1.102 -0.1284 -0.0210 -0.0100
 6558W        W22367  17.940   7.031  12.420  0.2016  0.0503  0.0701
 6559W        W22368   1.745  10.376   0.503  0.2242  0.1707 -0.1153
 6560W        W22369   7.950  10.116   4.883  0.1050  0.1926 -0.1196
 6561W        W22370   0.986   3.674  11.019 -0.0209  0.1564 -0.3093
 6562W        W22371   4.362   2.662   2.638  0.0654 -0.0589  0.3650
 6563W        W22372  11.117   0.164  12.296  0.1557 -0.3850 -0.2940
 6564W        W22373   5.200   6.288  14.360  0.0576  0.0738  0.0719
 6565W        W22374   2.135  13.659   5.336 -0.1235 -0.1372 -0.1140
 6566W        W22375  14.865   7.253  16.568 -0.0613 -0.0259 -0.0966
 6567W        W22376   7.993  11.981  14.306  0.2371  0.2590 -0.1094
 6568W        W22377   9.153   7.909   1.742  0.1826 -0.0125 -0.0416
 6569W        W22378  12.586   0.460  12.534  0.1586 -0.1355 -0.1892
 6570W        W22379   6.217   7.863   4.970  0.1580  0.5139  0.1944
 6571W        W22380   2.827  12.609   0.845 -0.0306 -0.0231 -0.0798
 6572W        W22381   1.220   1.697   5.589  0.1706  0.1404 -0.1113
 6573W        W22382  15.062  14.993   0.347  0.0799 -0.0207  0.3276
 6574W        W22383   5.676   8.004   0.977  0.2554 -0.0705  0.0024
 6575W        W22384  11.028   9.257  15.435  0.1288 -0.0154  0.0298
 6576W        W22385  10.168   5.328  13.199 -0.3107 -0.0553  0.0057
 6577W        W22386   6.515  11.106  16.005  0.1295 -0.1113  0.1520
 6578W        W22387   9.742   1.005  12.609  0.1379 -0.1279 -0.0500
 6579W        W22388  10.927   0.906  13.342 -0.0447 -0.2459  0.2507
 6580W        W22389   1.493  13.120   5.066  0.2780  0.1837  0.1072
 6581W        W22390   8.336   1.623  16.502  0.0593  0.3725  0.2352
 6582W        W22391   9.498  11.783  13.497 -0.0406  0.2579 -0.3158
 6583W        W22392   8.069  13.676   5.566  0.2797 -0.0526  0.3257
 6584W        W22393   7.384   7.130  13.823 -0.0931 -0.1716 -0.0598
 6585W        W22394   7.320  13.588   5.461 -0.0508  0.1079  0.0238
 6586W        W22395   0.414  10.171   5.263 -0.3004  0.2220 -0.0272
 6587W        W22396   9.450   5.788  12.679  0.2257 -0.4077  0.0271
 6588W        W22397   4.504   4.479   3.110 -0.1810  0.2036  0.0847
 6589W        W22398   9.050  16.655  15.716  0.2366  0.3621  0.0651
 6590W        W22399   7.150   9.038  15.741 -0.3476 -0.0912 -0.3849
 6591W        W22400   8.347  12.055  13.133 -0.0871 -0.0236  0.0437
 6592W        W22401  15.766  17.946   1.356  0.0813  0.0429  0.2686
 6593W        W22402  16.943  13.074   1.961 -0.2043 -0.1071  0.2401
 6594W        W22403   2.172   2.714   5.338 -0.2352 -0.0619 -0.0262
 6595W        W22404   5.222  13.352   2.320 -0.0123 -0.0929  0.0523
 6596W        W22405   4.988  15.445  15.491 -0.0209 -0.0515 -0.0581
 6597W        W22406   5.845   3.024   0.042 -0.2862 -0.2044 -0.1774
 6598W        W22407  14.287  13.753  13.707  0.1144  0.1726 -0.1701
 6599W        W22408  12.212   9.995  15.362  0.0213 -0.1438 -0.0740
 6600W        W22409   1.604   6.706   0.192  0.3296 -0.2518  0.2665
 6601W        W22410   3.908  10.985  12.924  0.2551  0.0947  0.0597
 6602W        W22411  17.048   5.738   0.750  0.1518 -0.2433  0.0602
 6603W        W22412  15.893  11.807  13.911 -0.0201  0.0306 -0.0914
 6604W        W22413   6.556   9.912   6.021  0.1879  0.1075 -0.2771
 6605W        W22414   0.216  14.600   0.337 -0.0708 -0.0566  0.0090
 6606W        W22415  12.478   4.150  15.589 -0.0292 -0.1251  0.4458
 6607W        W22416  16.389  17.161  16.470  0.0857 -0.1832  0.3042
 6608W        W22417   8.430   7.753   0.109  0.1911  0.0872 -0.3585
 6609W        W22418   4.304   4.876   4.984 -0.0090  0.0517  0.1542
 6610W        W22419   7.730  13.631  13.310  0.0667 -0.1344 -0.0159
 6611W        W22420  16.979   5.747   2.301  0.1183 -0.0633  0.1324
 6612W        W22421   0.711  12.530   1.689  0.2015 -0.1066  0.3487
 6613W        W22422   3.867   9.978   0.208  0.0464  0.0175  0.0999
 6614W        W22423   3.914  13.290   3.234  0.2114 -0.1219 -0.1480
 6615W        W22424  10.066   8.741   5.905  0.0807  0.0058 -0.2959
 6616W        W22425   6.157   0.804  14.074 -0.0158  0.0849  0.0971
 6617W        W22426  15.630  15.683   3.211  0.2342 -0.1384 -0.3407
 6618W        W22427  14.377   1.374   4.844  0.0437 -0.2264  0.2144
 6619W        W22428   0.885   4.224  11.496  0.1634  0.0411  0.0150
 6620W        W22429  16.943   1.717   5.547  0.1028  0.0115  0.3244
 6621W        W22430   8.731  10.346   1.349 -0.0838  0.2629  0.2569
 6622W        W22431  12.605   1.770  12.669  0.0754 -0.1188  0.1247
 6623W        W22432  14.262  15.756   1.618  0.1157 -0.1828  0.1690
 6624W        W22433  13.323  15.079   5.074 -0.1186  0.0900  0.0454
 6625W        W22434   0.847   2.191  13.585 -0.4126 -0.2595 -0.1047
 6626W        W22435  16.386  14.206   0.754 -0.1546  0.1618 -0.1466
 6627W        W22436   2.594  14.480  13.348  0.0188  0.0187 -0.4253
 6628W        W22437  14.414   7.705   4.416  0.0004  0.1281 -0.2388
 6629W        W22438  14.241   4.096  12.379  0.1210 -0.0303  0.2984
 6630W        W22439  16.073   8.424   5.248 -0.0793 -0.2050 -0.2623
 6631W        W22440  15.562  14.058  16.252  0.2041  0.1186  0.1124
 6632W        W22441   2.164  14.519  16.456  0.1900 -0.1348  0.0993
 6633W        W22442   9.432  10.823  11.589 -0.1921  0.1477  0.1076
 6634W        W22443   0.636  16.353   1.324 -0.1580  0.0131 -0.1951
 6635W        W22444  10.405   2.788  14.566 -0.1521  0.2247  0.0482
 6636W        W22445  10.427   8.506   2.589 -0.0978 -0.1112  0.0070
 6637W        W22446   8.904  16.134  11.883  0.1838 -0.1558  0.2637
 6638W        W22447  12.861   8.261  11.821 -0.1338 -0.0292 -0.0761
 6639W        W22448  15.002   1.300  15.395 -0.3255  0.2546 -0.0665
 6640W        W22449  10.377  12.861   1.269  0.0083 -0.1788 -0.1809
 6641W        W22450  12.452  11.005  16.158 -0.1077  0.2573  0.1905
 6642W        W22451  12.934  15.285   5.363 -0.3700  0.0094  0.0094
 6643W        W22452   7.923   3.756   3.600  0.1112  0.1439  0.0071
 6644W        W22453  11.653   8.968   3.926 -0.0422 -0.0606  0.1731
 6645W        W22454  14.772   8.922  16.621  0.0586 -0.0110 -0.0294
 6646W        W22455  14.500   9.467   1.398  0.0347 -0.2056 -0.4412
 6647W        W22456   2.665  16.015  16.507  0.0999 -0.2481 -0.0428
 6648W        W22457   1.942   4.212   4.347 -0.3060 -0.0233 -0.3063
 6649W        W22458  11.752  11.431   0.623 -0.0855  0.2330 -0.0892
 6650W        W22459  16.818  14.627  14.903  0.0449  0.1714  0.0888
 6651W        W22460  15.307   7.419   2.697  0.1523  0.0435  0.0824
 6652W        W22461   4.313  15.796   1.665  0.0884 -0.0423 -0.6396
 6653W        W22462  12.678   9.397   3.349  0.2489  0.0214  0.0552
 6654W        W22463   8.129   0.755   3.932  0.2510 -0.0785 -0.1215
 6655W        W22464  10.741  12.881  11.218 -0.1139 -0.2027  0.1131
 6656W        W22465   4.844   8.161   3.069  0.0492  0.1270 -0.1107
 6657W        W22466   1.429   7.731   2.784  0.0430 -0.0815 -0.0245
 6658W        W22467   6.646  14.921  15.176 -0.1510 -0.0411 -0.0621
 6659W        W22468  13.179  12.332   2.765  0.1410  0.0629 -0.0784
 6660W        W22469  13.832  16.066   1.882 -0.1151 -0.1500 -0.0062
 6661W        W22470   9.618   1.622   2.102  0.0618 -0.0219 -0.0779
 6662W        W22471  10.447  10.774   5.097 -0.0003 -0.2331  0.1412
 6663W        W22472   9.392  16.776   4.077  0.2535  0.1380 -0.1336
 6664W        W22473   7.310  12.943   1.284 -0.2748  0.0735  0.3260
 6665W        W22474  17.804  10.323   4.488  0.1369  0.0353  0.4149
 6666W        W22475  10.989   6.758   4.543 -0.1487 -0.3529  0.1328
 6667W        W22476  17.119  12.708   1.175  0.5143  0.2987 -0.2518
 6668W        W22477  14.127  17.334  14.608  0.3128 -0.1482 -0.3810
 6669W        W22478  16.826   8.337   0.452  0.0990 -0.1878 -0.0009
 6670W        W22479  14.004   1.221   2.541 -0.1099 -0.1433  0.2038
 6671W        W22480  15.767  16.469   4.476  0.0691 -0.0887 -0.0843
 6672W        W22481   4.103  14.074  11.431  0.1863  0.1632 -0.2518
 6673W        W22482   5.388   9.222   0.384 -0.0832 -0.1983  0.2044
 6674W        W22483   8.700   0.164   4.357 -0.0039 -0.0289 -0.2353
 6675W        W22484   9.860   7.138  12.649  0.0051  0.1439  0.0660
 6676W        W22485  10.038  14.956   2.635  0.1214  0.0834 -0.0607
 6677W        W22486   7.429   8.075   2.955 -0.2861  0.1687 -0.0344
 6678W        W22487   6.549  12.502   0.077 -0.2174  0.2541 -0.1050
 6679W        W22488  17.798   1.507  12.428  0.1538 -0.0198  0.0176
 6680W        W22489   3.153  13.974   0.172  0.2194 -0.1190  0.2123
 6681W        W22490   3.698  12.306   4.405  0.0791 -0.1447  0.0282
 6682W        W22491   7.127  14.923  11.704  0.1556 -0.2487  0.0958
 6683W        W22492  13.031   7.960   4.825  0.2226  0.0829 -0.0620
 6684W        W22493  12.178   5.838   0.473 -0.2236 -0.0528 -0.0848
 6685W        W22494   5.282  13.013  14.469  0.1874 -0.0423  0.0356
 6686W        W22495  16.220   2.199  11.236  0.2369  0.1374 -0.0165
 6687W        W22496  16.241   1.669  11.611 -0.1809 -0.2104 -0.1304
 6688W        W22497   0.801  12.048  14.767  0.2546 -0.2224 -0.1191
 6689W        W22498   4.081   0.231   6.158  0.0903 -0.2218  0.0639
 6690W        W22499   2.220   0.137  13.265  0.1291  0.2338  0.0511
 6691W        W22500   3.205  10.891  13.285  0.2451 -0.2491 -0.3224
 6692W        W22501   3.993  14.288  13.946 -0.0414  0.0972 -0.3193
 6693W        W22502  14.058   9.709   5.604 -0.2449 -0.3134 -0.0263
 6694W        W22503  16.952   7.542  16.352  0.2441 -0.0430  0.1880
 6695W        W22504   5.617   0.322   0.297 -0.0022 -0.1348  0.0903
 6696W        W22505   9.681   5.784  13.870 -0.1012 -0.1121  0.0695
 6697W        W22506  16.799   3.777   2.200  0.2604  0.2879 -0.0814
 6698W        W22507   9.799  11.151   0.854  0.1669  0.0530 -0.1516
 6699W        W22508  16.426  12.631  11.832 -0.2444 -0.0129  0.1894
 6700W        W22509   7.429   1.300  16.090  0.0202 -0.0405 -0.1405
 6701W        W22510   8.457  16.337   0.717  0.0275  0.0384  0.1468
 6702W        W22511  16.332  17.637   3.884 -0.0364  0.0778 -0.0988
 6703W        W22512  16.256   6.914  12.320  0.1662 -0.1648 -0.0422
 6704W        W22513   0.152   3.945  13.236 -0.0617 -0.1369 -0.2174
 6705W        W22514   7.057   9.386  11.365 -0.1984  0.1705 -0.0606
 6706W        W22515   7.249   2.778   0.003  0.1204  0.0975  0.0992
 6707W        W22516   4.891   2.660   2.547  0.0332  0.1629  0.2351
 6708W        W22517  17.836  17.599   4.732  0.2055  0.0671 -0.1443
 6709W        W22518   5.055  17.187   2.807  0.1582  0.0579  0.1079
 6710W        W22519   6.683   0.051  14.367  0.1236 -0.1701 -0.2923
 6711W        W22520  16.192  11.990   5.984 -0.3558 -0.0250  0.0790
 6712W        W22521  11.916  12.982  12.066  0.0135 -0.0004  0.2881
 6713W        W22522   7.102   2.652  15.733 -0.3551  0.2158  0.0826
 6714W        W22523  17.812  14.504   5.469  0.0775  0.0769 -0.0266
 6715W        W22524   6.785  17.456   3.725  0.1235  0.0611  0.0960
 6716W        W22525   6.509  14.064  12.944 -0.0509  0.2507 -0.1722
 6717W        W22526   2.185  10.831   3.409  0.0339  0.0392 -0.0704
 6718W        W22527  14.043   8.901  12.297  0.3285 -0.2326  0.1443
 6719W        W22528  16.881  16.714  13.224 -0.1922 -0.1521  0.0187
 6720W        W22529  10.951   9.320  13.908  0.0767 -0.1819  0.1781
 6721W        W22530   9.955   2.746   5.768 -0.0494  0.0315 -0.3019
 6722W        W22531   1.029   7.152   5.139 -0.0655  0.0630 -0.1975
 6723W        W22532  17.256   2.369  11.341  0.0611 -0.2354 -0.0976
 6724W        W22533  10.268   2.112  14.048  0.1058 -0.0903  0.2531
 6725W        W22534  13.443  10.003  14.609  0.1050  0.3633 -0.1190
 6726W        W22535   2.972  13.009   5.286  0.0642 -0.2897 -0.1531
 6727W        W22536   9.880  10.850  14.671 -0.0232  0.2279 -0.0035
 6728W        W22537   3.462  16.627   2.925 -0.0376 -0.1623  0.2618
 6729W        W22538  14.906   4.990   4.006 -0.0036  0.0906  0.1999
 6730W        W22539   1.474   5.805   1.425 -0.3469 -0.3192  0.2000
 6731W        W22540   7.150  16.545  12.327  0.2668 -0.1093 -0.1089
 6732W        W22541   9.766  17.953   4.949 -0.0842 -0.0659 -0.2624
 6733W        W22542  11.321  17.484  11.634 -0.1039  0.2905 -0.2891
 6734W        W22543  16.471   0.134  12.471 -0.0714  0.1236  0.2301
 6735W        W22544  14.538   2.561   4.892 -0.2409 -0.0632 -0.2046
 6736W        W22545   9.463   2.926   0.150 -0.0391  0.2708  0.0322
 6737W        W22546  16.105   8.706  15.767 -0.0498  0.0477  0.1874
 6738W        W22547  11.843   0.717   4.713  0.0979 -0.0132 -0.1265
 6739W        W22548   4.967   0.735   1.442  0.2265  0.1360 -0.0689
 6740W        W22549   7.695   5.365   4.162  0.1994 -0.1207 -0.2201
 6741W        W22550  14.166   1.025  14.148  0.1102 -0.0445 -0.0655
 6742W        W22551   4.765  17.610  11.677  0.0428 -0.1357  0.0236
 6743W        W22552   8.803   5.086   5.044 -0.0449 -0.1454  0.0895
 6744W        W22553  11.676  11.945  12.243  0.0539 -0.2422  0.0557
 6745W        W22554   6.646   5.915   5.715 -0.1059 -0.2272 -0.1785
 6746W        W22555  11.829   5.047   2.283  0.0730 -0.1321  0.2025
 6747W        W22556   0.431  15.632  15.912  0.0420 -0.2843  0.0896
 6748W        W22557   8.579   2.914   1.160 -0.0480 -0.2857  0.0492
 6749W        W22558  16.157  14.722   1.458 -0.4163  0.3346 -0.1649
 6750W        W22559  17.845   3.173   5.380  0.1016 -0.2246 -0.0074
 6751W        W22560   9.304   4.875  16.301  0.0441  0.2834 -0.2865
 6752W        W22561   4.545   5.044   1.768  0.1215 -0.3092  0.0249
 6753W        W22562  17.891   3.803  15.770 -0.0477 -0.0937 -0.1754
 6754W        W22563   8.795   9.616   2.792 -0.2296  0.2098  0.2603
 6755W        W22564  15.863  15.872  16.200 -0.1706 -0.2033  0.0929
 6756W        W22565  13.179   4.608  11.235 -0.1169  0.1858  0.1632
 6757W        W22566  15.325  15.059  16.524  0.0871  0.2448 -0.1564
 6758W        W22567   8.941  16.116   6.284  0.1212 -0.0531  0.1273
 6759W        W22568  17.189  17.416  12.805 -0.1121  0.1188 -0.1241
 6760W        W22569  11.509  12.857   1.429 -0.0122  0.0599  0.1553
 6761W        W22570  13.832   3.222   1.625  0.0800 -0.2988  0.0555
 6762W        W22571   6.856   1.231  12.337  0.1654 -0.0140  0.2997
 6763W        W22572   9.977   9.253   6.170  0.2766  0.3246  0.1399
 6764W        W22573  13.995  10.610   5.370 -0.0071 -0.3739  0.1104
 6765W        W22574   5.271   7.469   1.523  0.2211  0.1429  0.3330
 6766W        W22575  11.077   1.124   0.156 -0.1790  0.1948 -0.0991
 6767W        W22576  15.834   7.935  12.248 -0.3188 -0.2619  0.3353
 6768W        W22577  11.228   5.468  15.520  0.1614  0.2017 -0.1655
 6769W        W22578  14.340  10.752   1.321 -0.1103  0.0975 -0.0105
 6770W        W22579   8.589   8.636  12.369  0.0815  0.1129  0.0034
 6771W        W22580   7.169   0.931  13.144 -0.0088  0.1195  0.2927
 6772W        W22581  10.930  17.815   4.852 -0.1508 -0.0852  0.1805
 6773W        W22582   9.460   7.873   3.461 -0.0218 -0.0735 -0.1347
 6774W        W22583  13.954   1.420   5.190  0.2492 -0.1029  0.0895
 6775W        W22584  16.891   8.267  13.797 -0.2267  0.3256  0.4326
 6776W        W22585   5.565   3.697   5.546 -0.1417  0.5656 -0.1831
 6777W        W22586   7.768  12.172   4.652  0.0582  0.0381  0.2366
 6778W        W22587   2.048   2.851  16.260 -0.0601 -0.0818  0.0761
 6779W        W22588   5.745   7.921  16.585 -0.0649 -0.1434 -0.1267
 6780W        W22589  16.590   2.556   3.896 -0.1164  0.0305  0.1457
 6781W        W22590   4.398   3.975  15.918 -0.0354 -0.0278 -0.1385
 6782W        W22591   2.519  15.589   5.602 -0.0603  0.1186 -0.2915
 6783W        W22592  15.353   6.191  11.717  0.2527  0.1689 -0.0600
 6784W        W22593  12.177  12.476   4.424 -0.0915 -0.1333  0.1395
 6785W        W22594  17.293  16.361  13.294 -0.0182 -0.0272  0.2431
 6786W        W22595   0.879   3.835   1.629  0.1560  0.0057 -0.1200
 6787W        W22596   0.579  12.558  14.610  0.2005 -0.3809  0.1320
 6788W        W22597  16.729  10.144  15.834 -0.0894  0.0177  0.1110
 6789W        W22598   8.275  11.079   4.236 -0.1228 -0.2445 -0.0210
 6790W        W22599   7.255   6.067   4.806 -0.2813  0.0961  0.2800
 6791W        W22600   7.341   3.317   0.781 -0.4629  0.0370  0.1635
 6792W        W22601  13.637   2.274   1.444  0.3589  0.1297 -0.2048
 6793W        W22602  15.473  17.247  12.367 -0.2042  0.2155 -0.2330
 6794W        W22603  16.788   2.507   4.480  0.1974  0.0124  0.1751
 6795W        W22604   3.702  12.346  15.309  0.1046 -0.4205  0.1897
 6796W        W22605   2.719  17.929  12.895 -0.1533 -0.0801  0.0022
 6797W        W22606   2.439   7.803   2.074 -0.0118 -0.2094 -0.1232
 6798W        W22607  15.920   1.487  14.181  0.0379  0.2151  0.4038
 6799W        W22608   2.802  15.294  16.019  0.2200 -0.0943  0.1611
 6800W        W22609  17.048   4.085   1.722 -0.1284 -0.2122  0.0034
 6801W        W22610   6.453   0.168   4.313  0.2364  0.2483 -0.0364
 6802W        W22611  11.724  15.793   4.158 -0.1032  0.0368 -0.0332
 6803W        W22612   9.671  11.673   5.329  0.0018 -0.2409  0.2379
 6804W        W22613   6.957   9.336  16.522 -0.0543 -0.1265  0.1037
 6805W        W22614   2.034   1.152  14.773  0.3160 -0.2712 -0.0920
 6806W        W22615   5.943   7.008  11.708 -0.0616  0.1466 -0.1263
 6807W        W22616   2.766   6.715  12.616  0.1615  0.1835 -0.2330
 6808W        W22617   6.488   6.302   1.327 -0.3990 -0.0082 -0.1340
 6809W        W22618  17.431   8.137  15.826 -0.3694  0.0068  0.1340
 6810W        W22619   9.149   1.147  15.311 -0.1846 -0.2206  0.0289
 6811W        W22620   1.624   8.290  13.659  0.2718  0.0322 -0.0068
 6812W        W22621   4.741   0.194  16.656 -0.0064 -0.0021 -0.0342
 6813W        W22622  15.775   2.180   2.906  0.0176 -0.2461 -0.0192
 6814W        W22623   0.385  13.311  15.131 -0.1401  0.0009 -0.1895
 6815W        W22624   1.013  14.902   2.300 -0.3037 -0.1513 -0.3899
 6816W        W22625  14.168   5.661  16.642 -0.0863 -0.0843  0.2549
 6817W        W22626   9.169   9.842   2.981  0.0490  0.1343  0.0059
 6818W        W22627   5.861   1.360  11.964 -0.0480  0.1559 -0.0064
 6819W        W22628  12.954   1.672   0.286  0.2352  0.0650  0.0397
 6820W        W22629  16.252   0.532   5.052 -0.2489  0.2596  0.2362
 6821W        W22630  13.397   1.171   0.339  0.2473  0.0905 -0.2106
 6822W        W22631  10.714   9.572  15.815 -0.1824 -0.0554 -0.1138
 6823W        W22632  10.353  15.349   1.243 -0.1206  0.0419  0.2934
 6824W        W22633   3.451   6.299  16.490 -0.3101  0.1357  0.0162
 6825W        W22634   4.501   7.524  16.216  0.0110 -0.1448  0.2256
 6826W        W22635  13.782   3.144  12.896 -0.1114 -0.4315 -0.0629
 6827W        W22636   3.008  10.800  14.643 -0.0441  0.0702 -0.0745
 6828W        W22637  16.829  16.144   2.261  0.0065  0.2198 -0.2757
 6829W        W22638   0.479   3.522  15.036  0.1370 -0.1357 -0.1667
 6830W        W22639  12.423   4.949  13.205 -0.2763  0.2392 -0.1057
 6831W        W22640   4.617   5.192   2.247 -0.2013 -0.1606 -0.0347
 6832W        W22641  12.727  13.695   2.174 -0.1796  0.0283  0.1788
 6833W        W22642   9.421   2.418   1.599  0.0719  0.3347  0.1668
 6834W        W22643   5.989  14.130  11.731 -0.1851 -0.0181  0.1350
 6835W        W22644  11.014  14.691  15.036  0.0288 -0.4121  0.0196
 6836W        W22645  17.388  16.928  14.457  0.0824  0.0374 -0.3132
 6837W        W22646   4.076   3.355  14.299  0.0681  0.0808 -0.2900
 6838W        W22647  14.419  16.285   2.055 -0.2780  0.0963  0.0924
 6839W        W22648  13.822  13.965   2.379 -0.0615  0.0116 -0.0906
 6840W        W22649   1.327  11.546   2.296  0.0053  0.3749 -0.0886
 6841W        W22650   0.062   6.410   4.419 -0.2652 -0.2631  0.1093
 6842W        W22651  16.577  13.786   0.966  0.0862  0.2921 -0.1280
 6843W        W22652  10.193  12.093   5.033  0.1506 -0.0466 -0.2484
 6844W        W22653   0.798   1.391   2.186 -0.3640 -0.0369 -0.1439
 6845W        W22654   5.764  16.631  13.167  0.1989  0.0827 -0.1982
 6846W        W22655   5.525  10.973  14.363  0.1041 -0.1901  0.0213
 6847W        W22656  10.834  17.303   0.104  0.2317 -0.3038 -0.0551
 6848W        W22657   1.111  17.408   2.577 -0.0834  0.2594  0.3807
 6849W        W22658   0.875  11.552   1.548 -0.0430 -0.2139 -0.1636
 6850W        W22659   6.358  14.291   0.527 -0.1266 -0.3697  0.1353
 6851W        W22660  13.850   5.831   4.712  0.1018  0.2477 -0.0706
 6852W        W22661   1.916   7.047  16.648  0.4858 -0.1761  0.0927
 6853W        W22662   5.764   1.057  15.865 -0.1462  0.2748 -0.2243
 6854W        W22663  11.542  10.342   5.367 -0.1595 -0.2823 -0.0286
 6855W        W22664   3.657   5.141  13.095  0.1724  0.0136  0.2478
 6856W        W22665  13.337  10.525   3.202 -0.0539 -0.0608  0.3073
 6857W        W22666   9.875  12.667   4.265 -0.2034  0.1700  0.3153
 6858W        W22667   1.151   2.192  13.178  0.2411  0.0965  0.3063
 6859W        W22668   2.838  11.820  12.992 -0.1365 -0.0273 -0.0225
 6860W        W22669   4.916   1.450   4.023 -0.1590  0.0624 -0.0651
 6861W        W22670   7.464   0.564  12.450 -0.0268  0.1728 -0.0567
 6862W        W22671   6.231   7.429   4.575  0.4061  0.0698  0.2204
 6863W        W22672   8.794  11.159  16.657  0.1168 -0.1503 -0.0414
 6864W        W22673  14.775  11.853   3.180  0.3760  0.0674 -0.0037
 6865W        W22674  11.719   6.547   2.051  0.0527  0.0128 -0.1846
 6866W        W22675  16.082   2.714   0.044 -0.2178  0.0672  0.0093
 6867W        W22676   1.861   2.747   1.838  0.1527  0.0755 -0.0617
 6868W        W22677  17.903  12.151  12.809 -0.1417 -0.0494  0.1097
 6869W        W22678  16.256  11.687   1.128  0.3517 -0.1231  0.0442
 6870W        W22679   9.575   1.885   5.015 -0.1665  0.1699  0.1248
 6871W        W22680  10.402   0.602   5.432  0.0594  0.0720 -0.0465
 6872W        W22681   1.033   5.104  11.515 -0.0172 -0.0828  0.1739
 6873W        W22682   4.465  17.931  11.365  0.0160  0.0106 -0.0133
 6874W        W22683  17.918  13.219  16.552 -0.0658  0.0197 -0.2227
 6875W        W22684  10.677   4.561  14.319 -0.0419  0.2217  0.0973
 6876W        W22685  13.085   0.088   1.245 -0.0395 -0.0975 -0.0118
 6877W        W22686   9.113   6.682   5.880  0.3431 -0.0481  0.0524
 6878W        W22687   4.788  17.679   0.860 -0.1936 -0.1786  0.1583
 6879W        W22688   5.987  12.578   5.856 -0.1742  0.0130 -0.1136
 6880W        W22689  10.289  16.786   4.965  0.0409  0.0003 -0.1362
 6881W        W22690   7.818  14.253  13.546  0.1040 -0.0136  0.1751
 6882W        W22691   4.328   6.513   2.216 -0.1662  0.1229 -0.1299
 6883W        W22692  13.396  15.251  12.332 -0.3250  0.1292 -0.0284
 6884W        W22693   8.212   4.207   2.831 -0.2071  0.0443 -0.0481
 6885W        W22694   4.673   4.423  15.041  0.2194  0.0581  0.0597
 6886W        W22695  17.155  11.746   3.175 -0.3402  0.1441  0.1821
 6887W        W22696  16.339  17.464   0.880  0.0496  0.3143 -0.2309
 6888W        W22697  11.905   7.952   2.020  0.1395  0.0116 -0.1316
 6889W        W22698   2.887   2.585   3.109 -0.1248  0.0485  0.1628
 6890W        W22699   0.090   5.645   0.619 -0.2107 -0.0592  0.0352
 6891W        W22700  15.610  14.574  12.651  0.0055 -0.2070 -0.1120
 6892W        W22701  17.646   2.151   5.290  0.1569  0.1458 -0.0263
 6893W        W22702  10.413   5.870  13.881  0.0833  0.0761 -0.2769
 6894W        W22703  10.342   0.990   4.449 -0.0013  0.0813  0.0431
 6895W        W22704  14.743   5.731   0.052  0.0532 -0.1236  0.1458
 6896W        W22705  15.236   3.588  16.559  0.1222 -0.0591  0.0604
 6897W        W22706  15.740   3.251   5.330 -0.1251 -0.1358 -0.3175
 6898W        W22707   0.861   9.646  16.586 -0.0915 -0.0895 -0.1013
 6899W        W22708  16.830   3.646  14.542 -0.1682  0.0798  0.0032
 6900W        W22709   5.480   1.361  13.470  0.2465 -0.0948 -0.0188
 6901W        W22710   0.244  12.373  15.571  0.0946  0.0338  0.0099
 6902W        W22711  14.222  13.736   3.704 -0.0027  0.3975  0.0060
 6903W        W22712   6.133  13.904   2.320 -0.0784 -0.0347 -0.3132
 6904W        W22713  10.889  14.294  13.837 -0.0976 -0.1400  0.1689
 6905W        W22714  14.865  14.828  11.316 -0.2260 -0.3483  0.0569
 6906W        W22715   5.236  13.066   3.900 -0.0499 -0.2397  0.1104
 6907W        W22716   5.825   2.946  13.949 -0.1340  0.4217  0.1724
 6908W        W22717   3.553  16.531   3.614 -0.2700 -0.1122  0.2978
 6909W        W22718  11.116   3.218   0.091  0.0838  0.1483  0.1233
 6910W        W22719   6.635   4.786  12.463  0.1418 -0.0072 -0.1019
 6911W        W22720   3.185  11.226  16.408 -0.1280 -0.4199 -0.0541
 6912W        W22721  12.213  11.559   0.250 -0.0174  0.1914  0.2323
 6913W        W22722   1.169  13.749   1.728  0.0497 -0.0388 -0.1390
 6914W        W22723  15.587  10.054  14.477 -0.0257 -0.1266 -0.0073
 6915W        W22724   6.631   2.956   1.767  0.1395  0.0577 -0.2064
 6916W        W22725   7.199  14.875   0.316  0.0167 -0.0151 -0.1922
 6917W        W22726   2.397  15.837   3.285 -0.2030  0.0266  0.1618
 6918W        W22727  16.382   4.868   1.133  0.0448 -0.2997 -0.1907
 6919W        W22728   0.439   2.343   0.222 -0.0745 -0.0458 -0.2999
 6920W        W22729  11.810   5.345   3.579 -0.0341  0.2045  0.1839
 6921W        W22730   8.372  14.912   1.937  0.1751  0.0893  0.1261
 6922W        W22731   3.723   3.649  13.877  0.0206 -0.0164 -0.1966
 6923W        W22732   5.020  16.540  11.316  0.0056 -0.1656  0.0838
 6924W        W22733   5.789  16.792   2.954 -0.0332 -0.1774 -0.1795
 6925W        W22734   1.182   4.323   0.738  0.1199  0.1688 -0.2737
 6926W        W22735   2.964   9.753  15.113 -0.0458  0.3231  0.3752
 6927W        W22736   0.613  12.604  13.482  0.0408  0.0913 -0.0407
 6928W        W22737  13.674  13.100  15.419  0.1398  0.1730 -0.2376
 6929W        W22738   4.948   1.883  13.639  0.1323 -0.0273  0.0780
 6930W        W22739   0.607  13.700  13.061 -0.1900 -0.2069 -0.3127
 6931W        W22740  12.332   8.309   3.798  0.1745  0.1672  0.0715
 6932W        W22741  16.273  15.197   0.847 -0.1283 -0.0947 -0.0529
 6933W        W22742  12.926   2.335   3.869 -0.0457 -0.0243  0.3457
 6934W        W22743  16.672   9.523   1.446 -0.2553 -0.0281 -0.0377
 6935W        W22744  12.414   5.430  12.745 -0.2876  0.0481 -0.0253
 6936W        W22745   2.807   5.410   1.757  0.0496  0.1880 -0.0324
 6937W        W22746   3.162  17.572  12.680  0.3194  0.0928 -0.1403
 6938W        W22747  13.901   2.778   2.652  0.3543 -0.1271  0.1169
 6939W        W22748   6.596   2.299   3.710 -0.1525 -0.1454  0.0023
 6940W        W22749   6.671   7.825  14.170  0.2647 -0.0191  0.1696
 6941W        W22750  14.280   2.344  15.762 -0.0647  0.0598 -0.0801
 6942W        W22751  17.640   5.379   4.632 -0.2508 -0.1278 -0.0059
 6943W        W22752  15.052   0.647   1.477 -0.0142 -0.0899 -0.3137
 6944W        W22753   0.489   1.862  16.495  0.2399  0.0289 -0.0676
 6945W        W22754  17.025  10.111  12.712  0.0682 -0.2792  0.0852
 6946W        W22755  10.588  16.920  16.073 -0.3915  0.1122 -0.0147
 6947W        W22756   3.160   5.804   5.055  0.1871  0.0302 -0.4263
 6948W        W22757  12.943  16.125  11.923  0.0880 -0.0408 -0.1680
 6949W        W22758   3.569  13.078   0.905  0.2309 -0.1243  0.2738
 6950W        W22759   9.764   1.458   4.621  0.2434  0.1177  0.0147
 6951W        W22760  15.203   7.991  12.975  0.0154  0.0047 -0.3784
 6952W        W22761  11.945   3.991   2.562 -0.0581  0.4817 -0.2279
 6953W        W22762  10.915   8.402   2.683 -0.1569 -0.1680 -0.0066
 6954W        W22763  13.766  17.066   1.348  0.0946 -0.0364 -0.0609
 6955W        W22764   8.769  13.229  11.836  0.0795  0.0151 -0.2720
 6956W        W22765   4.037   4.345  16.303  0.1719  0.2830  0.3834
 6957W        W22766   3.388  10.645  11.233 -0.0877  0.0990  0.0100
 6958W        W22767  10.338   4.372   2.831  0.0546  0.1522  0.1230
 6959W        W22768   9.256  16.792   5.866 -0.1128 -0.2481  0.0163
 6960W        W22769   9.329   4.415   4.287 -0.1275  0.0955  0.2354
 6961W        W22770  15.699   3.760  16.573 -0.1613 -0.2765  0.2240
 6962W        W22771  16.082  12.498   5.570  0.3314  0.2192 -0.1303
 6963W        W22772   7.822  16.490   3.169  0.0930 -0.1780  0.3315
 6964W        W22773   6.521  14.782   1.273 -0.3928  0.1474 -0.0505
 6965W        W22774  15.692   5.082  15.997 -0.0971 -0.0877  0.2355
 6966W        W22775   0.272  14.265   4.607 -0.0946 -0.2279  0.0702
 6967W        W22776  13.860   9.544   2.136  0.3131 -0.1108 -0.2041
 6968W        W22777   2.480   2.503  12.103  0.1311 -0.1813 -0.1636
 6969W        W22778  16.981   9.520  14.031 -0.0485  0.1438 -0.2402
 6970W        W22779  15.073   8.715  16.210  0.1795  0.2660  0.0369
 6971W        W22780  17.025  14.235   3.907  0.0065  0.1274 -0.1031
 6972W        W22781   4.958  11.473   0.476 -0.2987  0.0152 -0.1381
 6973W        W22782  16.574  12.497   0.262  0.0237 -0.0914  0.0105
 6974W        W22783   5.929  15.667   0.663  0.0595 -0.0207  0.0930
 6975W        W22784  13.009   2.498   1.499  0.0576 -0.0195  0.0254
 6976W        W22785   1.623  11.610  16.525 -0.2877  0.1523  0.0606
 6977W        W22786   3.547  11.767   5.146  0.3884 -0.2522  0.0291
 6978W        W22787  14.543  15.320  13.753  0.0581  0.1060 -0.3503
 6979W        W22788   0.475   1.324  12.461 -0.0437 -0.2608 -0.1874
 6980W        W22789  11.567   7.975   3.233 -0.0920  0.3507 -0.1372
 6981W        W22790   8.731  15.244  13.877  0.2643 -0.1286  0.0520
 6982W        W22791  11.635   5.253   5.281  0.1299  0.1141 -0.0404
 6983W        W22792   1.588   4.513  11.152 -0.1589 -0.1118  0.0324
 6984W        W22793  13.689   1.978  16.446 -0.3541 -0.3343  0.0490
 6985W        W22794   8.656   4.880   2.541  0.3118  0.0698 -0.0534
 6986W        W22795   2.326   6.359  13.098  0.1577  0.0024 -0.2622
 6987W        W22796  13.393   1.092  13.697 -0.2797 -0.0415 -0.0507
 6988W        W22797   5.600   7.969   0.413 -0.6237 -0.0945 -0.3046
 6989W        W22798  14.949   6.183  14.942 -0.0060 -0.0053  0.2041
 6990W        W22799   9.202   2.539  14.160  0.1255 -0.3082 -0.3707
 6991W        W22800  15.408  14.740   1.199  0.2128  0.0160  0.0965
 6992W        W22801   4.367  11.599   3.610 -0.0773 -0.2969 -0.1151
 6993W        W22802   8.550  10.280  11.406  0.0653  0.0023 -0.3657
 6994W        W22803  13.036   8.877   3.512  0.1426 -0.0436  0.1642
 6995W        W22804   8.816   1.328   1.739  0.0810 -0.1278  0.0363
 6996W        W22805   3.518   1.360  15.352 -0.2438  0.0105 -0.2015
 6997W        W22806  11.559  13.771  15.606  0.0854  0.0511 -0.1009
 6998W        W22807  13.223  11.988   3.132 -0.0407 -0.1590 -0.2464
 6999W        W22808  10.730   8.325  13.976  0.1539  0.0452  0.2018
 7000W        W22809  14.150  13.916  11.975  0.4168 -0.0508 -0.0513
 7001W        W22810   3.745  12.441  14.330 -0.0915 -0.1342  0.0033
 7002W        W22811   6.396  13.779  11.700  0.1434 -0.0609 -0.3718
 7003W        W22812  10.640  15.100   1.571  0.0862 -0.0574 -0.3928
 7004W        W22813   6.990   7.346   0.226 -0.0243  0.1293  0.0665
 7005W        W22814  12.282  10.208  11.988  0.2134 -0.1749 -0.0751
 7006W        W22815   8.324   8.487   4.341 -0.0083 -0.2434  0.1913
 7007W        W22816   1.392   5.434   1.093  0.0763 -0.3020  0.0716
 7008W        W22817   9.998   2.041  16.346  0.4436  0.0289 -0.3125
 7009W        W22818   0.116   4.554   3.878  0.2118 -0.2272 -0.0946
 7010W        W22819   3.051  14.814   2.617  0.2668  0.1591  0.2114
 7011W        W22820  10.300  10.702  14.990  0.0776 -0.1616  0.1628
 7012W        W22821   9.022   1.877   4.925 -0.1349  0.0167  0.0890
 7013W        W22822   8.501  17.781   3.568  0.0127 -0.2831 -0.2655
 7014W        W22823  14.339  10.879  16.577 -0.5054  0.1121  0.1566
 7015W        W22824   8.878   8.131   0.992  0.2089  0.1043  0.0121
 7016W        W22825   8.521   4.890   4.296  0.0402  0.3806  0.1032
 7017W        W22826   0.156  10.369  15.307 -0.0293 -0.0207  0.0740
 7018W        W22827   8.949   0.813   0.175 -0.0230 -0.0578  0.3053
 7019W        W22828  13.943   3.832  10.722  0.1234  0.1072  0.2135
 7020W        W22829  17.009  14.931   3.538  0.2765 -0.0589  0.0373
 7021W        W22830  12.650  15.345   1.605  0.0554 -0.1846 -0.0291
 7022W        W22831   2.662   1.915  12.970 -0.1707 -0.1023  0.2463
 7023W        W22832  16.118   4.484   3.432  0.0700 -0.2207  0.0672
 7024W        W22833  17.014   2.796  14.632  0.3073  0.1219  0.1879
 7025W        W22834   3.875   1.597  13.868 -0.2659  0.1625 -0.1067
 7026W        W22835   5.962  17.473  12.844 -0.2307 -0.4086  0.3902
 7027W        W22836   6.691  17.213   0.316  0.1718  0.1070 -0.1413
 7028W        W22837  12.395  14.442  15.554  0.1689  0.2995 -0.0415
 7029W        W22838  13.933  14.814  16.149  0.0913 -0.0341 -0.1265
 7030W        W22839  13.411   3.057   5.273  0.0288  0.0699 -0.3487
 7031W        W22840  14.814  17.543   1.687  0.0897  0.0070 -0.1031
 7032W        W22841   1.002  17.894   1.468 -0.1981  0.1554 -0.0907
 7033W        W22842   6.537   8.492   2.642  0.0220 -0.1179  0.3281
 7034W        W22843  13.507   2.038  14.746 -0.0240 -0.1071 -0.1052
 7035W        W22844  16.073   0.860  14.779  0.0500 -0.1254  0.0379
 7036W        W22845   4.693  11.917  15.556 -0.2978  0.0179  0.0602
 7037W        W22846  13.650   0.406  15.461  0.0800  0.2526  0.0786
 7038W        W22847  13.276   8.410   6.010 -0.0579 -0.2340 -0.1410
 7039W        W22848  15.533   6.800   0.558 -0.2199 -0.1700  0.0788
 7040W        W22849  12.553  11.463   4.424  0.1482 -0.0378 -0.1712
 7041W        W22850  14.576  11.303  16.676 -0.3027 -0.2746  0.0056
 7042W        W22851  13.901  14.307  11.718  0.3608 -0.0205 -0.0914
 7043W        W22852  15.403   8.717  12.202  0.0530 -0.2144  0.2185
 7044W        W22853   3.144   9.882  12.790 -0.0607  0.1094 -0.1235
 7045W        W22854   4.705   5.261   3.610  0.0102 -0.0009 -0.2313
 7046W        W22855   9.112  10.291  15.633 -0.0397 -0.1043  0.0673
 7047W        W22856   4.040   4.898  16.265 -0.2583 -0.0441 -0.0832
 7048W        W22857   3.602   9.465   2.124  0.1814  0.0993 -0.2237
 7049W        W22858   6.548  15.081  12.824 -0.0556 -0.2020 -0.1252
 7050W        W22859   8.511   0.812  14.540 -0.0990 -0.1305 -0.1202
 7051W        W22860  12.167   7.765   0.763 -0.3773  0.1733  0.1779
 7052W        W22861  15.356  10.880   1.883  0.1217  0.0880 -0.0259
 7053W        W22862   9.839   4.316  12.412 -0.0123 -0.1501  0.3011
 7054W        W22863  17.452   9.381  13.899  0.2372  0.0031  0.1371
 7055W        W22864   5.383  14.397  13.520  0.0314 -0.0288 -0.3111
 7056W        W22865   5.318   1.439  11.900  0.1429  0.0377  0.1048
 7057W        W22866  10.164  12.884   5.205  0.2584  0.0625  0.1128
 7058W        W22867  17.684  13.309   0.228  0.0876  0.2276 -0.3271
 7059W        W22868   7.690   1.073   6.535 -0.1687 -0.0396  0.2758
 7060W        W22869   1.473  14.686   4.477 -0.0628 -0.1781  0.0164
 7061W        W22870   1.744  10.316  16.332  0.1525  0.0843 -0.0826
 7062W        W22871   1.072  13.283  13.464  0.1794 -0.0846  0.0796
 7063W        W22872  11.259  12.283   3.083  0.2749  0.0718 -0.0180
 7064W        W22873   9.795   6.225  11.815 -0.2568  0.0557  0.2486
 7065W        W22874   4.117   0.510  16.511  0.0469  0.0603 -0.0594
 7066W        W22875   4.552   9.550   4.172 -0.2446  0.2933  0.2961
 7067W        W22876   2.843  14.921  13.303  0.0139 -0.0152 -0.1968
 7068W        W22877  11.682  13.348   1.366 -0.3550 -0.0289 -0.1872
 7069W        W22878   3.914   7.713   5.376  0.0276 -0.0437  0.0879
 7070W        W22879  13.645  17.172  13.707  0.1537 -0.2076 -0.1801
 7071W        W22880  12.877   6.151   4.794  0.4083 -0.1332 -0.2809
 7072W        W22881   6.282   5.694   5.427  0.2321  0.0789  0.1205
 7073W        W22882   4.117  15.910  13.741  0.2390  0.1081 -0.1082
 7074W        W22883  10.273  12.963   0.688 -0.1348 -0.1023  0.0767
 7075W        W22884   9.931   0.833  13.379  0.1286 -0.0426 -0.4150
 7076W        W22885  11.320  11.431  15.897 -0.0342 -0.1376  0.0240
 7077W        W22886   8.921  14.463  14.914  0.0812  0.1292 -0.0958
 7078W        W22887   4.347   7.368  13.802  0.0076  0.0545 -0.0876
 7079W        W22888  17.825   9.938  13.834 -0.0607 -0.2620 -0.2812
 7080W        W22889   6.689   3.243   2.182 -0.0381 -0.1262 -0.2901
 7081W        W22890   8.509   8.765  11.849 -0.4631 -0.1936 -0.1954
 7082W        W22891  15.771  15.932  13.831 -0.0910  0.2409  0.0709
 7083W        W22892   0.046   7.420   4.286  0.0189  0.0155  0.1300
 7084W        W22893   9.656  10.277  13.426 -0.6534  0.1433  0.0993
 7085W        W22894   2.343   9.659  12.565  0.2291 -0.1310  0.0959
 7086W        W22895   2.465  16.426   6.313 -0.0472  0.0912 -0.2009
 7087W        W22896  17.204   5.933   3.730  0.0218 -0.1775 -0.0232
 7088W        W22897   3.558   6.143  12.251 -0.1919 -0.0368 -0.1034
 7089W        W22898  17.959  15.825  11.884 -0.0851  0.3035  0.2532
 7090W        W22899   0.855   0.801  11.138 -0.0883 -0.1700 -0.2628
 7091W        W22900   9.763  14.855   5.003  0.1807  0.0720 -0.0120
 7092W        W22901   7.812  17.086  13.238  0.4311  0.1632  0.2136
 7093W        W22902  10.863  14.527   2.688 -0.1105  0.0351  0.1306
 7094W        W22903   5.993  17.023   4.738  0.2125  0.2850 -0.1810
 7095W        W22904  15.168  11.556   2.495 -0.2488  0.0095 -0.0878
 7096W        W22905   2.726   0.709   1.857  0.0562 -0.0623 -0.0073
 7097W        W22906   6.745   4.976   2.858 -0.1541 -0.1771  0.1387
 7098W        W22907   0.898   0.524   0.065  0.1348  0.0699  0.1104
 7099W        W22908  17.508  14.265  12.070  0.0985 -0.1708  0.1749
 7100W        W22909   0.909   3.188  13.988  0.1014 -0.0562 -0.0792
 7101W        W22910  14.458  11.563   5.772 -0.0948  0.2655  0.0789
 7102W        W22911   8.648   8.839  16.623 -0.3166  0.1830  0.1084
 7103W        W22912  16.087   1.460  16.585  0.3908 -0.2101  0.0380
 7104W        W22913   8.869  12.647   5.034 -0.3578 -0.0184  0.0291
 7105W        W22914  11.457  16.141   4.765  0.0902  0.0931  0.1615
 7106W        W22915  14.916   5.291  15.481 -0.0477  0.0645  0.3089
 7107W        W22916  15.222  14.834  13.495  0.0391 -0.2013 -0.0068
 7108W        W22917  11.643   1.771  16.581  0.1222 -0.0619 -0.0353
 7109W        W22918  12.652  13.726   1.639 -0.1335 -0.0237  0.1961
 7110W        W22919  17.748  11.582   0.112 -0.3472  0.1046  0.0559
 7111W        W22920  14.148  13.822  15.138  0.4038 -0.0134 -0.0385
 7112W        W22921   7.660   4.859  11.659  0.0771 -0.1526 -0.3435
 7113W        W22922  16.691  13.079  11.752 -0.1899 -0.3386 -0.0215
 7114W        W22923   9.816   4.652  12.807 -0.0808  0.0808  0.2683
 7115W        W22924   6.213   6.427   1.788  0.1294 -0.2952 -0.0137
 7116W        W22925   2.584   6.592  13.520  0.1598 -0.1243 -0.1715
 7117W        W22926   0.854   8.410   4.605  0.0492  0.0035 -0.0821
 7118W        W22927   8.890   8.426   2.021 -0.0231 -0.0353 -0.1563
 7119W        W22928  12.272   2.294   0.984  0.1891 -0.0884 -0.1272
 7120W        W22929  16.176  10.657  14.456  0.0881  0.2830 -0.4356
 7121W        W22930   6.525  15.551  16.018  0.0115  0.1788 -0.0410
 7122W        W22931  11.715  16.691  12.018  0.1277  0.2588 -0.0185
 7123W        W22932   0.677   4.144   4.649 -0.1817 -0.0661 -0.1580
 7124W        W22933  11.895  10.918  13.284 -0.3330  0.3116 -0.3945
 7125W        W22934  11.188  14.068  13.456  0.1555  0.1453  0.2157
 7126W        W22935  17.404  16.487  12.233  0.0574  0.0776  0.0274
 7127W        W22936  11.475   5.405  14.680 -0.2819  0.2172 -0.3545
 7128W        W22937  13.706   1.887   5.867  0.0152  0.0344  0.0852
 7129W        W22938   0.945  14.083  13.562  0.1774 -0.0116  0.1905
 7130W        W22939  14.692   4.723   1.167 -0.2981 -0.1115  0.1409
 7131W        W22940   8.453   6.700   3.737 -0.0326  0.2118 -0.0911
 7132W        W22941   8.078  13.973  14.103 -0.0787  0.1520 -0.0915
 7133W        W22942  12.444  14.178   5.359 -0.1765 -0.1573  0.1306
 7134W        W22943   8.221   4.924  11.662  0.0349  0.1098 -0.2174
 7135W        W22944   6.221   2.122   4.112  0.0014 -0.1858  0.0710
 7136W        W22945   0.836  10.320  13.244 -0.2488  0.0077  0.0941
 7137W        W22946  11.423   2.022  14.672 -0.0347 -0.1382  0.0233
 7138W        W22947  15.474  13.551   5.472 -0.2260  0.1112  0.1467
 7139W        W22948  12.516   0.051  13.508 -0.1672 -0.1378  0.1111
 7140W        W22949  15.838  16.181  14.250  0.0846 -0.1012  0.0869
 7141W        W22950   2.313   4.692  11.913 -0.0652  0.0289 -0.2993
 7142W        W22951   0.719   6.060   2.499  0.1118  0.0154 -0.0324
 7143W        W22952   0.435   7.543  15.944  0.0349 -0.1972  0.0031
 7144W        W22953   0.736   1.705   2.630  0.0361  0.1734  0.0586
 7145W        W22954  12.289   3.728  16.332 -0.4508 -0.0289  0.2456
 7146W        W22955  16.629   7.135  12.153 -0.0692  0.1780 -0.0674
 7147W        W22956  12.889  17.169  15.407  0.2229 -0.1318 -0.1705
 7148W        W22957  14.282  12.147   4.416  0.0061  0.0844  0.1389
 7149W        W22958  11.166   3.387   1.811 -0.0404  0.0229 -0.1797
 7150W        W22959   2.580  12.821   0.435 -0.1196  0.2614  0.0171
 7151W        W22960  11.665   0.679   2.311 -0.0061  0.0748 -0.0781
 7152W        W22961  11.039   5.295  14.986 -0.2541 -0.1638  0.0998
 7153W        W22962   3.374  14.211   5.305  0.0952 -0.0186  0.3105
 7154W        W22963   7.649  16.841  12.799  0.0503  0.0438 -0.1407
 7155W        W22964  11.786  10.303  14.420  0.5284  0.0831  0.1474
 7156W        W22965   9.473  12.879   1.090  0.4833  0.1708  0.2018
 7157W        W22966  15.490   0.127  14.315 -0.2832  0.3310 -0.1238
 7158W        W22967   7.290   7.674  14.852 -0.0858  0.0347 -0.0389
 7159W        W22968  15.171   3.282   4.508 -0.0751 -0.0208 -0.3066
 7160W        W22969  11.555   0.777  14.051  0.1451 -0.1460  0.3980
 7161W        W22970  12.484  15.181  16.287  0.1617 -0.2929 -0.2527
 7162W        W22971   6.433  10.796  15.616  0.0004 -0.1187 -0.3320
 7163W        W22972   2.372  12.094  16.448  0.2850  0.2025  0.0671
 7164W        W22973   7.231   7.060  12.049 -0.0562  0.0956  0.0614
 7165W        W22974   4.534   5.032   4.512 -0.0264  0.2335 -0.1827
 7166W        W22975   4.884   2.269   2.107 -0.0606  0.1696 -0.1193
 7167W        W22976   1.348  13.628   0.728  0.0896  0.0595  0.0129
 7168W        W22977   7.745  14.149  15.492 -0.0089  0.2769  0.0758
 7169W        W22978   3.143   6.932   4.906  0.0255  0.2699 -0.1332
 7170W        W22979  13.831   2.745   5.864 -0.1286 -0.2444 -0.2500
 7171W        W22980   6.489   8.831   2.258 -0.1467 -0.3815  0.1331
 7172W        W22981   1.644   9.991  15.318  0.2235  0.1837 -0.1369
 7173W        W22982   4.658  10.521   3.796 -0.2118 -0.3415 -0.0378
 7174W        W22983   3.517   0.248   1.994 -0.2800  0.1729 -0.0043
 7175W        W22984  16.947   2.691   2.815  0.0089 -0.0764  0.0050
 7176W        W22985  17.760  11.596  15.717  0.1729  0.1304  0.1266
 7177W        W22986   5.526   1.187   2.678 -0.1188 -0.0299 -0.2382
 7178W        W22987  10.590   4.621  16.082 -0.1784 -0.2250 -0.0919
 7179W        W22988  14.273  10.664  14.526 -0.2292 -0.3148  0.2895
 7180W        W22989  14.729   5.612   4.825  0.2375  0.0368  0.1229
 7181W        W22990   1.097   1.650   3.048 -0.0315  0.1294  0.3351
 7182W        W22991   7.138   5.144   0.538 -0.0739 -0.1129 -0.3116
 7183W        W22992  14.477   7.900  13.788 -0.2734  0.1094  0.0658
 7184W        W22993  12.846  14.120   0.342 -0.0074  0.1968 -0.2845
 7185W        W22994   9.040  12.417   1.979  0.2536 -0.1198 -0.0376
 7186W        W22995  15.697   3.504   4.484 -0.3265  0.1715  0.1370
 7187W        W22996  11.555   4.453   3.770 -0.0411  0.0160  0.2062
 7188W        W22997   6.952  17.237  12.129  0.0297 -0.0305 -0.2520
 7189W        W22998  13.799   4.772   2.484  0.1420  0.1463 -0.2369
 7190W        W22999   8.352  13.876  14.530 -0.1083  0.3118  0.0522
 7191W        W23000  16.526   0.455   5.911  0.1116 -0.2896 -0.0354
 7192W        W23001   1.508  11.094   1.035 -0.0931  0.1251  0.0360
 7193W        W23002  12.121   7.375  13.252  0.2506  0.0743  0.0568
 7194W        W23003   2.334   2.948   5.758  0.0409  0.0052  0.0042
 7195W        W23004  15.336   8.910   0.486  0.0475 -0.2678 -0.1289
 7196W        W23005   0.442  14.931   1.835  0.0852 -0.1025  0.1532
 7197W        W23006   8.314  12.530   0.656 -0.0830  0.2246 -0.0153
 7198W        W23007   0.557  11.376   4.368  0.3968  0.1300 -0.0036
 7199W        W23008  10.093   3.700   5.932  0.0763  0.3686  0.1763
 7200W        W23009  17.491   9.134   4.236  0.1971 -0.3052 -0.0802
 7201W        W23010  10.044   7.790   0.870 -0.3008 -0.2575  0.0655
 7202W        W23011  15.922  13.940   4.661 -0.0284  0.2947 -0.0093
 7203W        W23012  12.407  14.711   5.184 -0.0785 -0.2345 -0.1293
 7204W        W23013   1.725   2.456  16.000 -0.1446  0.2067 -0.0001
 7205W        W23014  17.949  17.560   2.669 -0.0151 -0.0807  0.0749
 7206W        W23015  11.235   5.882   2.223 -0.1903  0.1612  0.0940
 7207W        W23016   3.518   8.036  12.725 -0.1531  0.0787 -0.3558
 7208W        W23017  11.933   1.319  12.122 -0.3370 -0.0678 -0.1437
 7209W        W23018  11.881  12.479   3.909  0.3165  0.0433 -0.0378
 7210W        W23019  17.102  16.448   2.530  0.1984  0.0132  0.0018
 7211W        W23020  15.043   0.795  13.467  0.1609  0.3911 -0.0152
 7212W        W23021  12.150   8.884  13.686  0.0316  0.3361  0.2780
 7213W        W23022  17.471   5.914  12.375  0.3853  0.2484  0.0178
 7214W        W23023  12.483  16.013  14.426 -0.0756  0.1007  0.0462
 7215W        W23024  13.506  13.949   4.186  0.1971 -0.2810 -0.0005
 7216W        W23025   1.913   0.141   3.605  0.4449  0.0932 -0.0473
 7217W        W23026   8.270  13.393  13.212 -0.1180 -0.3447  0.2134
 7218W        W23027   9.902   3.132   2.894  0.0447 -0.0156  0.2089
 7219W        W23028  15.729  16.422   1.187  0.0868  0.0983  0.0927
 7220W        W23029  16.817   6.949  16.176 -0.0777 -0.0552 -0.4071
 7221W        W23030   1.168   2.470  11.248  0.0595  0.1791 -0.1489
 7222W        W23031   8.647   8.880   3.495 -0.0317 -0.1919 -0.1912
 7223W        W23032   5.552   4.956  15.429 -0.1308 -0.0643 -0.0452
 7224W        W23033  16.178  14.340  11.917  0.1958 -0.0320  0.0771
 7225W        W23034   0.136  14.998   0.656  0.2238 -0.2001  0.2054
 7226W        W23035  12.580   8.625  14.657 -0.5086  0.1425  0.1149
 7227W        W23036  10.710   2.618   4.834  0.0765 -0.0015 -0.0466
 7228W        W23037  11.505   8.507   3.299  0.1036 -0.0709 -0.0221
 7229W        W23038   7.214  16.718  16.226  0.0695 -0.0240 -0.2922
 7230W        W23039  12.768   5.465   4.728 -0.1441  0.3971 -0.2616
 7231W        W23040  15.471  16.644  13.815 -0.0381 -0.1058  0.0960
 7232W        W23041   2.177   9.508   4.099  0.0256  0.1672  0.3455
 7233W        W23042   4.088  11.688  12.505 -0.1712  0.0472 -0.1310
 7234W        W23043   2.663  14.540   2.390  0.1212 -0.2339 -0.1521
 7235W        W23044   4.769   9.902  14.189 -0.2013  0.1002  0.0641
 7236W        W23045   0.594   2.159   0.723  0.0040 -0.0914 -0.2368
 7237W        W23046   5.467  17.778   3.995 -0.0575 -0.1661 -0.0127
 7238W        W23047   5.291   8.343  10.876 -0.1465  0.2571  0.0623
 7239W        W23048   6.225   8.469   1.482  0.3429  0.1040 -0.2001
 7240W        W23049   4.003   1.142  12.879 -0.0056 -0.2147 -0.1462
 7241W        W23050  17.671  11.258  16.308 -0.0918  0.0623 -0.1553
 7242W        W23051  10.443   8.730  15.351 -0.0168  0.0180 -0.0138
 7243W        W23052  13.965   8.090  13.524  0.0602 -0.1281  0.0993
 7244W        W23053  14.165  10.831  11.428  0.1154 -0.1215 -0.0999
 7245W        W23054   5.840   7.906  14.891  0.1346  0.3472 -0.0752
 7246W        W23055  17.843  14.954   3.021  0.2013 -0.0490  0.0538
 7247W        W23056   4.370  17.737  12.948 -0.3753  0.1461 -0.1421
 7248W        W23057  15.262   2.169  12.757  0.2394  0.1914  0.2969
 7249W        W23058   3.715   0.816   1.910 -0.0881  0.0676  0.0970
 7250W        W23059   0.187  17.817  16.393  0.0328 -0.1969 -0.0343
 7251W        W23060   8.278   3.690  14.849 -0.3657  0.0576 -0.0784
 7252W        W23061  12.944  15.145   1.959 -0.0260  0.1742 -0.1371
 7253W        W23062   0.834  17.678  10.934 -0.0215  0.0364  0.2577
 7254W        W23063   4.513   5.096  15.944  0.3027  0.3154  0.1371
 7255W        W23064   2.520   8.262  12.100 -0.1637  0.0180  0.0363
 7256W        W23065  14.886  10.179   3.430 -0.1980 -0.1255 -0.2170
 7257W        W23066  16.253   8.863   4.831  0.3280  0.2259  0.0848
 7258W        W23067   3.005   6.325  12.431 -0.1774  0.2279 -0.2775
 7259W        W23068  10.042  11.299   4.494 -0.2480 -0.3409 -0.1024
 7260W        W23069  14.675   1.700   0.873  0.2824  0.1981 -0.1000
 7261W        W23070   3.124   1.482   4.949 -0.0001 -0.2900  0.1236
 7262W        W23071   7.628   0.950  15.823  0.3607 -0.1068 -0.2333
 7263W        W23072   5.840   9.462  13.115  0.0525  0.0193  0.0075
 7264W        W23073   8.378  16.050  15.159 -0.0519 -0.3869 -0.1173
 7265W        W23074   1.143   7.170  15.680  0.2588  0.1504 -0.0787
 7266W        W23075   2.952  16.685  15.563  0.0525 -0.0887 -0.3455
 7267W        W23076  13.350  10.483   4.902 -0.3402 -0.3189  0.0385
 7268W        W23077   5.232   2.940   5.193  0.1384  0.0388  0.1124
 7269W        W23078   8.586   8.040   1.850 -0.0829  0.4174 -0.1223
 7270W        W23079   5.163   6.451  11.721  0.0383 -0.1001  0.3045
 7271W        W23080   7.751  13.935   4.845 -0.1900 -0.1404 -0.1387
 7272W        W23081  11.095   2.806  16.262 -0.1906 -0.1270  0.0661
 7273W        W23082  13.885  15.969  11.867 -0.1217 -0.2827 -0.0589
 7274W        W23083   6.267  16.893   0.102 -0.0752  0.3133  0.0837
 7275W        W23084  17.644   2.373   4.472  0.3449 -0.2350  0.0235
 7276W        W23085  11.927   9.553   0.186 -0.2191  0.0285 -0.0430
 7277W        W23086   0.628   8.073  14.693 -0.0219  0.1830 -0.3353
 7278W        W23087   1.679  16.389  12.823 -0.1569 -0.2102  0.0033
 7279W        W23088  13.987   0.829   1.142 -0.1756 -0.3075  0.0514
 7280W        W23089  15.444  11.468  13.611  0.2317 -0.1945  0.0754
 7281W        W23090   5.255   0.699  12.916  0.1408 -0.0075  0.2090
 7282W        W23091  11.257   9.366   4.687  0.1792 -0.0871  0.0103
 7283W        W23092  15.925  12.670   1.381  0.2223 -0.0988 -0.1733
 7284W        W23093   1.889  14.658  11.584  0.0120 -0.0487 -0.0299
 7285W        W23094  10.402   4.548  14.762 -0.0400 -0.1021 -0.0497
 7286W        W23095  15.995  10.685  11.777  0.0390 -0.0491  0.0963
 7287W        W23096   9.054   2.230   3.618 -0.1869 -0.0404 -0.1342
 7288W        W23097   0.340  14.664   4.972  0.0244 -0.0916  0.0705
 7289W        W23098  10.538   4.418   1.664 -0.0782  0.0955  0.1683
 7290W        W23099  14.286   3.930   5.304 -0.2151  0.0093  0.1202
 7291W        W23100  10.285  14.899   6.176  0.2108  0.1761  0.0716
 7292W        W23101  14.802   2.405  11.879 -0.0844 -0.0139  0.0842
 7293W        W23102  12.564  14.732  16.466 -0.2946  0.1894 -0.1598
 7294W        W23103   0.485  12.605   0.853 -0.0597 -0.0863 -0.1153
 7295W        W23104   6.789  12.629   4.834  0.2529  0.1570  0.3033
 7296W        W23105  13.543  14.918  13.329 -0.1665  0.0561  0.1722
 7297W        W23106   3.341   3.450  13.590  0.0683  0.0148 -0.0006
 7298W        W23107  17.349   5.875  16.029  0.1323  0.2142  0.2351
 7299W        W23108   7.808  16.231  13.908 -0.1866 -0.0836  0.0254
 7300W        W23109  16.745   6.289  14.019  0.5204 -0.1538 -0.0440
 7301W        W23110   0.432   3.439   2.430  0.0622  0.0555 -0.3726
 7302W        W23111   9.388  11.192   2.309 -0.1533  0.2340 -0.2190
 7303W        W23112   9.299  14.145  15.100 -0.1290  0.1954 -0.3307
 7304W        W23113   4.359  17.518   1.729 -0.1848  0.3073  0.0140
 7305W        W23114   7.246   1.769  12.700  0.1319 -0.2499  0.1646
 7306W        W23115  13.022  11.185   2.695 -0.0970  0.2024  0.1098
 7307W        W23116  16.050   5.809  14.273  0.1552 -0.2019  0.2334
 7308W        W23117  12.415   3.319  13.406  0.2233 -0.1552 -0.1711
 7309W        W23118   1.158  15.914   2.612 -0.0962 -0.3003 -0.2155
 7310W        W23119  14.867   5.197  14.986 -0.2865 -0.1299 -0.1355
 7311W        W23120   5.456  10.677   4.531 -0.4504 -0.0525 -0.2432
 7312W        W23121  17.353   8.332   4.087 -0.2699 -0.1324  0.0222
 7313W        W23122   6.635  15.878   3.930  0.1298 -0.1171 -0.2660
 7314W        W23123   6.014  15.172   0.612 -0.2913 -0.4823 -0.2144
 7315W        W23124   5.560   7.674   3.127 -0.4566  0.1619  0.3045
 7316W        W23125   7.926  15.318  11.349 -0.0725  0.1068 -0.3050
 7317W        W23126  11.454  16.740  13.842 -0.0526 -0.1390 -0.0996
 7318W        W23127   4.489   4.117  13.226 -0.1323  0.0081 -0.0706
 7319W        W23128   7.944   4.393  15.936 -0.1688  0.5005 -0.0049
 7320W        W23129   5.492  10.070   0.722 -0.0076  0.0911 -0.2315
 7321W        W23130  13.874   1.333   1.161 -0.2067  0.0560 -0.1477
 7322W        W23131  14.399  11.262   3.213 -0.0775 -0.0671 -0.0376
 7323W        W23132  11.182   1.649   3.233  0.0113 -0.0001  0.1279
 7324W        W23133   5.326  12.112  12.915  0.2389 -0.4129  0.3468
 7325W        W23134   1.242   9.704  12.612  0.3116  0.0081 -0.3065
 7326W        W23135  11.579   4.027   0.215 -0.1973 -0.0229 -0.1983
 7327W        W23136   0.562   6.591   5.172 -0.3076 -0.1414 -0.0115
 7328W        W23137   0.418   5.023   3.812  0.0300  0.0970 -0.2116
 7329W        W23138   4.558   9.921   3.724  0.1908 -0.0773 -0.2049
 7330W        W23139   6.281   9.355   3.398  0.0611 -0.2354  0.1913
 7331W        W23140  13.716   7.999  15.678  0.2142  0.2913 -0.0755
 7332W        W23141   3.659   5.686  12.468  0.1665 -0.0836  0.1403
 7333W        W23142   0.675  12.871  16.677  0.1440 -0.0001 -0.2374
 7334W        W23143   1.033  12.262   2.394  0.4539 -0.2098 -0.3617
 7335W        W23144   6.057   8.212   5.341 -0.2083 -0.1777  0.2456
 7336W        W23145   9.550  16.195   4.417 -0.2437  0.0990  0.0863
 7337W        W23146   9.486  17.581   4.367 -0.0821  0.2540 -0.1543
 7338W        W23147  12.932   7.472   4.725 -0.4601  0.1144 -0.2515
 7339W        W23148   4.583   6.417  11.115  0.1306  0.0508  0.2336
 7340W        W23149  14.029  11.855   5.913 -0.1225 -0.0793  0.4759
 7341W        W23150   0.652   8.637  13.347  0.1261  0.0019 -0.0696
 7342W        W23151   7.867   0.341   5.587 -0.1002  0.1260  0.0027
 7343W        W23152  13.754  11.432  14.948 -0.1110  0.0854 -0.1582
 7344W        W23153  10.265  13.348  12.961 -0.1022  0.0479  0.0144
 7345W        W23154   0.505  14.540  12.229  0.1091 -0.0221 -0.1409
 7346W        W23155   2.372   7.564   2.682 -0.0694 -0.0513  0.0339
 7347W        W23156   7.482   5.917   1.491  0.1332 -0.1705  0.1088
 7348W        W23157   5.797   7.524  12.400 -0.1276 -0.3295  0.0364
 7349W        W23158   3.218  12.563  15.090 -0.3861  0.2285 -0.4034
 7350W        W23159   3.228  12.136   3.189  0.1651  0.0590 -0.1420
 7351W        W23160  12.337  15.727  13.340 -0.3181 -0.1263 -0.1174
 7352W        W23161   5.319   4.174   3.417 -0.3516  0.0684  0.2003
 7353W        W23162   4.504   2.592   5.673 -0.3615  0.1485 -0.0743
 7354W        W23163  14.680   0.047  12.482 -0.4212  0.2797  0.3442
 7355W        W23164  16.227   3.851   1.453  0.2206  0.3750  0.0613
 7356W        W23165  11.320   6.797  14.482 -0.2676 -0.0143 -0.0905
 7357W        W23166  12.835  11.087  13.333  0.2892  0.2289 -0.0218
 7358W        W23167   3.590   1.770  13.477 -0.0445 -0.1740 -0.1331
 7359W        W23168   9.933   5.330  11.650 -0.2675  0.2212  0.4804
 7360W        W23169   0.342  17.419   4.103 -0.1915 -0.1069  0.1638
 7361W        W23170   3.144   3.480   3.899  0.1558 -0.0252 -0.3769
 7362W        W23171   5.397  13.352  10.181  0.1680 -0.3719  0.0142
 7363W        W23172  15.497  11.711   1.565 -0.1354  0.3534  0.2978
 7364W        W23173  14.026   8.450   3.644  0.3024  0.1099  0.0738
 7365W        W23174   7.528  16.342  15.564 -0.1211 -0.1276  0.0711
 7366W        W23175   0.716  12.789  11.657 -0.3111 -0.0433  0.4059
 7367W        W23176   4.877  14.659   2.042 -0.3960  0.1521  0.1884
 7368W        W23177   6.564  11.070  13.530  0.0268  0.2472  0.3129
 7369W        W23178   1.136   5.203  15.348  0.2104  0.0844 -0.0201
 7370W        W23179   9.336   7.762   2.963  0.0394 -0.2538 -0.1474
 7371W        W23180  15.578  14.985   0.230 -0.0027  0.0717 -0.3085
 7372W        W23181   3.899  15.472  13.555  0.1828  0.0931 -0.0225
 7373W        W23182   7.278   1.292  14.083  0.0336 -0.1361  0.1581
 7374W        W23183   2.129   1.370   4.167 -0.1086 -0.2553 -0.0953
 7375W        W23184  14.953  10.154  13.633  0.1092  0.0728  0.0078
 7376W        W23185   1.460   9.739   0.672  0.0751 -0.0960 -0.0584
 7377W        W23186  12.720  15.135   3.282  0.1798  0.1429  0.0430
 7378W        W23187  11.570   4.634   2.391  0.0981 -0.1299 -0.1897
 7379W        W23188  11.442   7.047   5.734  0.2164 -0.1165 -0.1932
 7380W        W23189   2.282  11.403   3.306  0.0590  0.1432  0.3486
 7381W        W23190   2.003   2.223   5.471 -0.0594 -0.0253 -0.1395
 7382W        W23191  14.503   0.044   1.081 -0.0078  0.1665 -0.1866
 7383W        W23192   3.306  12.099   2.102 -0.1467  0.0943 -0.0805
 7384W        W23193  17.406   5.830  14.992 -0.2323  0.0091 -0.1081
 7385W        W23194   9.044  13.466  14.307  0.1491 -0.0220  0.0536
 7386W        W23195   4.096  11.494   3.969 -0.0959 -0.2220 -0.0308
 7387W        W23196   4.261  11.770  14.037  0.0212 -0.1306  0.0641
 7388W        W23197   4.158  12.290   0.912 -0.1206  0.2212  0.0493
 7389W        W23198  11.300  12.790  13.817  0.0973  0.1951 -0.0269
 7390W        W23199   0.089  17.259  16.442 -0.2626  0.3070  0.2762
 7391W        W23200  11.798   4.778   5.185 -0.0471  0.2958  0.2170
 7392W        W23201   4.064   5.355  16.045 -0.0085 -0.1259 -0.1825
 7393W        W23202   1.004  10.700   3.219  0.1411 -0.1321  0.0421
 7394W        W23203  14.066  12.156   1.967 -0.0591  0.1725  0.0015
 7395W        W23204   7.588   4.959  14.401  0.1518  0.0419 -0.0874
 7396W        W23205   9.601   5.858  13.132  0.0005  0.0881 -0.1252
 7397W        W23206   7.526  10.807   5.633 -0.2601  0.0414 -0.2947
 7398W        W23207   3.069  17.729  10.427 -0.0486 -0.0568 -0.1683
 7399W        W23208  11.440  12.320  13.536  0.1139 -0.2117  0.0754
 7400W        W23209  17.169  14.002   0.397 -0.1424 -0.1276 -0.0815
 7401W        W23210  12.116  12.843  11.105 -0.0068 -0.0247 -0.1956
 7402W        W23211   3.139  15.680  13.887  0.1200 -0.0699 -0.2910
 7403W        W23212  13.099   4.753  12.550 -0.3489 -0.0634  0.0280
 7404W        W23213  16.427   4.238  16.518  0.0212 -0.0590 -0.3013
 7405W        W23214  13.563   7.775  11.166 -0.2423 -0.0525 -0.3531
 7406W        W23215   2.579   9.895   4.080  0.2736  0.0268  0.2505
 7407W        W23216  16.928  17.381   2.246  0.0045  0.1990  0.2491
 7408W        W23217   7.339   4.581  13.699 -0.3527  0.1300  0.0751
 7409W        W23218   8.814   4.349  15.526 -0.0738 -0.1474 -0.0135
 7410W        W23219   8.252  14.577  16.570 -0.4607  0.1249  0.0567
 7411W        W23220  10.709  17.423  14.794  0.1387  0.3065  0.0823
 7412W        W23221   3.349   8.375   2.665  0.1042 -0.4058  0.1596
 7413W        W23222   6.084   7.530   0.208 -0.1102  0.1087 -0.0841
 7414W        W23223  15.832   0.922  12.677  0.1499 -0.2358 -0.1071
 7415W        W23224  16.544   9.806  12.844  0.1392  0.2611 -0.1043
 7416W        W23225   7.821   5.066  16.601  0.0253 -0.1824  0.0339
 7417W        W23226   7.024   0.692   3.758  0.3899 -0.1429 -0.0784
 7418W        W23227  14.601   2.420  13.664 -0.0348  0.0576 -0.0868
 7419W        W23228  12.780   4.563   0.687  0.0661  0.0199 -0.0607
 7420W        W23229  10.852  16.915  13.461 -0.0097  0.1758  0.0850
 7421W        W23230   5.530   2.373   0.840  0.0181 -0.1715  0.0286
 7422W        W23231   5.912   6.463   4.041 -0.0753  0.2431  0.0512
 7423W        W23232   8.512  14.198   4.959  0.1739 -0.0802  0.2865
 7424W        W23233   6.017  17.943   0.279 -0.3890 -0.0674  0.1524
 7425W        W23234  14.709  15.567  14.736  0.0628  0.0216 -0.1327
 7426W        W23235   0.224  10.674   5.460  0.3976  0.1545 -0.1270
 7427W        W23236   9.640  14.938   2.379  0.1192  0.2230  0.1587
 7428W        W23237   8.839   2.827   6.494  0.1221 -0.0807 -0.0210
 7429W        W23238   2.980   8.313  11.881 -0.1539 -0.0179  0.0126
 7430W        W23239  10.739  13.524   4.215  0.0609  0.0519 -0.0913
 7431W        W23240  15.353  16.486   0.496 -0.1022  0.0194  0.0050
 7432W        W23241   8.017  10.615   4.089 -0.2543  0.2770  0.1802
 7433W        W23242   7.129  11.924  12.680 -0.0167 -0.0045  0.0970
 7434W        W23243  13.451   2.790  14.220  0.2223  0.1518  0.0891
 7435W        W23244  14.514   0.588   1.420 -0.3287  0.0931 -0.0576
 7436W        W23245   4.416   8.421   0.288  0.1288  0.4453 -0.2163
 7437W        W23246   2.163   4.549   3.084  0.1226 -0.4197 -0.0670
 7438W        W23247  10.749  12.850  13.621  0.0733  0.0446  0.0312
 7439W        W23248   5.833   7.816   4.390 -0.1737  0.1029 -0.1480
 7440W        W23249   7.150   1.240   3.621  0.1249 -0.1097 -0.2444
 7441W        W23250   5.579  17.153  11.486  0.1008  0.0869  0.3338
 7442W        W23251  17.787  14.873   0.185 -0.1734 -0.2877  0.1900
 7443W        W23252   8.617   1.741   1.957 -0.3705  0.1361  0.2775
 7444W        W23253   6.685   9.570  11.082 -0.2224  0.0230  0.2407
 7445W        W23254  15.269   0.487  15.627 -0.0547 -0.1413 -0.1527
 7446W        W23255   7.689   3.941  15.637 -0.0988  0.2220 -0.1691
 7447W        W23256   8.504   7.516   3.040  0.0175 -0.0517  0.0381
 7448W        W23257   7.254  12.663  16.271 -0.1393 -0.0633 -0.0403
 7449W        W23258  11.360   9.190   1.872 -0.0774  0.0034 -0.2030
 7450W        W23259  17.443   0.426  16.370 -0.0316  0.0363  0.2099
 7451W        W23260  16.859  17.628   4.035  0.2520 -0.0915  0.4798
 7452W        W23261   4.158  15.225  12.749 -0.6244 -0.0273  0.0790
 7453W        W23262  16.837   0.921   1.332  0.0862  0.4322  0.0402
 7454W        W23263  11.341  12.936  14.880  0.0022 -0.1927  0.3361
 7455W        W23264  10.492  12.011  15.212 -0.3801  0.1312 -0.0558
 7456W        W23265  10.033   8.534  15.860  0.2332 -0.2259 -0.2457
 7457W        W23266   0.347   9.009  15.709 -0.0562 -0.5351 -0.0337
 7458W        W23267   6.609   4.657   3.235  0.0123  0.1756 -0.2596
 7459W        W23268  16.467  15.655  11.083 -0.0019  0.0147  0.0269
 7460W        W23269  14.757   7.335   4.141 -0.2605 -0.2328  0.0596
 7461W        W23270  16.931   6.370   5.072 -0.0372  0.0255  0.0404
 7462W        W23271   3.583  12.356   2.932  0.1167 -0.3698 -0.2995
 7463W        W23272  17.454   1.264   0.236 -0.1056  0.0403  0.1057
 7464W        W23273  12.631   8.572   2.714 -0.1593  0.0821  0.2775
 7465W        W23274  15.122   5.956   5.579 -0.2383 -0.0042  0.0040
 7466W        W23275   3.628  16.854  11.313  0.0959 -0.0583  0.0453
 7467W        W23276   8.681  10.651  13.479  0.2355 -0.2701 -0.1696
 7468W        W23277   6.574   5.462  14.869 -0.0851  0.1129 -0.2486
 7469W        W23278   7.221  10.088  14.140 -0.0825  0.0208  0.1893
 7470W        W23279  15.155   9.075  11.957  0.1696  0.0060  0.1631
 7471W        W23280   2.483   5.284  11.157 -0.2233 -0.3494  0.2470
 7472W        W23281   0.023   8.467  16.701 -0.0471  0.2195  0.1619
 7473W        W23282  13.735   5.355   2.708  0.1406 -0.0817 -0.2993
 7474W        W23283   1.448  17.591   1.319  0.4085 -0.1076 -0.0472
 7475W        W23284   6.934   5.997   2.504 -0.2153  0.0196  0.1727
 7476W        W23285   7.926  11.003  11.431  0.1085 -0.2242  0.0495
 7477W        W23286   3.007   9.828  16.168  0.1421 -0.0555  0.1717
 7478W        W23287   1.880   1.036  16.076 -0.0175  0.1859  0.4930
 7479W        W23288   1.304   4.808   3.422 -0.1150 -0.1306 -0.0697
 7480W        W23289  10.959  14.881  16.218 -0.0552 -0.2411 -0.1872
 7481W        W23290   1.607  13.073   3.369 -0.2904  0.0766 -0.0049
 7482W        W23291  17.340   8.352   3.483 -0.1808 -0.1038  0.3622
 7483W        W23292  13.553  10.652  15.335  0.1204  0.2818 -0.3123
 7484W        W23293   0.646  11.049  12.350 -0.3873  0.1662 -0.0176
 7485W        W23294  12.775  13.678   3.971  0.0276  0.1784 -0.1215
 7486W        W23295  13.080   4.500   1.318  0.1900  0.1475 -0.0951
 7487W        W23296  13.527   0.197   4.629  0.2290  0.1506 -0.2891
 7488W        W23297  17.333  13.449   1.880 -0.0563 -0.3812 -0.3231
 7489W        W23298   1.278  15.915  14.831  0.0178 -0.1308 -0.1206
 7490W        W23299   5.713   0.432   4.411  0.0510 -0.2458  0.0169
 7491W        W23300  10.019  13.813  11.981  0.1108  0.1223  0.0390
 7492W        W23301   3.360  14.888   0.337 -0.0443 -0.0734  0.0889
 7493W        W23302   9.737  11.369  13.214 -0.1000  0.0367  0.0529
 7494W        W23303  16.404   3.243  14.617  0.0935  0.2751  0.1045
 7495W        W23304   2.131   6.069  16.694  0.2446 -0.1387 -0.1623
 7496W        W23305   7.201  10.273  15.032 -0.0500  0.1216 -0.1201
 7497W        W23306   7.251  12.439   2.647 -0.0285 -0.1308  0.1401
 7498W        W23307   1.977  16.068   5.062 -0.2261  0.0545 -0.0304
 7499W        W23308  13.160  16.259  12.358 -0.1742  0.1785 -0.0566
 7500W        W23309   7.778   4.383  13.842 -0.1522  0.1644  0.0487
 7501W        W23310   7.960  13.253  14.491  0.0442  0.1381  0.0484
 7502W        W23311   4.749   3.610  15.824 -0.0302  0.0039  0.0945
 7503W        W23312  15.179   2.029  13.241  0.1092 -0.1889 -0.0996
 7504W        W23313   8.296   6.148   4.420  0.0304 -0.1456 -0.0178
 7505W        W23314  11.308  13.501   3.683 -0.0623  0.0872  0.0256
 7506W        W23315  10.302   2.137   1.985 -0.1007 -0.0567  0.0007
 7507W        W23316   3.348  11.587   1.364 -0.1441 -0.1961  0.0259
 7508W        W23317   6.551  15.978  12.466  0.2491 -0.2352  0.0177
 7509W        W23318  14.845   8.756  15.712  0.0488  0.2277  0.3286
 7510W        W23319   2.616   5.557   2.306  0.1346 -0.1558 -0.0944
 7511W        W23320   4.540   1.161   0.209  0.1839 -0.1821  0.2087
 7512W        W23321   5.143   8.621  12.839  0.0947  0.1109 -0.2600
 7513W        W23322   3.162  12.742  11.354 -0.1407  0.1572  0.1173
 7514W        W23323  17.582   9.152  13.441 -0.1912 -0.0305  0.0655
 7515W        W23324   3.958  10.995  16.205 -0.2164 -0.0625  0.1520
 7516W        W23325  15.212   1.626   1.557  0.0012  0.0309 -0.0792
 7517W        W23326   7.781   1.001  16.361  0.0543 -0.1227  0.0476
 7518W        W23327  10.805   8.169   5.116  0.0275  0.2313 -0.0923
 7519W        W23328   8.329  15.223  15.983  0.1030  0.1454 -0.0114
 7520W        W23329  12.530  13.342  13.566 -0.2550 -0.1300  0.0660
 7521W        W23330  17.342  10.100   3.417  0.0299 -0.4397  0.0306
 7522W        W23331  10.115  11.911  16.578  0.0044 -0.1591  0.0009
 7523W        W23332  16.837  13.454   0.711 -0.0597  0.1418  0.0736
 7524W        W23333   6.661   7.062  10.200  0.2021  0.0656  0.2216
 7525W        W23334  12.147   2.959   1.523 -0.2735 -0.0539 -0.2206
 7526W        W23335  12.779   7.642   5.693 -0.0985  0.0624 -0.2156
 7527W        W23336  13.580   1.291   5.457  0.0806  0.1483 -0.1723
 7528W        W23337  11.289  12.175   0.878 -0.1042 -0.0554 -0.1595
 7529W        W23338  14.809   6.625   1.598 -0.0892 -0.3100  0.1634
 7530W        W23339   6.166  16.284  15.042 -0.0419 -0.0784 -0.1107
 7531W        W23340  14.337   2.527   1.994 -0.1760  0.0920  0.2073
 7532W        W23341   5.690   8.346   2.097  0.0947  0.0445 -0.0938
 7533W        W23342   4.572   0.900   1.131  0.1112 -0.0483  0.4214
 7534W        W23343   2.643  17.544   4.375  0.0785  0.1133 -0.1825
 7535W        W23344  15.941   0.102  13.985 -0.3350  0.0327  0.4011
 7536W        W23345   8.213   9.930  13.836  0.1502  0.1622  0.0113
 7537W        W23346  15.202   3.391  13.771 -0.0762 -0.0173  0.0480
 7538W        W23347   0.843   5.186   2.766  0.0362  0.1324 -0.0261
 7539W        W23348  10.082   2.432   2.362  0.1486 -0.1346 -0.0713
 7540W        W23349  13.879  13.730  12.448  0.1599 -0.0184  0.1455
 7541W        W23350   6.493  10.983  12.568 -0.1855  0.0111  0.1216
 7542W        W23351  14.730  12.084   4.280  0.1783  0.0158 -0.1702
 7543W        W23352   3.443   5.304   4.779  0.1668 -0.0870 -0.1060
 7544W        W23353   4.823   7.211  11.685  0.3449 -0.0910  0.0581
 7545W        W23354   6.737   3.505   0.835 -0.2032  0.2063  0.2289
 7546W        W23355  14.024  14.216  16.391  0.0900 -0.0712 -0.0440
 7547W        W23356  12.152   7.813  14.809  0.2604  0.3607 -0.0138
 7548W        W23357   9.158   3.795  15.938 -0.2007 -0.1327 -0.0982
 7549W        W23358   7.425  11.616   4.291 -0.2609  0.0328  0.0492
 7550W        W23359   9.832  14.536   2.139  0.0255 -0.1692  0.0459
 7551W        W23360   7.885   3.038   3.138 -0.2245  0.2428 -0.0216
 7552W        W23361  16.019   0.225  11.400 -0.3373 -0.1163  0.3278
 7553W        W23362   7.591   4.056  12.354 -0.0984 -0.2030 -0.0888
 7554W        W23363   0.926   6.142  12.384 -0.1383  0.0911  0.2112
 7555W        W23364  11.647   3.511   4.190  0.0174 -0.0200  0.0464
 7556W        W23365   0.662   4.503  16.144  0.0834  0.0753 -0.1737
 7557W        W23366   6.692   5.645  16.602 -0.4046 -0.1009  0.0423
 7558W        W23367   6.125   0.658   4.199 -0.2905  0.0448  0.2655
 7559W        W23368   5.768  16.845  16.180 -0.3644  0.1062 -0.0077
 7560W        W23369   9.842  10.381  15.413 -0.3459 -0.3296  0.2235
 7561W        W23370   2.640  16.140   4.780  0.0729  0.1824  0.3260
 7562W        W23371  15.583  11.413  12.219 -0.0038 -0.2244 -0.4557
 7563W        W23372  15.519   0.602   4.258  0.1265  0.0250  0.3027
 7564W        W23373  11.125   4.789   0.809 -0.1701  0.2397 -0.0420
 7565W        W23374   5.752  13.076  14.656  0.0819 -0.0264  0.2619
 7566W        W23375  10.238  16.828   3.964 -0.1478 -0.2468 -0.2618
 7567W        W23376   0.375   2.485  14.872  0.0149  0.1688 -0.0707
 7568W        W23377   0.847   5.830  16.526  0.3274  0.1450  0.1732
 7569W        W23378   0.214   6.957   4.375 -0.1138  0.1446 -0.1103
 7570W        W23379   4.742   7.435  10.730 -0.4114  0.1082 -0.3187
 7571W        W23380  14.350  14.806   2.806  0.3107 -0.2809  0.3271
 7572W        W23381   9.825   4.463   1.255  0.1738 -0.0720  0.0439
 7573W        W23382   8.534  14.204  11.956  0.1041  0.0717  0.1380
 7574W        W23383   7.930  13.472   4.706  0.1595 -0.1279 -0.0511
 7575W        W23384   1.633  16.140   2.716  0.0179  0.0808  0.0101
 7576W        W23385   4.606  15.327   5.022 -0.0975  0.2605 -0.2816
 7577W        W23386   5.850   4.367  16.015 -0.1313  0.1217  0.3531
 7578W        W23387   5.045  12.510   4.458  0.0216  0.1079  0.2186
 7579W        W23388  10.401   7.400  14.972  0.2124  0.0442 -0.0491
 7580W        W23389   8.580  14.219   3.564  0.2246  0.1672 -0.2384
 7581W        W23390  15.637  12.939   1.075  0.1642  0.1039  0.1021
 7582W        W23391   4.166   4.360  14.994 -0.1343  0.1211  0.2001
 7583W        W23392  15.944   7.819   0.874 -0.0533 -0.0626 -0.1004
 7584W        W23393  13.477  11.789  14.709 -0.2971 -0.2041 -0.3931
 7585W        W23394   9.098   1.080  13.068  0.1515 -0.3002  0.1016
 7586W        W23395  13.788  17.782  12.874  0.1551 -0.4525 -0.1919
 7587W        W23396   2.340  15.333  14.868 -0.0725 -0.4097  0.0802
 7588W        W23397  10.834   7.450   2.949 -0.0284 -0.0172 -0.1377
 7589W        W23398  16.271   7.079  16.212 -0.2250 -0.1354  0.1848
 7590W        W23399  10.171   3.526   1.771  0.3790  0.0361  0.0168
 7591W        W23400   6.242   7.903  15.868 -0.0418 -0.1387  0.1475
 7592W        W23401  14.669  15.596  12.387 -0.1864  0.2539 -0.1824
 7593W        W23402   3.212   2.117  13.795 -0.2162  0.1490  0.0854
 7594W        W23403   8.121  17.390   2.326 -0.2428 -0.0645 -0.1039
 7595W        W23404   9.263   5.492   5.117 -0.0176 -0.1700 -0.3847
 7596W        W23405   2.777   5.004   5.022 -0.1268  0.2951 -0.0015
 7597W        W23406   8.293  12.327  12.699  0.0771  0.2454  0.1108
 7598W        W23407  10.942   1.648   5.321  0.3423 -0.1597 -0.1315
 7599W        W23408   8.197   7.999  11.598 -0.0018  0.1009  0.2119
 7600W        W23409  11.313  13.800   5.194  0.1298  0.2537  0.2446
 7601W        W23410   1.893   8.779   1.343  0.2305  0.3533  0.0260
 7602W        W23411  12.065   8.759  15.347  0.0387 -0.0729 -0.0591
 7603W        W23412   2.175   5.371   3.468  0.0149  0.1432  0.2657
 7604W        W23413   5.464  10.527   0.419  0.0645 -0.1508 -0.3152
 7605W        W23414   1.519   0.433   0.831  0.0806 -0.1368  0.1322
 7606W        W23415  11.452   0.114  13.713  0.0684 -0.1309  0.2361
 7607W        W23416  10.900   9.719   3.073  0.1988  0.0026  0.0309
 7608W        W23417   7.543  17.041   3.362 -0.3006  0.3652  0.0104
 7609W        W23418  14.067   8.482   1.731  0.0874 -0.1983  0.2032
 7610W        W23419   4.484   3.448  12.218  0.2381 -0.1316  0.1260
 7611W        W23420   3.354   7.143   0.741 -0.1524  0.2482 -0.2495
 7612W        W23421  15.418   1.714   2.061 -0.1795  0.5136 -0.2600
 7613W        W23422   6.433  10.790  14.517 -0.2160  0.1123  0.1427
 7614W        W23423   6.770  10.040   4.746 -0.5215  0.1486  0.0507
 7615W        W23424   1.425   9.856  14.515 -0.0096 -0.2523 -0.3616
 7616W        W23425  13.155  13.902  11.704  0.1022 -0.1520 -0.2122
 7617W        W23426   7.653  17.156   2.500  0.1174 -0.0877  0.0093
 7618W        W23427   3.284  10.886   4.747  0.0720 -0.3029 -0.1942
 7619W        W23428   9.321  10.636  12.035 -0.0853  0.2481 -0.1323
 7620W        W23429   1.581   5.225  13.176 -0.1131 -0.2127 -0.1704
 7621W        W23430  12.939   0.136  15.685  0.2482  0.2096  0.0964
 7622W        W23431   4.105   8.268   4.529  0.2288  0.0866  0.1348
 7623W        W23432   9.628  15.064  12.552 -0.1419 -0.0181 -0.1024
 7624W        W23433   1.071   8.321   3.557  0.0011  0.0131  0.4317
 7625W        W23434   2.459   9.186   0.101  0.0366 -0.0607 -0.1019
 7626W        W23435   3.282   3.502  14.104 -0.0615  0.0072 -0.3106
 7627W        W23436  10.903   5.493   5.673  0.1423  0.0553  0.0101
 7628W        W23437   2.576  12.224   1.036  0.3432  0.4273  0.3740
 7629W        W23438  15.782   1.072  16.206 -0.1721  0.0180  0.0014
 7630W        W23439  16.929   6.261   1.551 -0.2717 -0.0622  0.2703
 7631W        W23440   7.901   9.021  16.449  0.0608  0.1409  0.0965
 7632W        W23441   6.383  12.938  16.617  0.2936  0.1259 -0.1229
 7633W        W23442  15.892   0.983   4.221 -0.0021 -0.0279 -0.4920
 7634W        W23443   0.531  13.723   4.012  0.0070  0.0817 -0.0108
 7635W        W23444   4.898   9.815   5.088 -0.0830 -0.2868 -0.1423
 7636W        W23445  17.669   3.584  14.878  0.0556 -0.0286  0.1760
 7637W        W23446   2.698   5.976  11.846  0.1540  0.0410  0.0648
 7638W        W23447   8.578  15.965   3.485  0.0614 -0.0122 -0.1308
 7639W        W23448  16.627  11.760  15.633 -0.3669 -0.0107 -0.1402
 7640W        W23449  12.290  14.576   2.129  0.0484 -0.1706  0.0950
 7641W        W23450   1.637  13.808  12.899  0.1901 -0.0525 -0.4034
 7642W        W23451   0.245  14.567  13.292  0.0134  0.1464 -0.0535
 7643W        W23452  10.842   4.112   1.169 -0.0937 -0.1517  0.1134
 7644W        W23453  14.573  16.768   2.172  0.1364  0.2702  0.1900
 7645W        W23454   4.980  10.468   4.319 -0.1728 -0.0415  0.0958
 7646W        W23455  13.786  12.778  15.041 -0.0041  0.1561 -0.4429
 7647W        W23456  10.715   5.051  16.335  0.2745 -0.0469  0.4475
 7648W        W23457  10.895  14.781  13.700  0.1658 -0.1343  0.0012
 7649W        W23458  12.205   0.414  13.327  0.5485 -0.0295  0.2463
 7650W        W23459   8.401  16.365  11.962  0.3260 -0.0966 -0.0529
 7651W        W23460   6.157   5.516   0.397 -0.0624 -0.0038  0.1166
 7652W        W23461   1.097   5.188   3.182  0.1684  0.2916  0.1988
 7653W        W23462  15.142  12.286   5.610 -0.1546  0.1538  0.2293
 7654W        W23463  13.480   0.528  14.368  0.0609  0.6111 -0.0906
 7655W        W23464  13.605  10.244   6.179 -0.4011 -0.3985 -0.3653
 7656W        W23465   6.017   4.352   4.601 -0.0562  0.1846  0.1076
 7657W        W23466  16.570  13.700  14.251  0.0904 -0.3800 -0.2768
 7658W        W23467   5.772  12.114   2.888 -0.2211 -0.1581 -0.0253
 7659W        W23468   3.203   6.307   4.928 -0.3207  0.2749  0.1657
 7660W        W23469  14.531   5.539   0.454  0.0127  0.0256 -0.0741
 7661W        W23470  11.912   3.240  15.260 -0.1940  0.1399 -0.0154
 7662W        W23471   7.970   5.828  12.618  0.1970 -0.2263 -0.2446
 7663W        W23472   5.629   7.339  11.978  0.1829 -0.0404 -0.0600
 7664W        W23473   2.350  10.938   1.681  0.1982 -0.1296  0.0642
 7665W        W23474   9.591  15.182   2.845  0.0855  0.2093 -0.0851
 7666W        W23475   1.194   8.337  13.394 -0.0441 -0.1642  0.2300
 7667W        W23476   9.760  14.405   4.753  0.0841 -0.4020  0.1952
 7668W        W23477  17.877  10.926  15.429 -0.1105 -0.0413  0.1946
 7669W        W23478   8.078   8.766  12.301  0.1303  0.1196 -0.0071
 7670W        W23479  16.513  12.597  15.217  0.2372  0.1623  0.2462
 7671W        W23480   5.230  17.486  13.369  0.0671 -0.0047  0.0123
 7672W        W23481  11.710  14.217   1.454 -0.1776  0.1234 -0.2070
 7673W        W23482   4.558   7.128  15.401  0.1328 -0.0215  0.0109
 7674W        W23483  11.444   1.070  13.234  0.1119 -0.0207 -0.1905
 7675W        W23484   7.919   2.437  13.787  0.1601  0.1437  0.2192
 7676W        W23485   9.629   8.792  12.829 -0.1973 -0.0178  0.0062
 7677W        W23486   7.313  11.007  12.454  0.4022  0.0190 -0.1351
 7678W        W23487  13.787  17.033   4.629 -0.1208 -0.1716 -0.2962
 7679W        W23488  11.081   6.754   1.269  0.0303 -0.1510 -0.0303
 7680W        W23489   6.100  13.308   0.602  0.1453 -0.0349  0.0975
 7681W        W23490   7.458   0.261   5.897  0.0362  0.1970  0.0769
 7682W        W23491   3.848  10.439  12.807  0.4523  0.1481 -0.0383
 7683W        W23492  17.268   6.015  13.283  0.1488  0.3433 -0.1120
 7684W        W23493  13.800  16.586  11.995 -0.1618 -0.2916  0.1560
 7685W        W23494  16.662  14.242  13.336 -0.0598  0.0629 -0.1109
 7686W        W23495   4.914  16.143  14.841 -0.0462 -0.0204  0.1079
 7687W        W23496  11.428   4.635   6.477  0.0076 -0.0774 -0.1716
 7688W        W23497   9.071   6.163   2.150 -0.4796 -0.0638  0.0717
 7689W        W23498  12.860  10.977  14.289  0.1082 -0.0419 -0.0893
 7690W        W23499  15.985   3.059  16.375  0.0933  0.1280 -0.2900
 7691W        W23500  15.887   3.017   0.990 -0.0342  0.1321  0.1582
 7692W        W23501   3.360  13.104   0.178 -0.0712 -0.1815  0.2303
 7693W        W23502  13.710   5.810  14.756  0.1379 -0.1663 -0.0698
 7694W        W23503  12.574   6.208  13.978  0.0142  0.0207 -0.0302
 7695W        W23504  14.375   9.030   4.170  0.1575  0.0680 -0.0807
 7696W        W23505  13.414  13.322   4.782  0.3211  0.0691  0.0211
 7697W        W23506  13.960   1.487   5.703  0.1457  0.2939 -0.0197
 7698W        W23507   4.030  11.533   0.300  0.1342  0.1094  0.0468
 7699W        W23508   3.634  11.929  11.462 -0.0576 -0.1248  0.0545
 7700W        W23509   5.852   8.665  15.775 -0.0317  0.1022 -0.1236
 7701W        W23510   4.062   9.356   4.151  0.2460  0.0483 -0.2199
 7702W        W23511  10.720   4.222   4.844 -0.1733  0.2494  0.1890
 7703W        W23512   3.147   0.785   2.810  0.0797  0.1941 -0.1956
 7704W        W23513  10.413  12.011   3.610  0.0440 -0.1917 -0.2336
 7705W        W23514   3.952  17.367  12.581  0.1769 -0.1495 -0.0120
 7706W        W23515  17.414  14.838  16.539 -0.3496 -0.0341  0.2856
 7707W        W23516  12.381   9.815   5.350 -0.0017  0.1132 -0.1181
 7708W        W23517  15.933   6.402   3.798  0.0714 -0.4443  0.3179
 7709W        W23518   7.280   5.803  11.638 -0.1134  0.2834  0.0098
 7710W        W23519   1.963   9.180   0.958  0.1515  0.1477 -0.0416
 7711W        W23520   5.400  13.760  15.788  0.0061 -0.1026  0.0221
 7712W        W23521  11.642  13.869   3.713 -0.0607  0.0939  0.3773
 7713W        W23522   0.714   5.186   6.027  0.1039 -0.1284 -0.0298
 7714W        W23523  12.462  10.437  13.658 -0.0075  0.2053  0.0566
 7715W        W23524   9.022   9.108   1.139 -0.1234  0.2249 -0.0040
 7716W        W23525   8.030   1.449   4.564 -0.3893 -0.1383 -0.1800
 7717W        W23526  13.887  10.827  16.461  0.0229  0.0799  0.0685
 7718W        W23527  15.249   9.190   0.919 -0.0927 -0.1219  0.2885
 7719W        W23528   6.712  17.274   4.148 -0.0545 -0.0729  0.1119
 7720W        W23529  14.466  11.913  11.906 -0.0527  0.0357  0.2346
 7721W        W23530  13.945   4.951  12.506 -0.0608 -0.0500  0.0422
 7722W        W23531   7.309   8.730   0.700 -0.0432  0.1986  0.0468
 7723W        W23532  10.747  16.692   4.147 -0.3728  0.1006  0.2243
 7724W        W23533   1.015   9.410  11.071 -0.1053  0.1783 -0.1110
 7725W        W23534   7.453  11.254   4.775 -0.3212 -0.2075 -0.0022
 7726W        W23535  15.964   7.700  11.827  0.2855  0.2405  0.3482
 7727W        W23536  11.117  17.888  16.252  0.1517  0.1767  0.0408
 7728W        W23537   7.646   4.565  16.713  0.3131 -0.1934  0.0255
 7729W        W23538   3.736   0.098   3.738 -0.2867  0.1182  0.0723
 7730W        W23539   3.601  10.425   0.052 -0.0178 -0.0613 -0.0512
 7731W        W23540   3.323   2.481   4.098 -0.1472  0.0418 -0.3645
 7732W        W23541   0.287  12.757  11.927 -0.2109 -0.3055  0.1778
 7733W        W23542  10.309  10.643  15.596  0.0538 -0.0939  0.0202
 7734W        W23543   3.098   7.001   3.074 -0.0789  0.4005  0.0332
 7735W        W23544   8.404  11.056  15.905 -0.1301  0.0522  0.0503
 7736W        W23545  12.022   3.872  15.575  0.1089  0.0230  0.2891
 7737W        W23546  11.599   0.450   0.316  0.0987 -0.0350  0.1032
 7738W        W23547   1.369   5.212  12.708 -0.0061 -0.0366  0.1307
 7739W        W23548  15.429  12.241   4.447  0.0624  0.3372 -0.1320
 7740W        W23549   8.908  17.268   2.811 -0.2679  0.0171 -0.1393
 7741W        W23550  16.893   8.883   4.802  0.1436 -0.0073  0.0184
 7742W        W23551  16.428   8.075  15.165  0.1308 -0.1947 -0.2184
 7743W        W23552   4.170   6.765  11.129  0.0309 -0.1250 -0.1611
 7744W        W23553  17.925   6.183   1.156 -0.1269 -0.0521 -0.0942
 7745W        W23554   2.446   5.715   0.242  0.3713  0.2525  0.0564
 7746W        W23555  16.390   2.425   1.022 -0.3235  0.0800  0.0118
 7747W        W23556  15.926  10.070   4.507  0.1781 -0.0822 -0.2682
 7748W        W23557  11.632  13.152   3.606  0.1492 -0.0554 -0.1962
 7749W        W23558   1.667   6.972   1.361 -0.2952  0.0427  0.3204
 7750W        W23559   0.690  17.033   3.067  0.1104  0.0880  0.4766
 7751W        W23560   3.722   9.234  15.717 -0.1311  0.1213 -0.0978
 7752W        W23561  17.227  11.808  15.634  0.2561 -0.1410  0.1585
 7753W        W23562   1.831  16.191  16.009 -0.1742  0.1581 -0.0670
 7754W        W23563  15.555   4.533  15.543  0.2636  0.2235 -0.2108
 7755W        W23564   9.155   8.508  13.186 -0.0593 -0.0516  0.1751
 7756W        W23565   2.365  16.106  16.113 -0.1293  0.2016 -0.0862
 7757W        W23566  12.651  14.299  13.130 -0.1315 -0.0756  0.0204
 7758W        W23567  17.627  10.517  15.091  0.2687 -0.2556  0.0874
 7759W        W23568   4.053  15.302   4.173 -0.1292 -0.1093 -0.1007
 7760W        W23569  14.901   4.060   3.513  0.1788  0.2335 -0.1666
 7761W        W23570  14.741   8.348   1.743 -0.1549 -0.2635 -0.0455
 7762W        W23571  11.319   2.291  14.099 -0.0042 -0.1995  0.1221
 7763W        W23572   4.123  11.622   3.146  0.1538 -0.2102 -0.0650
 7764W        W23573   4.669   8.000  11.019  0.0688 -0.2853 -0.0752
 7765W        W23574   0.517  12.595   5.803  0.2927 -0.0513 -0.4454
 7766W        W23575  17.339   1.148  14.390  0.1022  0.0372  0.0392
 7767W        W23576  16.294   5.431   0.921  0.0455  0.2726 -0.1140
 7768W        W23577   8.802   2.731   4.115  0.0966  0.3399 -0.3584
 7769W        W23578  13.372  10.357  15.691 -0.0034 -0.2615 -0.2123
 7770W        W23579   8.672  11.469  12.261  0.0979  0.0580 -0.0128
 7771W        W23580  14.132  17.308   4.461 -0.0324  0.2248  0.2609
 7772W        W23581   5.659   9.257   5.217  0.0846  0.2001  0.2656
 7773W        W23582   0.764   6.354   0.067  0.2307  0.2889 -0.3312
 7774W        W23583   1.218  13.666   2.933  0.2538  0.0805  0.0466
 7775W        W23584   9.973  17.601   2.448  0.1860  0.3322 -0.0638
 7776W        W23585   1.712  13.948  14.908 -0.0370 -0.0727  0.1409
 7777W        W23586   8.306   8.259   1.229  0.0632 -0.1989 -0.2492
 7778W        W23587  15.681   3.608  13.759  0.0933  0.1810  0.0260
 7779W        W23588  13.415  11.062   3.049  0.1109 -0.0568 -0.1991
 7780W        W23589   2.389   4.651  13.086 -0.1168  0.1575  0.1273
 7781W        W23590   8.191   2.263   2.910 -0.1682  0.0863  0.1017
 7782W        W23591  14.845  12.417   2.549  0.0517  0.1314  0.2635
 7783W        W23592   0.014   0.078  12.505 -0.2062 -0.4027 -0.1135
 7784W        W23593   5.550   2.096  15.791  0.0005 -0.1742 -0.0928
 7785W        W23594   3.011  13.318  14.595 -0.0842  0.0489  0.0183
 7786W        W23595   2.066  10.508   1.582  0.0930  0.0088 -0.1647
 7787W        W23596   5.387   5.519  15.736 -0.1176 -0.3353  0.0465
 7788W        W23597  12.578   1.624  16.065 -0.1776 -0.5899  0.1766
 7789W        W23598   4.579   3.658   5.018  0.0652  0.0416  0.2546
 7790W        W23599   9.722   2.566   5.313  0.3329 -0.3919  0.1173
 7791W        W23600  14.533   7.694  12.635  0.3804  0.1579 -0.4977
 7792W        W23601   5.616   0.737  14.159  0.3165 -0.0321 -0.0282
 7793W        W23602   1.860   3.074   3.534  0.0212  0.2363 -0.5258
 7794W        W23603  12.597   0.932   5.225  0.2569 -0.1776 -0.2159
 7795W        W23604  12.420  16.115   3.329 -0.1633  0.1321 -0.1209
 7796W        W23605  12.628  11.097  15.684 -0.2993 -0.0716 -0.2242
 7797W        W23606   0.656   2.517   3.331  0.1080 -0.1361  0.2829
 7798W        W23607   8.355   5.120  12.139 -0.2355 -0.1476 -0.0611
 7799W        W23608  17.591   0.671   2.647 -0.0403 -0.2211 -0.1799
 7800W        W23609   1.073  11.107  16.310 -0.0771  0.2199 -0.3321
 7801W        W23610   2.847   5.199  16.124 -0.1473  0.3473  0.2407
 7802W        W23611   6.455  17.867   3.528  0.1581  0.3313  0.0249
 7803W        W23612   9.045  17.589   2.411  0.2784  0.0527 -0.0875
 7804W        W23613   8.963  14.738   0.946 -0.1469  0.0189 -0.2781
 7805W        W23614   4.555   5.429  12.151  0.0628  0.3642  0.0561
 7806W        W23615   8.803  14.361  13.968 -0.0091 -0.0367  0.1734
 7807W        W23616   3.932  11.546  11.425  0.0481 -0.0566 -0.1085
 7808W        W23617  12.445   4.796   6.200  0.2047 -0.4300 -0.0112
 7809W        W23618   2.586  17.150  10.940 -0.0385 -0.1201 -0.0568
 7810W        W23619  16.799   7.731   1.888 -0.1452 -0.0440  0.1548
 7811W        W23620   8.082  13.611  13.719  0.4013 -0.1226  0.1090
 7812W        W23621   5.233   5.652   2.136 -0.0584 -0.1495  0.3984
 7813W        W23622  10.776  12.753   6.349  0.0899  0.1838 -0.1311
 7814W        W23623   0.188  15.250   4.916  0.0954 -0.1535 -0.0634
 7815W        W23624   5.658  15.115   2.785 -0.0928  0.0924 -0.0980
 7816W        W23625   0.954   7.767  12.715 -0.0960 -0.3519  0.2154
 7817W        W23626   2.291  10.777  16.523 -0.1140 -0.2174 -0.1129
 7818W        W23627  12.036   2.541   5.539 -0.3738 -0.2231  0.1182
 7819W        W23628  17.407  15.064  12.646 -0.1018  0.0078  0.0943
 7820W        W23629  17.104  17.909  15.429  0.0697  0.0557  0.0109
 7821W        W23630   2.895  13.174   0.166  0.1192  0.0432  0.2125
 7822W        W23631   1.278  13.089   3.751 -0.0639  0.1225 -0.0437
 7823W        W23632   6.409  16.893   0.615 -0.1746  0.4632  0.0521
 7824W        W23633  11.592  15.807   0.335  0.0170  0.0163 -0.1660
 7825W        W23634   8.582  12.920   0.228  0.3312 -0.1560  0.0552
 7826W        W23635   5.464  14.314   4.448  0.0359  0.6701 -0.0165
 7827W        W23636  10.835   2.162  12.544  0.1364  0.2914  0.3368
 7828W        W23637  13.010  15.859  12.669 -0.0331  0.0573 -0.0721
 7829W        W23638   1.369  12.057  14.431  0.2147  0.1515  0.1648
 7830W        W23639  12.988   8.275   4.106 -0.1493 -0.0648 -0.2374
 7831W        W23640   0.312   5.549  15.324  0.0914 -0.1849 -0.2879
 7832W        W23641  16.443   4.209   5.301  0.1314 -0.0346  0.1498
 7833W        W23642   8.327  15.507  12.389 -0.1997  0.0869 -0.2759
 7834W        W23643  14.124   3.564  11.769  0.1633  0.1455 -0.2080
 7835W        W23644   9.723   3.762   2.702 -0.0752  0.2688 -0.1509
 7836W        W23645   8.395  14.432  12.354  0.0384  0.0208  0.1699
 7837W        W23646   5.457  13.459  14.555 -0.2683  0.0744 -0.0109
 7838W        W23647  16.760  14.784   3.113  0.0668  0.0701 -0.2251
 7839W        W23648   3.784   8.254   2.852 -0.0289 -0.1636 -0.1140
 7840W        W23649   4.430   2.738   3.405 -0.4307 -0.2905  0.1807
 7841W        W23650  17.916   6.503  15.483 -0.0512  0.1515  0.1056
 7842W        W23651   2.812   4.360   2.873 -0.3089  0.5892 -0.2415
 7843W        W23652   2.887   1.683   5.380 -0.1042 -0.4371 -0.1677
 7844W        W23653  14.211  12.142  12.858  0.2396 -0.4381  0.2486
 7845W        W23654  13.147   6.063   0.832 -0.1032 -0.0443 -0.0063
 7846W        W23655   8.718   4.019   2.642  0.1161  0.0087 -0.2115
 7847W        W23656  13.343   4.657  14.597  0.0244  0.0948 -0.0132
 7848W        W23657   2.123   8.173  11.805  0.2959 -0.0365 -0.1270
 7849W        W23658  11.069   3.619  14.436 -0.1742 -0.1714 -0.0274
 7850W        W23659   2.796  14.270  13.734  0.0395  0.1286  0.1710
 7851W        W23660   6.278  10.921   2.421 -0.1028  0.0401  0.0527
 7852W        W23661  12.861   8.194  14.468 -0.1818  0.0535  0.0851
 7853W        W23662  14.437   4.146   3.879  0.1575 -0.4186 -0.3860
 7854W        W23663   5.183   4.902   0.840 -0.3761 -0.1321 -0.2673
 7855W        W23664  11.667   6.149   5.363  0.0690 -0.0647 -0.3561
 7856W        W23665  12.030   4.829   3.762  0.0938  0.0542  0.0215
 7857W        W23666   6.573   8.347   4.010  0.0982 -0.2877  0.2648
 7858W        W23667   9.425   1.172  15.942  0.0054 -0.0594 -0.3264
 7859W        W23668   8.986  13.178   1.066 -0.0535  0.1814 -0.4539
 7860W        W23669   3.033   5.588  13.608 -0.1438  0.2799 -0.1860
 7861W        W23670   8.732   1.316  11.905  0.3146  0.0508  0.0355
 7862W        W23671   2.231  12.885  14.009 -0.0366  0.2262 -0.1742
 7863W        W23672   1.590  12.580  14.507 -0.0967 -0.4620 -0.1467
 7864W        W23673  17.955   9.348  11.960 -0.0033 -0.0016 -0.0074
 7865W        W23674   8.565   2.118  16.494  0.0637  0.0192 -0.1476
 7866W        W23675  14.560  16.012  16.269  0.0918 -0.1787  0.2274
 7867W        W23676  10.233   9.998  11.276 -0.2044  0.0289 -0.0803
 7868W        W23677   1.124   5.048   0.160 -0.1228 -0.1668  0.0844
 7869W        W23678  10.860   0.978  12.835 -0.0535  0.2131  0.0151
 7870W        W23679   4.681  16.356   4.872  0.4122  0.0345  0.0612
 7871W        W23680   7.112  15.399  10.543  0.1288  0.1166  0.1553
 7872W        W23681   4.549  11.364   2.753 -0.4318 -0.1708 -0.1080
 7873W        W23682  10.601   0.863   1.796  0.1932 -0.1090 -0.0203
 7874W        W23683   7.191  17.064   3.017 -0.0037  0.0713  0.3355
 7875W        W23684   7.370   5.183   3.744  0.1547  0.1316 -0.0120
 7876W        W23685   0.539   8.608   0.116 -0.0026  0.2448  0.1427
 7877W        W23686   2.559   5.321  15.722 -0.0411  0.1021 -0.1882
 7878W        W23687   0.417  15.358   3.407  0.2296  0.0791 -0.1798
 7879W        W23688  13.073   4.063  14.134  0.1398  0.2504  0.2326
 7880W        W23689  10.097  12.936   6.127  0.1334  0.1003  0.1378
 7881W        W23690   6.769   2.277  15.678 -0.2310  0.0304 -0.0805
 7882W        W23691  10.045  15.064  12.247  0.1106  0.2060 -0.2027
 7883W        W23692   9.888  17.447  16.349  0.3038 -0.0164  0.0062
 7884W        W23693  15.826  10.122  12.603 -0.0674 -0.0881 -0.1536
 7885W        W23694  15.948   2.116  12.115 -0.2247 -0.1185 -0.2794
 7886W        W23695   0.598   0.916   0.772 -0.1249 -0.0336 -0.1565
 7887W        W23696  13.707   4.106   2.529 -0.0268 -0.1647  0.1160
 7888W        W23697  11.213   5.622   4.738  0.1763  0.0643  0.0574
 7889W        W23698   7.768   6.124   2.640  0.1010 -0.1801 -0.0431
 7890W        W23699  11.666   3.305  13.954  0.2601  0.1095  0.2196
 7891W        W23700   1.299   6.019  11.012  0.1808  0.0824  0.3215
 7892W        W23701  11.066   4.486  14.678 -0.0684 -0.1887 -0.2192
 7893W        W23702   9.957   7.266   5.658  0.1127 -0.2238  0.3371
 7894W        W23703   7.918   8.606   1.356  0.0295 -0.3005  0.3226
 7895W        W23704  12.091  13.153  15.289 -0.4424  0.0609  0.2136
 7896W        W23705   0.459   2.893  12.275 -0.0641 -0.3935 -0.1931
 7897W        W23706   7.932   9.694   3.261  0.1963 -0.1263  0.3233
 7898W        W23707   5.906   2.200  16.149  0.0275 -0.0446 -0.0871
 7899W        W23708  16.887   6.576  13.586 -0.0052  0.1064  0.0407
 7900W        W23709  12.035   0.591  14.369  0.2636 -0.0403  0.1793
 7901W        W23710   1.315  15.663   4.253  0.2842  0.0743  0.3711
 7902W        W23711  17.135   1.083  13.158  0.1303 -0.0549  0.1678
 7903W        W23712   1.128   4.055   3.856 -0.0585 -0.3178  0.0878
 7904W        W23713  16.397   1.236  14.947  0.2098  0.0931 -0.0616
 7905W        W23714   2.551   0.790  16.414  0.1116  0.3477  0.1524
 7906W        W23715  17.390   0.314   3.806 -0.0746 -0.3032 -0.0223
 7907W        W23716  10.903  15.913  16.439  0.0081 -0.2812 -0.0619
 7908W        W23717  13.459  12.458  11.782  0.2017  0.1306  0.0948
 7909W        W23718   2.394  11.359   6.063  0.0591 -0.0067  0.1520
 7910W        W23719   8.545  14.860  14.870 -0.3541 -0.0892 -0.0637
 7911W        W23720   8.280   0.455  14.069  0.0314  0.0471  0.0968
 7912W        W23721   3.275  15.715   2.632 -0.2247  0.1055 -0.0472
 7913W        W23722  11.205   2.424  11.672  0.1821 -0.1517 -0.0318
 7914W        W23723   4.484  12.600   3.250  0.0005 -0.1281  0.0241
 7915W        W23724  12.340   7.071  14.063  0.0377 -0.1464 -0.1865
 7916W        W23725   1.157  15.100   4.970  0.2956 -0.1618 -0.1411
 7917W        W23726   5.515   2.342   0.333  0.1765 -0.0072  0.1533
 7918W        W23727   7.504  13.430  14.618 -0.2891 -0.1233 -0.0368
 7919W        W23728   2.942   9.629   5.038  0.0549  0.1542  0.0776
 7920W        W23729   4.610   3.358   1.056  0.1737 -0.2222 -0.0985
 7921W        W23730  16.195   1.483   5.088  0.0435  0.2136 -0.2053
 7922W        W23731  11.797  11.089   2.379  0.3631 -0.1915  0.0989
 7923W        W23732  11.209   0.516   1.981 -0.3060 -0.2037 -0.0910
 7924W        W23733  17.760   0.213   5.096  0.1204  0.1017 -0.0034
 7925W        W23734  11.035  10.238   3.899  0.3127  0.1569 -0.1557
 7926W        W23735  15.284  13.303  12.229 -0.0243  0.0424  0.1280
 7927W        W23736  15.488  17.910  13.821  0.0136 -0.0570 -0.0526
 7928W        W23737  12.314   6.633  13.359 -0.1823  0.0521 -0.0203
 7929W        W23738   1.310   9.909  13.444 -0.0370 -0.0109  0.0620
 7930W        W23739   9.373  15.278   4.766 -0.0146 -0.1577  0.0996
 7931W        W23740  14.170  11.541   1.406 -0.0308 -0.0468 -0.1389
 7932W        W23741   0.429  17.770   2.243 -0.2325 -0.2827 -0.0997
 7933W        W23742  16.505   4.923  12.609  0.0604  0.1364  0.1780
 7934W        W23743  13.602   1.001   2.260  0.1376  0.1648  0.0554
 7935W        W23744  16.415  17.025   2.213  0.2376  0.2469 -0.0875
 7936W        W23745  16.422  15.704   5.498 -0.1474  0.1697  0.1362
 7937W        W23746   1.458   9.257  12.791 -0.1767 -0.2738 -0.2637
 7938W        W23747   3.637   3.134  14.027 -0.1544 -0.0836 -0.1426
 7939W        W23748   4.570   5.605  16.033  0.3114  0.1032  0.0504
 7940W        W23749  11.870   3.147   0.575 -0.0409  0.0311 -0.1873
 7941W        W23750  16.626   6.691  13.107  0.1818 -0.0857  0.0117
 7942W        W23751  10.867   5.425  14.485 -0.1116  0.1003  0.0290
 7943W        W23752   9.430  16.328  14.030  0.1637  0.1492  0.0303
 7944W        W23753  14.157   5.304   2.121  0.1177 -0.0992 -0.2758
 7945W        W23754   8.403  13.067   6.042 -0.0185 -0.1575 -0.0527
 7946W        W23755  16.352  10.509  15.835 -0.0440  0.1855 -0.1394
 7947W        W23756  17.865   1.100   0.539 -0.3399 -0.0972  0.1566
 7948W        W23757   5.314  14.242   3.980 -0.0246  0.0381  0.1008
 7949W        W23758   5.613   1.620   3.476  0.0502 -0.1180  0.1042
 7950W        W23759  14.551   3.225   2.122 -0.1874  0.2949  0.0473
 7951W        W23760   4.738   5.622  16.520 -0.3083  0.3953  0.3811
 7952W        W23761   3.348  17.214  16.507  0.3982 -0.1462  0.1398
 7953W        W23762  16.429   4.527  11.358  0.3257  0.0977 -0.0505
 7954W        W23763  14.940   9.061   3.516 -0.1217 -0.2229 -0.1620
 7955W        W23764  10.354   9.598  12.506  0.4542  0.0778  0.0160
 7956W        W23765  10.249   8.076   4.517  0.2660  0.2388 -0.0778
 7957W        W23766   3.855   4.627   4.959  0.3817  0.0454 -0.2265
 7958W        W23767   7.556  14.582  13.255 -0.2407  0.5004  0.1610
 7959W        W23768   1.128  16.126   1.350  0.1085 -0.2594  0.0301
 7960W        W23769   3.219   0.265  11.253 -0.2380 -0.1450 -0.1547
 7961W        W23770   7.229   9.425  12.149 -0.1820 -0.1866 -0.1724
 7962W        W23771  10.525  17.641  15.687 -0.0921 -0.1399 -0.1472
 7963W        W23772   9.260  13.233  12.041  0.1374 -0.1446  0.0675
 7964W        W23773  10.852  13.380   5.652 -0.0427 -0.3377 -0.1457
 7965W        W23774   7.428  16.342  13.509  0.0907  0.0874  0.2232
 7966W        W23775   2.354  17.059  13.018  0.2416  0.2394  0.4826
 7967W        W23776   8.911  15.445   0.400 -0.1273 -0.0229 -0.0274
 7968W        W23777   7.292  14.444   0.538 -0.0439  0.1916 -0.2271
 7969W        W23778  16.169  17.023   5.788  0.2896 -0.0294 -0.2047
 7970W        W23779   5.149  10.889   1.735  0.0336  0.0782  0.0073
 7971W        W23780   0.530   2.672   4.570 -0.1994  0.1966  0.2520
 7972W        W23781  16.690   1.050   1.824  0.0870  0.2094  0.1092
 7973W        W23782  11.314  15.529  14.559 -0.0580  0.1718 -0.1326
 7974W        W23783  11.400   9.454   3.838 -0.1900  0.1580 -0.1706
 7975W        W23784   2.454  17.061   5.082 -0.0120  0.1741  0.0077
 7976W        W23785   5.512   8.585  16.434 -0.0423 -0.1422  0.0599
 7977W        W23786  11.798   9.757   6.133  0.2126 -0.0544  0.1105
 7978W        W23787   3.594   9.696   4.136  0.0123 -0.0392 -0.1218
 7979W        W23788  11.324  14.725  12.733  0.0845  0.2337 -0.0082
 7980W        W23789   5.106  16.535   3.533 -0.3432  0.1892 -0.0669
 7981W        W23790  15.332   5.116  12.697  0.6208  0.0795  0.2371
 7982W        W23791  10.802   3.863   3.995 -0.0525 -0.1331  0.3308
 7983W        W23792   1.660  13.791  13.970  0.2087  0.2882 -0.0535
 7984W        W23793   1.587  13.521   2.551 -0.2951  0.1790  0.2906
 7985W        W23794   7.655   0.854   2.649  0.1597  0.1625 -0.1995
 7986W        W23795   0.956   1.237  12.199  0.1682 -0.2971  0.0662
 7987W        W23796   9.065   7.144  13.220 -0.0912 -0.0671  0.2385
 7988W        W23797   8.208   3.854   4.532  0.2383  0.1525 -0.3944
 7989W        W23798   6.466  15.396   6.501 -0.0640 -0.3796 -0.5808
 7990W        W23799   2.397   4.964  15.291 -0.1313  0.2537  0.1412
 7991W        W23800   3.560   8.539   1.729  0.1263 -0.1893  0.0815
 7992W        W23801   0.060  12.084   4.238 -0.2110  0.3193 -0.0249
 7993W        W23802  11.577   4.633   3.247  0.2481 -0.1473 -0.0219
 7994W        W23803   2.829   5.505  16.617 -0.1443 -0.2436 -0.1306
 7995W        W23804   2.849   3.637  13.776 -0.1529 -0.0099 -0.2991
 7996W        W23805  14.478   7.058  14.243 -0.0400  0.2250  0.0409
 7997W        W23806  11.398   7.037  15.388  0.2002  0.2668  0.0887
 7998W        W23807  10.629  11.568   1.413 -0.1076 -0.1116  0.1494
 7999W        W23808   7.064  14.946   4.722 -0.2311  0.0155  0.0480
 8000W        W23809   4.062  12.696  10.448  0.0028  0.4190 -0.1756
 8001W        W23810  13.732  16.370   0.958 -0.1445 -0.3434 -0.4341
 8002W        W23811   7.252   3.925  11.045  0.1312 -0.0059 -0.0661
 8003W        W23812  15.197   5.367  13.732 -0.1864 -0.0263 -0.0383
 8004W        W23813   7.386   8.523  16.452  0.1117 -0.1299 -0.0029
 8005W        W23814   8.654   2.751   0.122  0.5562  0.1425 -0.1228
 8006W        W23815  14.913   5.569   1.372 -0.2047 -0.0257 -0.1077
 8007W        W23816  14.818  16.854  12.038  0.0058  0.0558  0.0737
 8008W        W23817   8.987   9.101   2.711 -0.1380 -0.0515 -0.0031
 8009W        W23818   3.448   0.710  11.214  0.1005  0.2398 -0.0135
 8010W        W23819  16.997  10.084  12.208 -0.1007  0.0827  0.2232
 8011W        W23820   0.597   5.885  12.150 -0.0548  0.1271  0.1358
 8012W        W23821   9.525  17.202   6.053 -0.0817  0.0477  0.1250
 8013W        W23822  13.568   2.752   2.046  0.2742  0.1091 -0.2446
 8014W        W23823   1.164  17.503  13.549  0.2749 -0.0887  0.0306
 8015W        W23824  16.770   5.295  13.331  0.0023 -0.0757  0.0869
 8016W        W23825   5.734   3.514  11.977  0.1118 -0.2511 -0.1166
 8017W        W23826   7.859   0.617  13.778 -0.1450  0.1855  0.0234
 8018W        W23827   1.723   2.429  12.612  0.0482 -0.2720  0.3150
 8019W        W23828   9.950  12.920  14.147 -0.1887  0.5066  0.1442
 8020W        W23829  15.703   3.293  14.245 -0.4506  0.0674 -0.4207
 8021W        W23830   3.007  17.401  16.123  0.1810 -0.0194 -0.0693
 8022W        W23831  12.195   9.368  15.461 -0.3938 -0.1230 -0.3129
 8023W        W23832  15.778   8.414  12.351 -0.1479  0.2251  0.3103
 8024W        W23833   3.288   6.592  15.153 -0.0323 -0.1223 -0.2068
 8025W        W23834   7.281   7.634  11.195 -0.3909  0.0474 -0.0589
 8026W        W23835  17.508  11.272   3.678 -0.2898 -0.0735  0.4373
 8027W        W23836  10.648   3.514   2.529  0.1306 -0.0167  0.1369
 8028W        W23837  10.668   3.045  12.587  0.0439  0.0123 -0.0764
 8029W        W23838  12.765   9.793   0.767 -0.1855 -0.1457  0.3401
 8030W        W23839   6.100  10.448  15.779 -0.0036  0.0366  0.2466
 8031W        W23840   7.748   1.951   6.006  0.1288  0.0295  0.2491
 8032W        W23841  14.726   3.634   3.313  0.2581 -0.2180  0.1736
 8033W        W23842   9.437   5.809  14.315  0.2917  0.0067  0.1588
 8034W        W23843   0.153  13.999  15.522 -0.1053 -0.2874  0.0929
 8035W        W23844   7.014  13.713   5.935  0.1601 -0.0028  0.0123
 8036W        W23845  10.559   2.744  13.421  0.0854 -0.0282 -0.3872
 8037W        W23846   6.745   3.181  12.459  0.1313 -0.1095 -0.3181
 8038W        W23847   3.423   5.031  15.073 -0.0366 -0.1616  0.0526
 8039W        W23848   5.094   5.837  14.787  0.0675  0.1208  0.0300
 8040W        W23849   1.467  15.948   3.765  0.3458  0.0250 -0.1784
 8041W        W23850   2.404   2.606  13.053  0.1248  0.3236 -0.0675
 8042W        W23851  11.368   0.967  16.367  0.0543 -0.1193 -0.1453
 8043W        W23852   4.556  12.585   4.625 -0.0345 -0.2305  0.2029
 8044W        W23853  17.236   9.687  14.424 -0.0104 -0.2547  0.0247
 8045W        W23854   1.580  16.560   4.475  0.1269  0.3539 -0.2644
 8046W        W23855   8.483  14.675  11.932 -0.1965 -0.0009 -0.1673
 8047W        W23856   4.966   5.394   5.451 -0.1509 -0.0479 -0.2214
 8048W        W23857   9.977  16.195   2.142  0.1651  0.2936  0.3213
 8049W        W23858  12.926   7.929   0.326  0.2435 -0.0361 -0.3591
 8050W        W23859  16.828  10.172  13.648  0.1033  0.5603 -0.0704
 8051W        W23860  10.534  14.238   1.366 -0.1629  0.1152  0.0187
 8052W        W23861  15.323   4.352  15.063  0.2116  0.1726 -0.0818
 8053W        W23862  16.643   4.457  12.673  0.1422 -0.0155  0.1199
 8054W        W23863  15.575  13.510   4.582  0.0555 -0.0043 -0.1510
 8055W        W23864  16.398   7.804  11.690 -0.3776  0.1891  0.2471
 8056W        W23865   0.748   2.366   4.172  0.0292  0.1206  0.0101
 8057W        W23866   2.601  12.585  14.232 -0.1333 -0.0276 -0.2595
 8058W        W23867   2.526  13.932   5.090  0.1046 -0.3181 -0.0083
 8059W        W23868   3.342  11.250   5.820  0.3201  0.0602 -0.0761
 8060W        W23869  10.050  17.580   5.189 -0.1810  0.0175  0.1074
 8061W        W23870  17.330  17.477   3.209  0.1533  0.2511 -0.2426
 8062W        W23871  10.797   2.281  14.825  0.3092 -0.1226 -0.1106
 8063W        W23872   4.468   9.670   4.926  0.0871 -0.2352 -0.0798
 8064W        W23873   8.098   0.841   5.641 -0.0055 -0.1331  0.1768
 8065W        W23874   5.116   4.135   4.317  0.3547 -0.0422 -0.4474
 8066W        W23875  14.821  12.417  16.240  0.0983 -0.2000  0.0234
 8067W        W23876  17.610   7.575   2.425  0.1245  0.0052  0.0145
 8068W        W23877   3.383   3.638   2.522  0.0793 -0.0698  0.1746
 8069W        W23878  10.919  16.226   2.432  0.3640 -0.0676 -0.1058
 8070W        W23879  12.487   3.366   3.847 -0.4105  0.0636  0.0164
 8071W        W23880   7.520   7.488   0.092  0.1022  0.0464  0.0462
 8072W        W23881   7.886  16.776   4.628  0.2498 -0.1421  0.2689
 8073W        W23882   7.070  10.363   4.503  0.3607  0.0539 -0.0477
 8074W        W23883  10.024   7.103   2.631  0.0954  0.1268 -0.1582
 8075W        W23884  14.927   6.473  13.979  0.0261  0.0612  0.1618
 8076W        W23885  15.676  12.109  12.973 -0.1898  0.2230 -0.1228
 8077W        W23886  12.063  15.155   0.450  0.2250  0.2369  0.1534
 8078W        W23887   9.727   1.219  12.104 -0.0328 -0.0688  0.0338
 8079W        W23888  13.520   4.836   4.824  0.1404 -0.2172 -0.0143
 8080W        W23889  14.112  12.589  14.209 -0.1801  0.1325  0.0546
 8081W        W23890   5.905  11.701  13.322  0.0164  0.0150  0.2077
 8082W        W23891  10.262  11.846  10.678  0.1474 -0.1176  0.0380
 8083W        W23892  15.390  11.815  15.077 -0.1047 -0.4113 -0.2612
 8084W        W23893   2.302   4.761   2.216 -0.0426 -0.3544 -0.6289
 8085W        W23894  14.764   5.133  12.945 -0.2347 -0.1443 -0.0728
 8086W        W23895   6.932   1.002  14.232 -0.1204  0.1717 -0.2048
 8087W        W23896   7.805   8.089   4.990 -0.2352  0.4833  0.0945
 8088W        W23897   6.401   1.154   0.939  0.2776  0.4747  0.3438
 8089W        W23898   2.130  17.690   5.079 -0.1904 -0.1542  0.1251
 8090W        W23899  14.817   5.857   2.006 -0.1632  0.2724 -0.1809
 8091W        W23900   3.928   9.288  12.220  0.2338  0.0938 -0.0677
 8092W        W23901  16.404   2.341   1.494 -0.1056  0.0499 -0.0369
 8093W        W23902   9.316  10.700  14.848  0.2578 -0.2985  0.2101
 8094W        W23903  17.581   2.285   0.434  0.0638  0.1145  0.0852
 8095W        W23904   1.711  11.550  10.825  0.0192 -0.1229  0.1364
 8096W        W23905   5.493  11.487   2.146 -0.1422 -0.2663  0.1436
 8097W        W23906   2.098   9.304  12.285 -0.0620 -0.1966 -0.0344
 8098W        W23907   3.751   5.177  12.586 -0.1343  0.1657  0.2342
 8099W        W23908   9.793   9.413   0.649  0.0672 -0.0205 -0.2494
 8100W        W23909  11.702   0.672   1.063 -0.0754  0.1432 -0.0096
 8101W        W23910  15.330   6.935  11.721  0.0973  0.1489 -0.0005
 8102W        W23911  14.096   0.500   3.220  0.3827 -0.0774  0.1624
 8103W        W23912  14.425  10.931  15.016  0.0905  0.1753 -0.2395
 8104W        W23913  10.760   8.758  14.165  0.2331  0.0391 -0.0603
 8105W        W23914   4.804   9.514  11.774  0.2056  0.1869 -0.3647
 8106W        W23915  17.443   4.525  10.493 -0.2390  0.2803  0.0816
 8107W        W23916   0.116  10.560   4.086 -0.1483 -0.1440 -0.2989
 8108W        W23917   1.334  13.755  12.142  0.4454 -0.4681 -0.3430
 8109W        W23918  14.469   6.784  15.553 -0.3554  0.2600 -0.0034
 8110W        W23919   1.867  12.875  13.516 -0.0297 -0.0610  0.0859
 8111W        W23920   7.835  14.939   5.235 -0.0965  0.1379  0.0126
 8112W        W23921   6.709  14.488   0.146 -0.0564  0.1328  0.2512
 8113W        W23922  14.040   0.774  16.000  0.1893 -0.0078 -0.1251
 8114W        W23923   0.856   3.836  12.245 -0.0264  0.1053  0.0800
 8115W        W23924  10.827  12.095   3.301 -0.0677  0.1818  0.0007
 8116W        W23925  15.707   4.834  12.587 -0.2536 -0.1445  0.0618
 8117W        W23926  14.179  15.455  12.800 -0.0417 -0.1728 -0.0113
 8118W        W23927   7.620  16.465   0.919 -0.2944  0.0420 -0.0095
 8119W        W23928   3.106   2.226  16.604  0.2466 -0.3656  0.2260
 8120W        W23929  17.735  14.328   2.055  0.0222  0.3491  0.0260
 8121W        W23930   5.125   6.853   4.232  0.0416  0.0484  0.1151
 8122W        W23931   2.932  10.472  11.076  0.2214  0.3361  0.1274
 8123W        W23932  13.071  15.762   2.326  0.0670 -0.2918  0.2516
 8124W        W23933   3.239   8.760  15.120  0.0376  0.0290  0.1565
 8125W        W23934   0.646  13.822  14.205  0.3730  0.1149 -0.0717
 8126W        W23935  13.330  11.517   6.243  0.0535  0.4395 -0.3061
 8127W        W23936  13.949  15.929  15.406 -0.0054 -0.2678 -0.0418
 8128W        W23937   4.739   5.477  11.456  0.0247  0.1841  0.1263
 8129W        W23938   4.813   1.769   1.736  0.1787 -0.0335  0.2809
 8130W        W23939  16.413  12.652   1.305 -0.0146 -0.2989  0.1348
 8131W        W23940   1.901  13.442   4.914 -0.0128  0.0492 -0.0524
 8132W        W23941   3.744   2.654   3.913  0.0499 -0.1542  0.1211
 8133W        W23942  16.950   9.844   4.177  0.0481 -0.2933 -0.0034
 8134W        W23943  14.186   1.247  16.526  0.0855  0.2224 -0.0455
 8135W        W23944  11.421  10.760   0.137 -0.1229  0.0007 -0.3716
 8136W        W23945   4.861   7.106   1.700 -0.3449  0.2731  0.1706
 8137W        W23946  16.953   8.422   3.748  0.0085 -0.0240 -0.0894
 8138W        W23947   4.510  11.926   3.971 -0.1378 -0.0491 -0.0402
 8139W        W23948  17.368   0.587   1.459  0.0959 -0.1873  0.0213
 8140W        W23949  17.327  16.756   4.193  0.0247 -0.1300 -0.2832
 8141W        W23950  15.906  13.519   3.693 -0.0604 -0.0179 -0.1243
 8142W        W23951   7.983   2.157   3.799 -0.1694  0.1498  0.0312
 8143W        W23952  17.126  11.058   1.782  0.0775  0.0117 -0.3260
 8144W        W23953  17.331   8.841  13.737 -0.1070 -0.1279  0.1762
 8145W        W23954  12.521   0.999  12.696  0.2263 -0.0166  0.1440
 8146W        W23955  13.913   1.760  14.624 -0.2350  0.0000 -0.0700
 8147W        W23956  15.646  16.683   3.135 -0.2095 -0.2202  0.1851
 8148W        W23957  13.004   9.734  11.949  0.0992  0.0014 -0.1049
 8149W        W23958  11.380   9.400  11.824 -0.0503  0.1355 -0.0395
 8150W        W23959  14.505  13.874   5.594 -0.0861 -0.1871 -0.0569
 8151W        W23960   9.298  10.467  16.639  0.0689 -0.1013 -0.1633
 8152W        W23961  16.163  14.238  12.668  0.0484 -0.0359  0.1022
 8153W        W23962   7.281  11.083   4.335  0.4461 -0.0688  0.2378
 8154W        W23963  13.986   4.214  15.453  0.2598  0.1268  0.0267
 8155W        W23964   0.865   3.134  13.398  0.4368  0.1281 -0.0053
 8156W        W23965   0.158  17.624   0.125  0.0350  0.2360  0.1041
 8157W        W23966   5.748   8.386  14.941  0.3108  0.0174  0.0071
 8158W        W23967  11.910   3.349   1.261 -0.0937  0.0126  0.2142
 8159W        W23968  13.446   0.185   2.923  0.0908  0.1217  0.1600
 8160W        W23969   9.749   3.538   3.180  0.1275 -0.0889  0.1972
 8161W        W23970   9.872  10.742  12.629 -0.1774 -0.1995  0.3085
 8162W        W23971  17.270  10.236   0.734 -0.0366 -0.1307 -0.3816
 8163W        W23972   3.276  15.148   4.577 -0.1302 -0.1052  0.0690
 8164W        W23973   2.546  11.243  13.662  0.2101  0.1473  0.0837
 8165W        W23974   7.130  15.033   2.078 -0.0695 -0.1049  0.0237
 8166W        W23975  11.729   0.333  13.163 -0.2588  0.0061 -0.1132
 8167W        W23976   3.261   6.120   4.236 -0.2245 -0.2188 -0.1223
 8168W        W23977   5.445  17.717  14.536 -0.1040 -0.2804 -0.2926
 8169W        W23978  15.749   9.263  12.808 -0.1886 -0.1172 -0.0893
 8170W        W23979  11.548   4.337   5.452  0.1003 -0.0298  0.1392
 8171W        W23980   6.033  13.001  13.843 -0.1143 -0.2243  0.1720
 8172W        W23981  11.936   1.570  13.762 -0.0388  0.2877  0.2219
 8173W        W23982   8.463  16.246   5.359 -0.1137 -0.0889  0.0882
 8174W        W23983  11.626   1.034  15.018  0.3638 -0.3612 -0.1182
 8175W        W23984  11.005   0.413  11.896 -0.1074 -0.1216 -0.2767
 8176W        W23985   9.489   1.875   1.341  0.1381  0.1722  0.1576
 8177W        W23986  11.414  17.958   1.692 -0.0494  0.1153  0.2117
 8178W        W23987  11.598  10.659  12.423  0.2018  0.0366  0.3431
 8179W        W23988   6.911  15.167   6.439  0.1628 -0.1861 -0.3566
 8180W        W23989  16.324   8.845   1.029 -0.0858 -0.2067  0.2326
 8181W        W23990   8.112  14.737  14.577  0.2396  0.1803  0.1273
 8182W        W23991   4.130  12.851  13.300 -0.1097  0.0219 -0.1370
 8183W        W23992  15.055   3.682  12.926 -0.1989 -0.0007  0.1067
 8184W        W23993  10.897  14.969  12.171 -0.0114 -0.1092  0.0366
 8185W        W23994  10.853   3.111  15.829  0.1469 -0.1503 -0.0730
 8186W        W23995  10.370  14.175   5.400 -0.0906  0.1916  0.1042
 8187W        W23996  16.445  14.879   4.038 -0.1295 -0.0122 -0.1953
 8188W        W23997  14.258   5.004  14.494 -0.0397  0.0104 -0.1339
 8189W        W23998  12.233   0.085   4.564 -0.1499  0.2353  0.1805
 8190W        W23999   7.532  14.631  11.573 -0.1313 -0.2664  0.0178
 8191W        W24000   1.767   8.889  14.488  0.3252  0.0245  0.0026
 8192W        W24001  12.005   4.925   5.923  0.1424 -0.1967 -0.0010
 8193W        W24002   2.898  11.008   5.125 -0.2448  0.0771  0.0135
 8194W        W24003   1.269   4.163   6.008  0.0695 -0.0243 -0.1621
 8195W        W24004   9.482   4.865   3.082 -0.1899  0.1802 -0.2202
 8196W        W24005   9.881  16.056  14.004  0.0891  0.2726 -0.1053
 8197W        W24006   8.610   9.602  12.568 -0.0901  0.3234 -0.0937
 8198W        W24007   5.061   0.190  12.719  0.1498 -0.1207 -0.1271
 8199W        W24008   2.647  10.350  14.911  0.0125 -0.0124  0.1434
 8200W        W24009  16.304   3.489   3.638 -0.0483  0.0488  0.1117
 8201W        W24010  15.821   5.241   3.076  0.0210 -0.0182  0.0648
 8202W        W24011  14.096  13.815   2.799  0.1895  0.1758  0.0553
 8203W        W24012   1.933  16.498   1.333  0.0529 -0.0251 -0.0815
 8204W        W24013   2.213   0.281  12.786  0.1638  0.2065 -0.0438
 8205W        W24014   5.986   1.672  12.843 -0.0361  0.2446  0.0606
 8206W        W24015  13.016   1.742  14.866 -0.0030  0.1471 -0.0392
 8207W        W24016   9.767  11.270  12.527  0.1493  0.1307  0.1894
 8208W        W24017   0.787   6.797   5.883 -0.0386  0.3304 -0.0975
 8209W        W24018   1.969   0.085   5.420  0.2922  0.2070 -0.2857
 8210W        W24019  15.109   1.145   1.493 -0.0789  0.2654 -0.0455
 8211W        W24020   8.055  17.477   1.421 -0.3941  0.2018  0.1214
 8212W        W24021   2.721  12.748  16.568  0.0801  0.0838  0.0677
 8213W        W24022  16.334   2.205  12.597 -0.1584 -0.0421 -0.2303
 8214W        W24023  14.771  14.319   3.807  0.0614  0.1325  0.2211
 8215W        W24024  10.986  11.597   5.597 -0.1057  0.0225  0.2951
 8216W        W24025  15.394   1.410   2.483  0.0400 -0.0558 -0.0059
 8217W        W24026   3.167  11.081   0.584 -0.3298 -0.1116 -0.2433
 8218W        W24027  15.236   3.572   5.359 -0.0107  0.0251 -0.0156
 8219W        W24028  10.174  10.979  12.186 -0.1075 -0.3257  0.2412
 8220W        W24029   0.038  15.560   3.928 -0.0405 -0.0078  0.1145
 8221W        W24030   5.219   1.624   2.158  0.1606  0.2228 -0.0596
 8222W        W24031   6.302   2.818  13.943  0.0887 -0.1760 -0.0436
 8223W        W24032   5.810   9.704   1.719 -0.1041 -0.0336  0.1422
 8224W        W24033   4.064   2.761  16.654  0.0862  0.0741  0.2393
 8225W        W24034   1.497  12.259   2.683 -0.0159  0.0739  0.2162
 8226W        W24035  14.829   4.449  15.134  0.0881  0.1853  0.0636
 8227W        W24036   8.341   9.243  16.609 -0.3986 -0.1474 -0.0306
 8228W        W24037  15.649   8.606   5.044  0.0007  0.0644 -0.1040
 8229W        W24038   0.031   5.103   4.985  0.2156 -0.0186  0.1773
 8230W        W24039   3.782   0.737   5.281  0.0709  0.3613  0.2018
 8231W        W24040   9.253  16.916  16.105 -0.1683  0.0674 -0.0966
 8232W        W24041   1.787   8.230   0.639 -0.2142 -0.0539 -0.3192
 8233W        W24042   8.488   8.145   3.503 -0.0525  0.3268 -0.1799
 8234W        W24043  13.300   5.700   4.721 -0.0274 -0.0228  0.0553
 8235W        W24044  16.571   9.047  13.434  0.1185  0.0564  0.0231
 8236W        W24045   4.609  13.546   1.489 -0.0952  0.0752  0.0724
 8237W        W24046  16.973  15.227  12.868 -0.1810 -0.0677 -0.1400
 8238W        W24047  12.281   8.811   2.432  0.2122 -0.1827  0.0687
 8239W        W24048   0.546  17.392   2.739 -0.1501  0.1308  0.1640
 8240W        W24049   1.142   9.568   1.156 -0.0904 -0.0255  0.0232
 8241W        W24050   0.109   3.313  10.084  0.1270  0.2324 -0.0716
 8242W        W24051  17.693  13.241   0.715  0.2002  0.2938  0.2527
 8243W        W24052   4.090  17.916  15.521  0.0841 -0.2407  0.0279
 8244W        W24053  11.370  15.176   4.983  0.0162  0.2665  0.1793
 8245W        W24054   2.226  15.838  13.612 -0.0369 -0.3232 -0.2522
 8246W        W24055  12.842   4.053   3.078 -0.0310 -0.0612 -0.1892
 8247W        W24056  13.241   7.649  12.581  0.1055  0.1000 -0.3434
 8248W        W24057  11.731  13.564  16.099 -0.1922  0.0378 -0.1224
 8249W        W24058   5.347   5.520  13.381 -0.0009 -0.0966  0.0651
 8250W        W24059  15.538   8.751   0.939 -0.1282 -0.2529 -0.0369
 8251W        W24060   5.030  17.725  15.308 -0.2744  0.0519  0.2678
 8252W        W24061   9.190  15.597   1.775 -0.1895  0.1309  0.2598
 8253W        W24062   4.330  12.463  13.734 -0.2097  0.0375 -0.1526
 8254W        W24063  14.172  13.265  10.740 -0.0461 -0.1936 -0.0646
 8255W        W24064   3.468   4.243   4.896  0.1167  0.3383  0.1123
 8256W        W24065  14.489   5.378  13.609 -0.0179 -0.0809  0.0896
 8257W        W24066   8.997   6.919   3.647  0.0033 -0.0469 -0.1195
 8258W        W24067   2.192   8.881   4.465 -0.0715  0.4920  0.1202
 8259W        W24068   2.000  13.352   1.096  0.0556  0.0681 -0.2085
 8260W        W24069   9.268  11.603   2.612 -0.0772  0.3382  0.2310
 8261W        W24070   9.063  14.670  10.742 -0.1097  0.2407 -0.1008
 8262W        W24071  17.842   0.423   3.513  0.3182 -0.0317 -0.2346
 8263W        W24072   8.129   1.703   2.166  0.0050  0.0342  0.0590
 8264W        W24073   0.577  17.569  16.518 -0.1513  0.0978  0.2635
 8265W        W24074   2.996   9.962  14.182 -0.0359  0.0268  0.0029
 8266W        W24075  14.023  11.066  14.756  0.1431  0.2072  0.0220
 8267W        W24076  13.119   0.252   0.450 -0.1708 -0.0242 -0.2005
 8268W        W24077   0.475   4.393  10.675  0.0894 -0.0646 -0.1076
 8269W        W24078  15.891   7.649   4.753 -0.0150  0.1296 -0.1579
 8270W        W24079   1.283  12.351  13.100 -0.0231  0.3888  0.0027
 8271W        W24080  15.309   8.203  12.251 -0.0591 -0.0875 -0.0741
 8272W        W24081   4.985  10.971  13.536 -0.2434  0.0242 -0.2036
 8273W        W24082   9.741  12.915   0.607 -0.5115  0.0905  0.1068
 8274W        W24083  15.559  14.231   3.986 -0.2584 -0.0110  0.1362
 8275W        W24084   6.995   9.878   1.169 -0.4191  0.0598  0.0095
 8276W        W24085   0.298  13.688   3.058  0.5107 -0.4169 -0.0172
 8277W        W24086   1.815  11.255   4.614 -0.2625 -0.1933  0.1070
 8278W        W24087  13.207   6.483  12.669  0.2460 -0.1818 -0.0446
 8279W        W24088   0.633  12.507   4.908 -0.0591  0.0508 -0.0189
 8280W        W24089   6.515   3.280   0.461 -0.1684 -0.1604  0.2528
 8281W        W24090   7.541  13.775   2.870 -0.1219  0.0116  0.2150
 8282W        W24091   0.229  14.141   2.190 -0.1124 -0.2535  0.0097
 8283W        W24092   1.444   6.744   3.458 -0.2597 -0.2241  0.3563
 8284W        W24093  16.409  17.163   3.721 -0.1985 -0.2799  0.3875
 8285W        W24094   9.871  16.711   2.104  0.1412 -0.1440 -0.1931
 8286W        W24095   4.787  15.839   4.634  0.0336  0.0385 -0.2917
 8287W        W24096  13.852   7.792   0.362  0.0862 -0.2399 -0.1035
 8288W        W24097  16.786   7.914   6.339 -0.0365  0.1113  0.1841
 8289W        W24098   4.589  14.065  11.260 -0.0022  0.1962  0.0619
 8290W        W24099   3.710  16.938  15.799 -0.2031  0.3439 -0.0241
 8291W        W24100   1.791   6.975   5.111 -0.1918 -0.0119 -0.1103
 8292W        W24101   4.692   6.005  12.934 -0.2496 -0.1765  0.1715
 8293W        W24102  11.889   7.138   5.908  0.0446 -0.1310 -0.3733
 8294W        W24103   3.029   8.622   1.363  0.0711  0.0341 -0.0697
 8295W        W24104  17.310  16.627  10.863 -0.0317  0.2573  0.0368
 8296W        W24105  12.140  14.918  12.733 -0.1170  0.0363  0.1213
 8297W        W24106  16.622  10.026   5.549  0.1579 -0.0911  0.1935
 8298W        W24107   3.913   9.728   1.841  0.0280  0.0244 -0.2838
 8299W        W24108   4.801  16.159  14.341  0.1015 -0.3289  0.0087
 8300W        W24109   5.070   9.697   4.170 -0.1435 -0.0827 -0.2480
 8301W        W24110  15.744  17.315   3.933 -0.1767  0.2630 -0.2077
 8302W        W24111   7.843   5.368  12.852  0.0986  0.0524  0.0068
 8303W        W24112  12.501   1.419  13.005  0.0725  0.5094  0.0482
 8304W        W24113   5.879   7.555   6.105  0.2203  0.0121  0.1633
 8305W        W24114   2.774  12.583   4.753 -0.3332 -0.0728 -0.2846
 8306W        W24115  12.928  10.510   2.387 -0.1576  0.2391 -0.1660
 8307W        W24116   0.883   9.775  14.041 -0.1431 -0.4345 -0.0028
 8308W        W24117   3.354   6.175  12.753 -0.0097 -0.3097  0.3299
 8309W        W24118  12.901  12.422  12.717 -0.3250 -0.1087  0.0291
 8310W        W24119   3.111  14.597  13.510  0.2122  0.1033 -0.0653
 8311W        W24120  16.854  12.359   4.594  0.0784 -0.1453 -0.0256
 8312W        W24121  13.609   0.131   0.248  0.1486 -0.3140  0.0954
 8313W        W24122   9.402   3.370   1.919 -0.4011  0.1096  0.0113
 8314W        W24123  17.951   5.993  16.237 -0.1264  0.0106  0.3595
 8315W        W24124   8.017  14.623   3.189 -0.0001 -0.0622 -0.0692
 8316W        W24125  16.313  16.731  14.173  0.0966 -0.0274 -0.0718
 8317W        W24126   0.182   1.805  13.231  0.1039 -0.0382 -0.1161
 8318W        W24127   7.004  16.900  12.898 -0.0886 -0.4094  0.0901
 8319W        W24128   4.562  17.458   5.552 -0.0393  0.1711 -0.0937
 8320W        W24129  12.660   8.841  12.188 -0.0088  0.0697  0.1303
 8321W        W24130  14.077   8.012   4.120 -0.1814  0.2414  0.2328
 8322W        W24131  15.284   6.411   2.482  0.0671  0.2048  0.1312
 8323W        W24132   8.041  14.606   1.623 -0.1551  0.1579  0.2122
 8324W        W24133   0.970   9.516   1.608  0.1905  0.2086 -0.1335
 8325W        W24134   6.150   7.693  14.201  0.1536 -0.1618 -0.2818
 8326W        W24135  11.759  15.057  16.436  0.1533  0.2224 -0.0297
 8327W        W24136   4.441   3.564   4.240  0.0048  0.1086 -0.2155
 8328W        W24137   4.775   9.539  13.819 -0.3395  0.2010  0.0511
 8329W        W24138   9.371  10.301   5.368  0.0865  0.3011 -0.1653
 8330W        W24139  17.193   4.490  16.178 -0.0008 -0.0562 -0.2513
 8331W        W24140  14.790   1.056   5.998 -0.2495  0.0256  0.0573
 8332W        W24141  16.448  10.669   0.938 -0.0019  0.0509 -0.2655
 8333W        W24142   4.496  16.895   5.749  0.1170 -0.1316 -0.3414
 8334W        W24143  17.112   3.661  15.072  0.0527  0.1737 -0.0284
 8335W        W24144  15.919  11.559  14.374  0.0325 -0.1764  0.0306
 8336W        W24145   5.890   5.557   2.804 -0.2353  0.2376 -0.0415
 8337W        W24146  16.106   4.327  14.459 -0.0843 -0.0791 -0.2429
 8338W        W24147   6.330  12.092  14.375 -0.0316  0.0103  0.0463
 8339W        W24148  13.092  15.143  13.587  0.0137 -0.0302  0.0650
 8340W        W24149  10.879   8.745  14.992 -0.0598  0.0597 -0.1848
 8341W        W24150  16.399  13.018  14.177  0.2864  0.3704 -0.0357
 8342W        W24151   3.461  14.130  12.264 -0.2874 -0.0132 -0.0258
 8343W        W24152   2.017   8.070  10.052 -0.1694  0.0704  0.0944
 8344W        W24153   8.302  10.269  13.025 -0.1962  0.0433  0.0014
 8345W        W24154   2.643  10.830  14.050 -0.1841  0.1213 -0.2433
 8346W        W24155   6.440  10.486  12.618 -0.0599  0.1149 -0.0117
 8347W        W24156  13.136   1.534   2.294 -0.2086  0.1904  0.1037
 8348W        W24157   4.066  16.650  13.148 -0.1342 -0.2914  0.2910
 8349W        W24158   9.015   4.986   0.129  0.2477 -0.1515  0.0694
 8350W        W24159  10.611   8.076   2.425  0.0571  0.0655 -0.3215
 8351W        W24160   1.084   7.750  14.685 -0.0246 -0.1597  0.1153
 8352W        W24161  17.623   6.023   4.029 -0.1378 -0.0172  0.1945
 8353W        W24162   7.273   1.234   1.580 -0.0084  0.1619  0.1294
 8354W        W24163  11.399   8.354  16.614  0.0055 -0.0540  0.1149
 8355W        W24164   5.305   4.045  13.360 -0.0302 -0.1219 -0.0038
 8356W        W24165   3.939  10.487  16.355  0.0259  0.3144  0.2672
 8357W        W24166   7.952   3.955  15.156  0.0405 -0.1414 -0.1039
 8358W        W24167  15.038   8.132  11.778 -0.2927 -0.2057 -0.1407
 8359W        W24168   6.379   5.254   2.826  0.4708 -0.0955 -0.0928
 8360W        W24169   0.774   0.087  16.422 -0.0177  0.3047  0.0034
 8361W        W24170   1.730   5.622   0.712 -0.0822 -0.1226 -0.1221
 8362W        W24171   7.202   2.198  15.973  0.0717 -0.1739  0.1296
 8363W        W24172  10.675   4.908  12.634  0.1280  0.1355  0.2402
 8364W        W24173   1.067   9.870  11.270 -0.0364  0.1963  0.3771
 8365W        W24174  11.367   5.205   0.862 -0.0379 -0.0815  0.1472
 8366W        W24175   8.155  14.029  11.611 -0.0918  0.0431 -0.4624
 8367W        W24176  13.988  17.857   4.312  0.3116  0.1582 -0.0135
 8368W        W24177   1.271  16.686  14.943  0.2207  0.1052 -0.2035
 8369W        W24178   0.068   4.057  14.263 -0.0516 -0.1255  0.0339
 8370W        W24179   4.614  10.192  13.253  0.0175  0.2060  0.0578
 8371W        W24180   4.181   5.003  12.054  0.0782  0.0814 -0.1964
 8372W        W24181  14.074   1.161   1.967  0.2117  0.0240 -0.2079
 8373W        W24182   2.447   4.795   0.241  0.0877  0.1447  0.0160
 8374W        W24183   5.743   7.309   4.412 -0.1818  0.2804  0.3014
 8375W        W24184   9.023  11.897   1.857 -0.0142  0.1241  0.0865
 8376W        W24185  12.569  10.779  15.263  0.2491  0.1103 -0.2659
 8377W        W24186   9.884   5.010  15.412 -0.0401 -0.0926  0.0391
 8378W        W24187   4.156   2.787  14.502 -0.0136 -0.0131  0.1120
 8379W        W24188  11.253   5.586   2.894 -0.4569  0.0883 -0.1264
 8380W        W24189   9.384   3.607   5.697  0.2302  0.0248 -0.2364
 8381W        W24190   7.554   2.850   4.411 -0.0743  0.0546 -0.0107
 8382W        W24191   0.072  17.246   4.451 -0.2880  0.1122 -0.2271
 8383W        W24192  12.145   5.030   5.402  0.0957 -0.2520  0.0745
 8384W        W24193   2.112  12.060   5.477  0.0184 -0.0374  0.0565
 8385W        W24194   8.866  11.653  14.072 -0.0060  0.0582 -0.2483
 8386W        W24195   2.925   8.285   2.864  0.0236  0.3946  0.2582
 8387W        W24196  14.513   0.054  13.348  0.0855  0.5350  0.0106
 8388W        W24197   1.378   8.675  15.032  0.1482 -0.0809 -0.3400
 8389W        W24198   2.843   2.142   4.093 -0.1178 -0.3973  0.4681
 8390W        W24199   0.263  16.686  12.199  0.1400 -0.1807 -0.0066
 8391W        W24200   0.494   1.573   4.538  0.0870 -0.0727 -0.0312
 8392W        W24201   6.957   1.415   3.196 -0.1987 -0.0446 -0.1497
 8393W        W24202   0.081   4.011   1.601  0.0863 -0.2017 -0.1867
 8394W        W24203  16.605   4.139  14.547 -0.2401 -0.0967  0.2150
 8395W        W24204   4.819   6.219  10.708  0.2718  0.3115  0.0220
 8396W        W24205   2.765  10.131  15.368  0.0563 -0.0563  0.1440
 8397W        W24206  14.026   4.694   3.430 -0.1200 -0.2733  0.0858
 8398W        W24207  15.890   7.766   6.229  0.1438 -0.2818 -0.1982
 8399W        W24208   7.890   5.752   1.746 -0.2512 -0.2076  0.1202
 8400W        W24209  11.705   3.470  15.654 -0.2522 -0.1065  0.2054
 8401W        W24210   2.879   3.135  15.554 -0.1747 -0.0112  0.0007
 8402W        W24211   4.438  13.060  10.170 -0.0382  0.1860  0.3396
 8403W        W24212   2.752  17.107  15.791  0.1882  0.0927  0.0176
 8404W        W24213   6.067   5.132   2.473 -0.2154 -0.1350 -0.0406
 8405W        W24214   1.755  17.796  12.829  0.2606 -0.0037  0.2620
 8406W        W24215   4.917   8.157  14.040  0.0133  0.0521 -0.0368
 8407W        W24216  13.062   5.230  14.693  0.4278 -0.1041 -0.4467
 8408W        W24217   3.731  13.007   5.019  0.2896 -0.2063  0.0251
 8409W        W24218  14.307   7.626   3.810 -0.0296 -0.3093 -0.0034
 8410W        W24219   1.001  14.392   3.619  0.0683  0.1504 -0.1202
 8411W        W24220   6.189   5.614   4.199  0.0875 -0.0033 -0.1311
 8412W        W24221   6.155  11.805   4.952  0.1177  0.5571  0.3528
 8413W        W24222   4.223  10.581  13.203  0.0901  0.1987 -0.2956
 8414W        W24223   8.178   4.738   2.678 -0.3308 -0.0684 -0.0517
 8415W        W24224   0.425  12.244  12.757 -0.2400  0.1844 -0.1842
 8416W        W24225   4.436  13.467   5.973 -0.1256 -0.5205  0.0043
 8417W        W24226   3.200   7.458  12.109  0.0853 -0.1309 -0.1250
 8418W        W24227  16.732   3.589   0.587 -0.3375 -0.1160 -0.1911
 8419W        W24228  13.432   0.168   2.409  0.1450 -0.0475 -0.0664
 8420W        W24229   6.578   5.708   4.538  0.3109  0.1160 -0.1542
 8421W        W24230   5.569  12.931  12.857 -0.3470  0.2298 -0.2335
 8422W        W24231   4.240   3.522  15.967  0.3691  0.0707 -0.5254
 8423W        W24232   4.278   7.783  14.082  0.0843 -0.0815 -0.2395
 8424W        W24233   4.556  12.423   2.824  0.0412 -0.0621 -0.1534
 8425W        W24234  11.442  13.784   6.912 -0.1429 -0.1765  0.1913
 8426W        W24235  17.709  11.553   4.060  0.1595 -0.0617 -0.1367
 8427W        W24236   8.870  10.882  16.259  0.1187  0.1633  0.0090
 8428W        W24237  14.270   8.937  16.628  0.1394  0.0656 -0.1434
 8429W        W24238   0.282  16.710   3.146 -0.3168 -0.1560  0.0548
 8430W        W24239   0.923   7.684  11.699 -0.1484  0.1000 -0.4950
 8431W        W24240   6.556  12.758   4.069  0.1375 -0.0449 -0.1605
 8432W        W24241  14.694   9.120  16.109 -0.0273  0.0174 -0.0252
 8433W        W24242  13.219  14.434  14.732 -0.0175 -0.3031 -0.2287
 8434W        W24243   2.631  11.649   4.215  0.0339  0.1058  0.2108
 8435W        W24244  10.739   3.548  12.834  0.1618 -0.4473  0.0104
 8436W        W24245  16.359   6.842  11.734  0.0044  0.1957 -0.1339
 8437W        W24246   9.085  16.555   4.928  0.2546  0.0101  0.0469
 8438W        W24247   5.646   0.498  12.505 -0.4118 -0.2908  0.3968
 8439W        W24248  13.467   9.134   2.841  0.1129  0.3796 -0.1195
 8440W        W24249   5.785   7.248   1.660 -0.0053  0.0218 -0.3487
 8441W        W24250  15.264   2.435   3.856 -0.3426  0.0645  0.1682
 8442W        W24251   3.391  13.250  13.372  0.3062  0.1770  0.0876
 8443W        W24252  16.284   5.320   4.526 -0.0259  0.0864  0.0015
 8444W        W24253  15.515  10.807  13.162  0.1664 -0.1654  0.0670
 8445W        W24254   5.402  17.585   4.860  0.0146 -0.1665  0.1402
 8446W        W24255  15.296   0.379  13.575 -0.0318  0.1326 -0.0939
 8447W        W24256   4.767   9.179   4.992 -0.0693 -0.2824 -0.2375
 8448W        W24257   9.890   1.410   3.767  0.1871 -0.1382 -0.0122
 8449W        W24258   5.266  16.392  11.750 -0.0898 -0.0540  0.0737
 8450W        W24259  10.917   8.915   2.712  0.0211 -0.3238  0.0827
 8451W        W24260   3.760   9.690  11.770  0.2031  0.1901 -0.0733
 8452W        W24261   0.059   4.758   5.588 -0.1894 -0.0162 -0.2348
 8453W        W24262   3.381  12.615   0.952  0.3029 -0.3637  0.1970
 8454W        W24263  11.106  16.025  15.278  0.3682  0.2151  0.3047
 8455W        W24264   9.560  13.686   2.811 -0.1846  0.0713 -0.0320
 8456W        W24265   4.336  11.580   6.210  0.0218  0.0647  0.0465
 8457W        W24266   4.906   0.807   2.536  0.1755  0.0244 -0.1510
 8458W        W24267  12.673  10.512  12.137  0.0709 -0.1956 -0.0299
 8459W        W24268  14.739   6.646  15.152 -0.1498 -0.0690 -0.0665
 8460W        W24269   8.608  15.130   5.627 -0.1273  0.1633  0.1443
 8461W        W24270   1.250  17.004   0.637 -0.1381  0.1646 -0.2007
 8462W        W24271   9.725   7.201   2.229 -0.1717 -0.2110  0.0867
 8463W        W24272   9.465   3.009   2.264  0.0717  0.1343  0.0103
 8464W        W24273   7.500  13.094  16.087 -0.2531 -0.0096  0.0339
 8465W        W24274  14.548   7.627   2.337  0.3440  0.1179 -0.0595
 8466W        W24275   3.447  12.263  16.186  0.0467  0.0286  0.0563
 8467W        W24276   6.692  10.757   1.882  0.0734 -0.1872  0.2121
 8468W        W24277  12.630  16.593  11.905 -0.0433 -0.1544  0.0524
 8469W        W24278  17.383   9.571   3.241  0.2031 -0.4309  0.0385
 8470W        W24279   2.150   2.410  15.047 -0.3455 -0.1393  0.0993
 8471W        W24280  11.736  14.767   3.100  0.2563  0.0470  0.0228
 8472W        W24281  12.677   2.814   3.234  0.1388 -0.1866  0.1862
 8473W        W24282   6.681  14.797   4.376 -0.0548  0.1403  0.0422
 8474W        W24283   1.523   4.943  14.027 -0.1075 -0.0587 -0.0722
 8475W        W24284   9.306   1.408   4.258  0.0194 -0.0279 -0.0660
 8476W        W24285  10.571   1.367   3.242 -0.0280  0.1565  0.1781
 8477W        W24286   3.400  15.144   2.875  0.3314  0.0689 -0.0646
 8478W        W24287  17.643  12.816  14.610  0.0784  0.3088  0.2487
 8479W        W24288  11.346  11.270   0.190 -0.5538  0.0899  0.3314
 8480W        W24289  13.484  15.232   3.931 -0.1508 -0.2760  0.0506
 8481W        W24290   4.758  17.511   2.136 -0.2091  0.0444  0.3074
 8482W        W24291   5.145   3.234   6.254  0.1764 -0.1260 -0.1495
 8483W        W24292   5.703  11.476   4.851 -0.1354  0.0238  0.0593
 8484W        W24293   6.488  12.198  12.260  0.1745 -0.2340 -0.0672
 8485W        W24294   0.296  10.675  13.958 -0.1672  0.4184 -0.2914
 8486W        W24295  17.382   7.858   3.757  0.1490  0.0725  0.2334
 8487W        W24296   9.937  17.154   1.307  0.1107 -0.3893  0.3175
 8488W        W24297   1.666  11.145   2.568 -0.1266 -0.0722 -0.2069
 8489W        W24298  10.735   0.455   2.170 -0.1595  0.1524 -0.1850
 8490W        W24299   7.108  11.864   1.271 -0.0133  0.1975 -0.2122
 8491W        W24300  12.299  13.332   1.445  0.0588 -0.1533 -0.0343
 8492W        W24301  16.302   4.014   3.479  0.0210  0.0192 -0.0403
 8493W        W24302   5.326   6.463  13.278  0.1830  0.0828 -0.1635
 8494W        W24303  16.320   6.104  15.150  0.3841 -0.3599 -0.1376
 8495W        W24304   1.593   0.794   4.555  0.1377 -0.2336  0.1646
 8496W        W24305  10.588   7.541  16.698  0.0745 -0.0939  0.0089
 8497W        W24306   2.906   5.112  15.050 -0.0741  0.5718 -0.2101
 8498W        W24307   6.160   7.515  14.709 -0.0166 -0.2268 -0.0194
 8499W        W24308   8.959  16.800  12.531 -0.3570 -0.4129 -0.1139
 8500W        W24309   9.001   9.734   4.353  0.1132  0.0553 -0.1620
 8501W        W24310   7.899  17.504  15.711  0.0217 -0.0882 -0.2028
 8502W        W24311   5.082  10.381  16.068 -0.4379 -0.0543 -0.1345
 8503W        W24312   5.438   7.515  14.907 -0.0348 -0.1847  0.1773
 8504W        W24313   8.487  12.353   4.264 -0.1607  0.1517  0.1614
 8505W        W24314   8.558   2.300   5.485  0.2808  0.0701  0.0822
 8506W        W24315   2.715   5.516  10.786  0.1147  0.2303  0.1509
 8507W        W24316   3.004   8.639   3.207 -0.1640 -0.1590  0.0371
 8508W        W24317   7.496   4.942   2.122  0.1087 -0.0066 -0.0623
 8509W        W24318   4.043  11.451  14.352 -0.1268  0.1600  0.0134
 8510W        W24319  14.257  17.680  11.788  0.0805 -0.1455 -0.0063
 8511W        W24320   4.164   2.343  13.856 -0.1754 -0.0722  0.1532
 8512W        W24321   7.924  16.569  14.317  0.2121 -0.2076  0.0161
 8513W        W24322   4.530   2.449  12.111 -0.2252 -0.0763 -0.0253
 8514W        W24323   3.316   7.593  12.610  0.1780 -0.0351  0.0554
 8515W        W24324  15.050   7.306   5.061  0.1096  0.3416  0.0824
 8516W        W24325  13.435   3.242   0.094  0.3270 -0.1028  0.1986
 8517W        W24326  10.522   3.838   5.090  0.0532 -0.0788 -0.2185
 8518W        W24327  12.808  16.017   4.085 -0.0815 -0.0479 -0.1218
 8519W        W24328  15.159  15.495  16.238 -0.0337 -0.0170 -0.0415
 8520W        W24329   0.082   2.522  11.460 -0.0584  0.1239 -0.0332
 8521W        W24330   7.170   1.776  13.737 -0.0105  0.2007 -0.2931
 8522W        W24331  16.597   6.566  12.152  0.2486 -0.1302 -0.1357
 8523W        W24332   3.439  12.474  12.198 -0.0242 -0.0750 -0.0708
 8524W        W24333   0.368  17.155   0.129  0.0015  0.3616  0.1272
 8525W        W24334   8.737  14.508  16.301  0.2150 -0.1140  0.1005
 8526W        W24335   9.206   8.340  11.806  0.1618 -0.1227  0.1680
 8527W        W24336  13.914  10.315  15.605 -0.0729  0.0397 -0.1906
 8528W        W24337   1.431   5.393   1.894  0.1065  0.0226  0.0495
 8529W        W24338   8.731   3.735  11.954  0.2562  0.1377 -0.0041
 8530W        W24339  14.506   9.433  12.250 -0.1767  0.2992 -0.0184
 8531W        W24340   2.098  10.896  13.702 -0.1829 -0.0270 -0.0176
 8532W        W24341  16.096  11.127   2.545  0.2592 -0.2027 -0.0532
 8533W        W24342   3.050  16.161  12.408 -0.1447  0.0982 -0.1976
 8534W        W24343  12.437  17.228   0.998 -0.2501  0.0777  0.0348
 8535W        W24344  13.628  13.897  15.332 -0.4180  0.2393 -0.2150
 8536W        W24345   7.491   2.207   1.703 -0.1752  0.1495 -0.1228
 8537W        W24346  12.593   7.740  14.445 -0.0962  0.0849 -0.3933
 8538W        W24347  17.319  15.991  14.589 -0.1241 -0.0137 -0.0765
 8539W        W24348   9.037   5.281  11.895  0.0484  0.0326  0.3312
 8540W        W24349   5.854  17.520   4.121  0.3508  0.1806  0.0614
 8541W        W24350  17.795  14.653   4.976 -0.0183  0.1420 -0.0756
 8542W        W24351  12.927   2.427  15.431 -0.0529  0.0526 -0.2441
 8543W        W24352   3.049  16.324   4.591  0.1473  0.3984 -0.0574
 8544W        W24353  11.480   9.589   1.573  0.1363  0.1009  0.0088
 8545W        W24354  14.074   5.539  11.762 -0.1465 -0.0387  0.3354
 8546W        W24355  11.798   6.542   3.997 -0.0363  0.0346 -0.1482
 8547W        W24356   1.397   7.216  13.894 -0.2613  0.2417  0.3772
 8548W        W24357   1.627  11.623   2.834  0.1151 -0.1730  0.0045
 8549W        W24358   5.881   2.497   5.533  0.1331 -0.1497 -0.0707
 8550W        W24359   0.955  14.358  15.888 -0.1903  0.0993  0.3073
 8551W        W24360   7.602  13.497   3.654  0.1039  0.0473  0.4219
 8552W        W24361  10.690   9.204  15.096  0.1197  0.0704 -0.2746
 8553W        W24362   2.884   3.949  16.134  0.0156 -0.0376  0.0531
 8554W        W24363   6.013   6.818   2.817 -0.0479  0.2078  0.1267
 8555W        W24364   3.168  14.606   5.178 -0.0620  0.0224  0.1333
 8556W        W24365   2.774  15.167  15.050 -0.2354  0.2070  0.1422
 8557W        W24366  11.500   9.814  14.425  0.4025  0.2058  0.0762
 8558W        W24367   8.730   6.804   5.068  0.0464  0.3275  0.0337
 8559W        W24368   1.343  12.595   3.783 -0.0941  0.0810  0.1074
 8560W        W24369   8.516  16.907   2.885 -0.0460 -0.1273  0.0917
 8561W        W24370   6.222  12.005   1.304 -0.1372 -0.0868  0.1398
 8562W        W24371   1.564  10.514  10.992 -0.0754  0.1471 -0.2410
 8563W        W24372  11.103   6.533  13.655  0.0543  0.0329 -0.1721
 8564W        W24373   8.056  16.564   4.144  0.3098  0.1472 -0.1619
 8565W        W24374  17.492   5.405  14.835  0.1557  0.1454  0.0329
 8566W        W24375   0.566  10.882   4.210 -0.0620 -0.0944 -0.2323
 8567W        W24376  17.309   8.668   0.501 -0.0590  0.3022  0.0700
 8568W        W24377  12.267  15.977   5.687  0.2559  0.1381  0.2061
 8569W        W24378   4.687   5.255  14.055  0.0826 -0.2089  0.0892
 8570W        W24379   1.853   0.725  12.817  0.2650  0.0205 -0.0193
 8571W        W24380  11.195   3.447   3.391 -0.2754  0.0329  0.0686
 8572W        W24381   3.677   3.921   1.368 -0.0322 -0.3220  0.2258
 8573W        W24382   8.725   2.495  14.455 -0.0681  0.1244  0.1860
 8574W        W24383   9.965   6.084  16.143  0.2653  0.0481  0.2907
 8575W        W24384  10.020  13.812  13.836 -0.2324  0.1515 -0.1429
 8576W        W24385   7.778  17.152  12.293 -0.1087  0.1049 -0.0163
 8577W        W24386  12.577  16.897  15.683 -0.4943 -0.2930  0.1291
 8578W        W24387   0.039  12.487   3.960  0.3134  0.0806  0.1852
 8579W        W24388   1.756  13.909   4.496  0.2843  0.1261 -0.1989
 8580W        W24389   9.718  12.963   6.443  0.1971 -0.0432 -0.0558
 8581W        W24390   3.838  12.571   2.510 -0.0975 -0.1027 -0.1433
 8582W        W24391  11.350   7.407  13.869 -0.0893  0.4849  0.0231
 8583W        W24392  13.912   4.555   6.369 -0.1040  0.0375 -0.1833
 8584W        W24393  12.652   2.315  14.106 -0.0373 -0.0591 -0.2581
 8585W        W24394   5.331   1.229   4.801 -0.2343  0.0121 -0.1656
 8586W        W24395   4.419   6.576  15.423 -0.3864  0.1571 -0.1127
 8587W        W24396  16.836  15.196  15.572  0.1086  0.0012 -0.1856
 8588W        W24397   1.939   1.304   0.150  0.0131  0.3066  0.0235
 8589W        W24398   0.681   1.963   2.225  0.1794  0.0944  0.0542
 8590W        W24399   4.891   5.243   0.567  0.0746 -0.0769  0.0331
 8591W        W24400   4.643   4.023   4.112 -0.1088 -0.0223 -0.0488
 8592W        W24401  11.175  17.899   3.837 -0.0734  0.0809 -0.0202
 8593W        W24402  16.164  17.292  15.987 -0.2122 -0.2520 -0.0927
 8594W        W24403  14.151  16.889  14.939  0.0808  0.2051  0.0692
 8595W        W24404   2.093  11.497  15.804 -0.2701  0.0357 -0.3083
 8596W        W24405   5.800   9.249   4.334  0.1770  0.1342  0.2060
 8597W        W24406   8.183  17.094   5.155 -0.0797  0.0417 -0.1751
 8598W        W24407  16.748   0.270  15.145  0.2882 -0.1015  0.2286
 8599W        W24408  12.440   2.181   3.758 -0.1762  0.1339 -0.1383
 8600W        W24409  14.439  12.566  13.088  0.0014  0.1394 -0.2435
 8601W        W24410   6.605  13.696   2.305 -0.1638 -0.0994 -0.0962
 8602W        W24411   5.919  14.523   5.533  0.4139 -0.0389  0.2948
 8603W        W24412  11.784  12.602  11.671  0.1079 -0.0567  0.2773
 8604W        W24413  10.642   3.075   1.166  0.0267  0.0999  0.1362
 8605W        W24414  17.286  17.425  14.783  0.2350 -0.1721  0.1184
 8606W        W24415  12.110  15.792   3.647 -0.0397 -0.0235  0.0046
 8607W        W24416   0.269  13.785   1.390  0.1732  0.1747 -0.1483
 8608W        W24417  17.657   5.684   5.014 -0.0213  0.0148 -0.0837
 8609W        W24418  11.660  16.050   2.796  0.4144 -0.2469  0.1664
 8610W        W24419   4.675  15.829   5.132 -0.0978 -0.2359 -0.0080
 8611W        W24420  15.990   1.508   2.053 -0.0202  0.0646 -0.3838
 8612W        W24421   5.913   8.937   0.958 -0.0315  0.1504 -0.1030
 8613W        W24422  13.375  12.579  13.138 -0.0764  0.4321 -0.0039
 8614W        W24423   2.889   8.045   1.953  0.1171  0.0949 -0.1782
 8615W        W24424  16.484   7.232   5.195  0.3310  0.0625  0.0989
 8616W        W24425  17.002  13.063  15.411  0.1199  0.1781  0.0230
 8617W        W24426  12.602   6.174   1.643 -0.3207 -0.0507 -0.3491
 8618W        W24427   5.104  16.110   5.044  0.1742  0.1566 -0.0145
 8619W        W24428  10.189   1.685   0.612  0.2433  0.2699 -0.1285
 8620W        W24429   9.523  10.985  13.962  0.3378  0.3745  0.0068
 8621W        W24430   8.499   9.813  14.296 -0.0025  0.1342  0.2975
 8622W        W24431  13.227  17.265   3.381  0.0291  0.2502  0.0466
 8623W        W24432  12.690  13.307   1.134  0.4645  0.0751  0.5183
 8624W        W24433   0.738   8.205   5.275 -0.0494 -0.0055 -0.2081
 8625W        W24434   4.031   0.611  15.533 -0.0756  0.3462  0.2914
 8626W        W24435  10.298  14.503   0.816 -0.0152  0.3154 -0.4250
 8627W        W24436  13.030   8.204  13.040  0.0532 -0.0517 -0.1642
 8628W        W24437  13.198   0.077  14.098  0.1182  0.0435  0.0362
 8629W        W24438  15.859  15.068   5.110 -0.2767  0.0756  0.1574
 8630W        W24439  13.148  13.471  16.093 -0.1732  0.2331  0.5104
 8631W        W24440   3.587   1.043  11.557  0.0932 -0.1261 -0.1561
 8632W        W24441  11.765  15.864   5.512  0.0102 -0.0645 -0.1814
 8633W        W24442  15.001  14.491   1.236 -0.2486 -0.0394 -0.2131
 8634W        W24443  15.633   5.154   0.327 -0.0028  0.1900 -0.3301
 8635W        W24444   6.479  15.553   0.010 -0.0479 -0.2140  0.0298
 8636W        W24445   8.431   6.985   2.145  0.0869  0.2627 -0.0013
 8637W        W24446   1.770  16.973  11.678 -0.0479  0.2001  0.2029
 8638W        W24447   6.019   1.631  14.147 -0.0933 -0.5026  0.0996
 8639W        W24448   7.721  15.759   1.082 -0.1425 -0.1547  0.1184
 8640W        W24449   0.438   4.108   0.264  0.0039  0.1829 -0.0303
 8641W        W24450  16.296  12.197   4.930 -0.2316  0.2596  0.2472
 8642W        W24451   2.079  17.628   4.572 -0.2057  0.1887 -0.0371
 8643W        W24452   9.688  12.084   5.025 -0.2175  0.0489  0.1346
 8644W        W24453   4.309   4.389   4.093 -0.1166 -0.4138 -0.2472
 8645W        W24454   7.560  16.528   6.439  0.2468  0.1279 -0.0585
 8646W        W24455   6.889   2.134  13.044  0.4386 -0.0828 -0.0666
 8647W        W24456   1.912  13.007   1.995  0.1466 -0.2511 -0.1542
 8648W        W24457  11.788  16.537   1.964  0.2084  0.0865  0.0134
 8649W        W24458   9.275  15.219  15.328  0.1374 -0.0428 -0.1097
 8650W        W24459   2.341   9.661   5.734 -0.1089  0.0276 -0.4084
 8651W        W24460   2.936   8.638   4.532 -0.0231  0.1601  0.2019
 8652W        W24461  13.624   3.529   1.199 -0.2261  0.0909  0.0198
 8653W        W24462   0.221  11.627   4.031  0.2910 -0.0048 -0.1312
 8654W        W24463  12.078  17.608   4.843  0.4695 -0.3128 -0.1910
 8655W        W24464   5.881   8.364   0.081 -0.1361 -0.2670 -0.1805
 8656W        W24465  17.285  16.966   2.150 -0.0438 -0.0575  0.0041
 8657W        W24466   7.343   9.348   1.995  0.3973  0.0941  0.0582
 8658W        W24467  15.990   8.329   3.757  0.1338  0.4085 -0.2743
 8659W        W24468   2.212  10.218  16.237 -0.0176 -0.0249 -0.1068
 8660W        W24469   5.665  15.054   1.769 -0.0974  0.0284 -0.1218
 8661W        W24470   2.416   4.843   4.711  0.1332  0.1390  0.1217
 8662W        W24471   2.515   6.118   0.608  0.0945  0.0514  0.0962
 8663W        W24472  10.764   2.155   1.557  0.0857 -0.1327  0.0370
 8664W        W24473  13.873   7.278   0.460 -0.0836 -0.2570 -0.0085
 8665W        W24474  14.055   8.693   5.591  0.0141 -0.0005  0.3916
 8666W        W24475   3.302   2.594   0.299 -0.0014 -0.3852  0.0238
 8667W        W24476   3.699  13.630   5.567  0.0236  0.0074  0.0661
 8668W        W24477   5.610  13.911   1.558  0.1514  0.1574 -0.0538
 8669W        W24478   5.120  17.557   1.223 -0.2241 -0.0879 -0.0382
 8670W        W24479  14.424   5.899  13.498 -0.1887 -0.2037 -0.2641
 8671W        W24480  14.270  11.064  11.852 -0.3061 -0.0863  0.0287
 8672W        W24481  10.064  13.853   3.424 -0.1663  0.1872  0.0334
 8673W        W24482   6.602   0.467   5.934 -0.0909 -0.0332  0.1996
 8674W        W24483  15.722  15.181  15.473  0.2896  0.2673 -0.0327
 8675W        W24484   7.617   3.047  16.361  0.2254  0.1781  0.1508
 8676W        W24485  12.381  15.711  13.836 -0.0235  0.3676  0.0234
 8677W        W24486   8.724   6.322  11.931  0.2072  0.1202  0.1176
 8678W        W24487   3.509   0.499  13.710  0.0527  0.0889  0.4601
 8679W        W24488  11.896   0.212   5.878 -0.2441 -0.2511 -0.1404
 8680W        W24489   2.760   8.032   4.585 -0.0400 -0.0339 -0.0118
 8681W        W24490  11.800  17.452  15.609  0.0513  0.1028  0.2920
 8682W        W24491  10.432   1.791   2.377 -0.0194  0.4670 -0.2526
 8683W        W24492   9.078   3.350   2.379  0.0612  0.0515 -0.1214
 8684W        W24493   1.650  16.696   5.873  0.0559  0.1649 -0.0131
 8685W        W24494  14.385   4.867   1.558 -0.0551 -0.1685 -0.2282
 8686W        W24495  16.057  13.056  15.253  0.0323 -0.0119 -0.0215
 8687W        W24496   1.191   4.866   0.861 -0.1831 -0.3689 -0.2125
 8688W        W24497   4.834   8.499  11.096  0.0315  0.1029 -0.3977
 8689W        W24498  16.999   7.870  12.798  0.0440 -0.0067  0.1341
 8690W        W24499  16.936   6.773   5.304  0.1204 -0.0281  0.1092
 8691W        W24500   3.369   6.522   1.574 -0.0128  0.2148 -0.3614
 8692W        W24501  17.612   1.759  13.661  0.1572  0.2031  0.1811
 8693W        W24502  15.341   3.789   3.858  0.0775 -0.1759  0.0312
 8694W        W24503  13.181  12.524  12.238 -0.1975  0.4499 -0.0835
 8695W        W24504   4.697   1.207  11.348  0.0781 -0.3337  0.0944
 8696W        W24505  10.529   2.284   2.390 -0.3530 -0.1254 -0.1464
 8697W        W24506   5.658   4.381   3.089 -0.4433 -0.0293 -0.2713
 8698W        W24507   8.215  13.728   4.230 -0.3289 -0.2584 -0.0040
 8699W        W24508  12.246   6.325  14.360  0.1705  0.5027  0.1171
 8700W        W24509   6.503  12.604  14.531 -0.0013  0.1375  0.1080
 8701W        W24510  14.521  17.403  16.220  0.1858 -0.2794 -0.1730
 8702W        W24511  13.976   7.952   3.605  0.0363  0.1472 -0.0587
 8703W        W24512   4.247  15.677  16.160 -0.2199  0.0669 -0.3563
 8704W        W24513  17.609  15.366   5.648 -0.0268 -0.5403  0.1682
 8705W        W24514  17.232   3.942   0.659 -0.3299  0.1272  0.0086
 8706W        W24515  15.663  15.139  13.464  0.1827 -0.1688  0.1990
 8707W        W24516   6.777   6.494   0.109 -0.0465 -0.0273  0.1166
 8708W        W24517  17.481   0.866   3.589 -0.1355  0.3020 -0.1562
 8709W        W24518   7.105  13.292   5.120  0.4988 -0.1864  0.0464
 8710W        W24519   5.349   3.078   3.472  0.0029  0.2590  0.0618
 8711W        W24520   4.219  17.794   5.299  0.0264 -0.0425 -0.0666
 8712W        W24521   1.304   6.451  16.090 -0.1264 -0.1395  0.0722
 8713W        W24522  11.067   0.144   4.303  0.3012 -0.2215  0.2193
 8714W        W24523   8.287   2.246   4.228  0.0488 -0.0966 -0.2877
 8715W        W24524   8.093   6.641   4.447 -0.1037  0.0508  0.3312
 8716W        W24525   6.960  16.508  13.825  0.3848  0.2544 -0.1397
 8717W        W24526  16.345   0.619  11.617  0.0995 -0.1912 -0.4155
 8718W        W24527   9.047  15.640  14.009 -0.0015  0.1131  0.2391
 8719W        W24528   7.175  11.071   0.034  0.0141 -0.1436 -0.0233
 8720W        W24529   6.756   1.325   1.610  0.0956  0.0949  0.0971
 8721W        W24530  15.338  10.486  12.728 -0.1707 -0.0816  0.1869
 8722W        W24531  12.821   9.505  14.201 -0.1595  0.0037 -0.3174
 8723W        W24532   5.563  15.491  15.311  0.3981 -0.2073 -0.0572
 8724W        W24533   1.029  14.700  12.131 -0.1557  0.0891  0.1778
 8725W        W24534   6.709   3.888   5.525 -0.0707 -0.2912 -0.2789
 8726W        W24535  10.994   6.345   0.571  0.0151  0.1098 -0.0183
 8727W        W24536   3.167  13.786   5.404  0.2568 -0.0294 -0.1210
 8728W        W24537   6.506  13.549  12.897 -0.0326  0.1545  0.0816
 8729W        W24538  16.072  10.859   3.415 -0.2432 -0.0025 -0.0235
 8730W        W24539  13.204  10.900   1.924 -0.2593 -0.1833  0.4170
 8731W        W24540   1.062  15.202   0.691 -0.3695  0.1372  0.1027
 8732W        W24541  16.178  17.690  11.335  0.0455 -0.3868  0.2154
 8733W        W24542   1.018   8.602   5.237 -0.0354 -0.1902 -0.3285
 8734W        W24543   1.833  11.290   3.129  0.2474 -0.1459 -0.3001
 8735W        W24544   7.286   0.649   4.836  0.1190 -0.2812  0.4113
 8736W        W24545   3.632  15.869   4.093  0.1015  0.0384  0.2033
 8737W        W24546   3.191   2.885  15.219  0.3888 -0.1158 -0.1595
 8738W        W24547  16.300  14.254   1.260  0.1771  0.1013  0.2064
 8739W        W24548  14.221  16.091   0.912 -0.0984  0.0251  0.0977
 8740W        W24549  17.387  10.382  16.437 -0.0146  0.1048  0.0096
 8741W        W24550  17.231   3.146  16.138 -0.3271 -0.0003  0.1124
 8742W        W24551  15.710  13.179   1.540 -0.0033  0.0136  0.1790
 8743W        W24552   3.545  11.716   1.805  0.3424  0.1293 -0.1174
 8744W        W24553   1.620  15.637  15.703  0.3163  0.0689  0.2714
 8745W        W24554  15.022   9.264   0.147 -0.1686 -0.3566 -0.0115
 8746W        W24555   5.600  11.435   3.987  0.1426 -0.0297 -0.0575
 8747W        W24556  10.398  10.035  12.751  0.0706  0.1538 -0.2534
 8748W        W24557  15.406   6.542  12.042 -0.1303 -0.1958 -0.2840
 8749W        W24558   4.849   1.944  10.300  0.0863 -0.0307 -0.2291
 8750W        W24559  12.776   8.126   3.513 -0.1159 -0.0051 -0.0863
 8751W        W24560   4.332   5.141  11.587 -0.0196  0.1135  0.0304
 8752W        W24561  11.392  17.503  16.057  0.0342  0.0082  0.2928
 8753W        W24562   9.108  13.954  12.727  0.1627  0.2928  0.1322
 8754W        W24563   9.849  10.118   4.615  0.1037  0.1732 -0.0435
 8755W        W24564  13.869  14.611  14.145  0.1137 -0.0914 -0.0775
 8756W        W24565  15.296   2.601  16.125 -0.0400 -0.3362  0.0316
 8757W        W24566   8.539   3.871  16.527 -0.0424 -0.0059 -0.1246
 8758W        W24567  10.371   8.081   3.698 -0.0744 -0.1771  0.3918
 8759W        W24568  11.588   7.847   0.660 -0.0116 -0.3227 -0.3184
 8760W        W24569   6.561   7.190  15.009 -0.0269 -0.2372 -0.0996
 8761W        W24570   9.399   8.565  14.266  0.1720  0.2482  0.0072
 8762W        W24571   8.269   4.119  15.546 -0.0607 -0.0971 -0.1429
 8763W        W24572   8.421   2.480  15.351  0.0304  0.0023 -0.0813
 8764W        W24573   9.681   7.488  15.729 -0.0492 -0.2896  0.2350
 8765W        W24574   0.275   8.957  12.102 -0.0200  0.1504  0.6711
 8766W        W24575  16.183   4.639  15.154  0.1215 -0.0312  0.1573
 8767W        W24576   6.562  14.418   0.944  0.2808  0.1414  0.1802
 8768W        W24577  14.835   8.723   1.405  0.0064 -0.0641 -0.0639
 8769W        W24578  14.895  10.497   6.359  0.0980 -0.1825 -0.1274
 8770W        W24579  12.252  16.018  16.458 -0.0271  0.0942 -0.0399
 8771W        W24580   1.845  10.849  12.884  0.4492 -0.0703 -0.4463
 8772W        W24581   1.870  15.434   4.572 -0.2906  0.1523  0.0192
 8773W        W24582  11.554  14.512  14.477  0.0476  0.1741 -0.1574
 8774W        W24583   1.829  17.002  14.001 -0.1303 -0.0825 -0.3073
 8775W        W24584   7.096  17.192  11.630  0.0153 -0.0734 -0.0843
 8776W        W24585   5.744   6.556   1.808  0.0339  0.1249 -0.0198
 8777W        W24586  15.386  14.415   0.312  0.1232  0.0114  0.2157
 8778W        W24587  14.919   0.842  15.466  0.3624  0.2321  0.0929
 8779W        W24588  11.166   3.898   5.621  0.0369  0.0869 -0.0716
 8780W        W24589   1.932  11.969  11.453 -0.0789 -0.0049 -0.3477
 8781W        W24590   3.807  12.468  10.830  0.0188 -0.0842 -0.1764
 8782W        W24591  13.831  10.792  15.734 -0.1635  0.2150  0.2984
 8783W        W24592   8.601  16.156   2.196 -0.1977 -0.3857 -0.0483
 8784W        W24593  11.133  15.614   5.353 -0.5039 -0.1081 -0.0762
 8785W        W24594  16.489  12.436   6.239  0.1605  0.0814 -0.1485
 8786W        W24595   8.291   9.743  15.802  0.2505 -0.1061  0.3274
 8787W        W24596  17.492   1.007   4.177 -0.0550  0.1343  0.1614
 8788W        W24597  16.746   9.770   4.898  0.0436 -0.0142 -0.4412
 8789W        W24598  11.313   6.170  12.648 -0.1196  0.1718  0.0121
 8790W        W24599   8.665   6.704   3.293  0.0238 -0.2762 -0.0498
 8791W        W24600  15.493   5.035  13.991  0.0571 -0.1061  0.1030
 8792W        W24601  14.838   8.403   3.877 -0.0357 -0.3129 -0.0887
 8793W        W24602   2.972  14.951   3.112  0.2221  0.1458 -0.1415
 8794W        W24603  10.707  15.061   1.009 -0.0390 -0.0042 -0.0310
 8795W        W24604   0.691   8.790  16.040  0.1167 -0.1844  0.1206
 8796W        W24605   9.710   4.112  11.906  0.1480 -0.2619 -0.2713
 8797W        W24606   7.562   8.141   3.981  0.1079  0.0306 -0.0369
 8798W        W24607   0.140  11.542  11.601  0.0736  0.3976 -0.1886
 8799W        W24608  10.646  16.808   0.536  0.0989  0.2747  0.1573
 8800W        W24609   2.506  16.362   1.887  0.2846  0.0538 -0.1774
 8801W        W24610  13.298   9.648  14.359 -0.0028 -0.2111 -0.2962
 8802W        W24611  17.465   2.666  16.451 -0.1200 -0.3429 -0.1121
 8803W        W24612   2.650  10.153   3.684 -0.1780  0.0877 -0.2457
 8804W        W24613   6.209  11.917   3.063 -0.4600  0.2168 -0.1913
 8805W        W24614  10.455  14.284   6.622  0.0729  0.1141 -0.0836
 8806W        W24615  11.546   3.715   2.475 -0.0188  0.0955 -0.0139
 8807W        W24616   2.018   6.685   1.571 -0.0478  0.1567  0.3269
 8808W        W24617   4.085  16.073   5.689 -0.0390  0.0462  0.0337
 8809W        W24618  13.411   7.992   0.593  0.1568  0.1226 -0.0689
 8810W        W24619  17.438  15.185   3.866 -0.1543  0.0692 -0.1835
 8811W        W24620   7.847  12.767   0.453  0.2113 -0.4344 -0.4959
 8812W        W24621   1.852  13.394  12.284  0.0365 -0.0933  0.0573
 8813W        W24622   1.018  15.123  16.400 -0.2708 -0.0490  0.1531
 8814W        W24623   6.015   8.613  11.706  0.0192 -0.0482 -0.2057
 8815W        W24624   5.421   0.076  11.212 -0.1403 -0.2956  0.0189
 8816W        W24625  17.770  16.785   4.517  0.1755  0.0036  0.1196
 8817W        W24626   9.729   9.803   2.004  0.4336 -0.2923  0.2555
 8818W        W24627   6.206  16.906  13.896  0.0029  0.0188 -0.3006
 8819W        W24628  15.020  15.530  15.726 -0.0470  0.4586 -0.2232
 8820W        W24629   7.378   6.480  15.305  0.3023  0.4337  0.1762
 8821W        W24630   2.503   6.812  11.657  0.0494  0.1306 -0.4358
 8822W        W24631   1.555  13.464   1.223  0.2351  0.0997 -0.2468
 8823W        W24632  10.467  15.484   0.686  0.0143  0.1442 -0.2469
 8824W        W24633   2.493   1.073   1.552  0.0503 -0.1654  0.1552
 8825W        W24634  17.831  13.060  10.635  0.2463  0.0097  0.1727
 8826W        W24635   1.595   9.947   2.899  0.0458 -0.1776 -0.2696
 8827W        W24636   8.247  13.554   5.116 -0.4011  0.1283 -0.3501
 8828W        W24637   4.428   4.775  14.208 -0.1272 -0.2597 -0.1341
 8829W        W24638   2.631  14.114   0.351  0.1981  0.1540  0.2661
 8830W        W24639  12.068   5.430  11.792 -0.0312 -0.0933  0.0379
 8831W        W24640   6.945   0.347   5.065  0.1537 -0.1254 -0.0128
 8832W        W24641  14.117   4.669  12.147 -0.0574 -0.0686  0.1018
 8833W        W24642   0.323   9.122   4.929  0.1836  0.1724  0.0500
 8834W        W24643   4.114  10.027  13.240  0.2660 -0.3423 -0.0530
 8835W        W24644   8.804   9.461   2.331  0.0278  0.1318  0.1558
 8836W        W24645  10.026  17.918   2.021  0.1991 -0.1930  0.3323
 8837W        W24646   1.593   1.925   1.000 -0.4368 -0.1122 -0.1774
 8838W        W24647   2.430  10.553   3.852 -0.2851  0.3069 -0.2428
 8839W        W24648   6.462  10.356   1.541 -0.1424  0.0860  0.1629
 8840W        W24649   9.004   4.424   6.147 -0.0930  0.1354  0.4915
 8841W        W24650   2.415   5.420  12.757  0.0559  0.1131 -0.1624
 8842W        W24651  17.564  13.198  16.053  0.2785 -0.1767 -0.2205
 8843W        W24652  11.974   5.924  16.224  0.0338 -0.1181 -0.0639
 8844W        W24653   0.867   3.775  15.987 -0.0630  0.3915 -0.0498
 8845W        W24654  12.256   1.715   5.548  0.2731  0.0738  0.3979
 8846W        W24655  17.557   0.708  15.119 -0.0213 -0.1366  0.0909
 8847W        W24656   3.564   6.328  13.294  0.2483  0.0205  0.0820
 8848W        W24657  15.318  15.950   3.960  0.3801 -0.2845  0.2436
 8849W        W24658   0.482  17.918  12.534  0.1456  0.1490 -0.0849
 8850W        W24659  11.252   0.616  13.036 -0.1494  0.0109 -0.2282
 8851W        W24660  13.886   0.016  15.701 -0.0396 -0.2604  0.1132
 8852W        W24661   9.765   6.824   4.910 -0.2598 -0.1378  0.0068
 8853W        W24662  16.058   3.830  12.711 -0.1596 -0.2091  0.3240
 8854W        W24663   7.277  14.285   1.656 -0.2010 -0.1536  0.1090
 8855W        W24664  17.266  17.010  13.086 -0.2620 -0.2215 -0.1557
 8856W        W24665  10.098   5.493   5.009  0.0661 -0.2119 -0.1185
 8857W        W24666  15.964   5.066   0.868 -0.0445  0.1207  0.0869
 8858W        W24667  16.213   9.448  13.253 -0.0115 -0.0896 -0.4350
 8859W        W24668   8.436  15.445   2.140 -0.2968 -0.1685 -0.0195
 8860W        W24669  13.413  15.106  13.983 -0.2751 -0.3802  0.2917
 8861W        W24670  13.610   6.030  13.852  0.1111 -0.0342 -0.1256
 8862W        W24671   9.671   4.150   3.963  0.0635  0.2741  0.1416
 8863W        W24672   1.545  13.943   3.506  0.0193 -0.1059  0.0618
 8864W        W24673  14.715  11.007   5.184  0.5416 -0.0562  0.0109
 8865W        W24674   3.430  16.089   6.344  0.0848  0.2480 -0.1450
 8866W        W24675  16.815   3.591  13.096 -0.0312 -0.0556  0.1646
 8867W        W24676  12.189  12.441   1.811 -0.1552 -0.0403  0.0447
 8868W        W24677  16.548   9.368  16.327 -0.2045  0.0012 -0.1315
 8869W        W24678  16.184  11.897  12.909 -0.0924 -0.3530 -0.1066
 8870W        W24679   2.110   6.712  15.531 -0.1587 -0.1767  0.2578
 8871W        W24680   6.816   1.862  16.007  0.1355 -0.0677 -0.2155
 8872W        W24681   2.664   7.160   5.239  0.1005  0.2468  0.0910
 8873W        W24682   8.646  10.768   4.351  0.0739 -0.1768 -0.1031
 8874W        W24683   9.226   9.921   0.709 -0.2313 -0.0989  0.1440
 8875W        W24684  16.016   5.155  15.153  0.3500  0.1958 -0.2487
 8876W        W24685   7.249   4.744  14.797  0.0284 -0.2958  0.2268
 8877W        W24686   4.510  13.470  14.738 -0.1627  0.1528  0.0939
 8878W        W24687  12.721   3.309  11.414  0.0720 -0.0267  0.0737
 8879W        W24688   2.563  12.881   4.395  0.3622 -0.0187  0.2948
 8880W        W24689   7.770  12.338  14.544 -0.1316 -0.0432  0.3201
 8881W        W24690  16.723   6.229   2.985 -0.3568 -0.0013  0.0209
 8882W        W24691   5.186   9.504  12.221 -0.1272  0.2192  0.0245
 8883W        W24692   1.528  16.433  14.505  0.0457  0.0785  0.0951
 8884W        W24693   7.507   9.602   4.080 -0.1866  0.2139 -0.0275
 8885W        W24694   4.865   9.096  10.855 -0.0732  0.0241 -0.0422
 8886W        W24695  17.887  14.659   1.123  0.0030 -0.0863 -0.2435
 8887W        W24696  11.920  11.700  14.727  0.2558  0.1640  0.0209
 8888W        W24697   6.788   5.591   5.392 -0.0397  0.1043 -0.3615
 8889W        W24698   6.133   1.881  11.826  0.2228 -0.2812 -0.0075
 8890W        W24699   4.915   4.853   5.233 -0.1079 -0.0301  0.1787
 8891W        W24700   3.736   0.291  13.254  0.0728  0.1595  0.2824
 8892W        W24701  12.730  17.359  15.886  0.2417 -0.0552  0.0570
 8893W        W24702  16.417  12.966  13.600  0.0225  0.3280 -0.2070
 8894W        W24703  12.263  14.554   0.108 -0.2773 -0.1457  0.2452
 8895W        W24704  11.918   8.337   6.078 -0.0856 -0.2646  0.1976
 8896W        W24705   2.721  12.792  13.419 -0.1093  0.0898 -0.1170
 8897W        W24706   8.509   1.362  15.767 -0.0187  0.0758 -0.0884
 8898W        W24707   7.920  12.856   2.686 -0.1918  0.2134 -0.1191
 8899W        W24708  10.520   2.765   3.610 -0.0845  0.0195  0.0361
 8900W        W24709   2.242  15.079  12.412  0.3579  0.1695 -0.0084
 8901W        W24710   3.990   6.294   0.364 -0.2016  0.1046  0.2311
 8902W        W24711   1.109  12.238  11.069  0.2948  0.1447  0.2964
 8903W        W24712  14.865  10.788   4.228 -0.1101  0.0187 -0.0095
 8904W        W24713   7.003   2.734  12.372 -0.0263  0.0234 -0.0301
 8905W        W24714   1.284   8.925  10.987 -0.4021  0.2272 -0.1561
 8906W        W24715  14.385   4.610  12.563  0.3598  0.2354 -0.2435
 8907W        W24716  12.019  10.321  16.615 -0.1642 -0.1479  0.1361
 8908W        W24717   4.521   3.866  15.042  0.2218 -0.0942 -0.2355
 8909W        W24718  16.189   4.564   2.520  0.2557 -0.0156 -0.0187
 8910W        W24719  10.017  15.564   5.715 -0.2225 -0.6242  0.0088
 8911W        W24720   5.245  11.430   4.589 -0.0128  0.0336  0.1588
 8912W        W24721   6.539   5.178   3.337  0.0914 -0.2138  0.2804
 8913W        W24722   0.019   2.410   4.783 -0.0402  0.1671 -0.0425
 8914W        W24723  10.530   4.975   0.230 -0.1453 -0.2650 -0.2463
 8915W        W24724   0.676  11.974   0.081 -0.2165 -0.2275  0.3312
 8916W        W24725  16.810  11.875   2.393  0.2436 -0.1226  0.0633
 8917W        W24726   8.202   4.021  16.150  0.1083 -0.1273  0.1422
 8918W        W24727  17.746  12.221   5.374 -0.3253  0.0343  0.2994
 8919W        W24728  16.124  15.677   4.443  0.0802  0.0036 -0.1705
 8920W        W24729   0.011   2.911  12.477 -0.0788 -0.4208  0.2007
 8921W        W24730   1.781  12.174   3.576  0.0695  0.1734  0.3276
 8922W        W24731  13.595  11.937   2.779 -0.1288  0.0118 -0.2416
 8923W        W24732  15.335  17.909  15.006  0.3095 -0.2192  0.1084
 8924W        W24733  13.008   0.403   2.573 -0.3024  0.2416 -0.0346
 8925W        W24734   5.876  14.532   0.169  0.1408  0.0187 -0.3115
 8926W        W24735   9.775  17.249   0.202  0.0728  0.0999 -0.0405
 8927W        W24736   3.367  13.969  12.840 -0.0041 -0.2283 -0.3205
 8928W        W24737   4.375  15.604   4.433 -0.1647  0.0053  0.2003
 8929W        W24738  14.831  10.387  14.079 -0.2112  0.1374 -0.1105
 8930W        W24739   9.869  12.696  15.078 -0.0662  0.2116  0.0071
 8931W        W24740  16.534   5.241  11.482  0.0848  0.0786  0.2838
 8932W        W24741   2.771  16.198  15.845 -0.0684  0.2258  0.0873
 8933W        W24742   6.474  13.536   4.023 -0.4356 -0.1408  0.1263
 8934W        W24743  12.427   9.172   2.003 -0.1888 -0.0728  0.2312
 8935W        W24744  12.544   7.654   1.051  0.0958  0.1968  0.2454
 8936W        W24745   5.340  17.231  16.593 -0.1308 -0.3010  0.0326
 8937W        W24746   2.535   4.365  12.710 -0.2600  0.1807  0.0895
 8938W        W24747   6.024   7.806  12.004  0.0098 -0.0905  0.1083
 8939W        W24748  16.072  12.761  13.916  0.1919 -0.3359  0.0813
 8940W        W24749   1.733  17.711   2.109  0.0008 -0.1123 -0.4900
 8941W        W24750  15.884   8.880  12.188  0.0123  0.3293 -0.1673
 8942W        W24751  11.494   8.833  12.488 -0.0280 -0.2351  0.0955
 8943W        W24752   4.213   2.887   3.880 -0.1639  0.3678  0.0518
 8944W        W24753   9.120   8.500   4.240 -0.0618 -0.2909 -0.1626
 8945W        W24754   5.128  11.289  16.232 -0.2050  0.0089  0.0764
 8946W        W24755  11.464  15.774  15.008  0.1195 -0.0244  0.0561
 8947W        W24756   4.156  11.991  11.554  0.0952  0.1878  0.2170
 8948W        W24757   4.650   7.702   3.387 -0.0123 -0.1988  0.1817
 8949W        W24758   8.270   4.087  12.975  0.1346 -0.2252  0.1314
 8950W        W24759   7.400   1.107   1.021  0.0796  0.1881 -0.0900
 8951W        W24760   0.686   9.152  16.540 -0.1833 -0.0599 -0.0385
 8952W        W24761  17.639  17.294  12.271 -0.3425  0.0310  0.1609
 8953W        W24762  11.680  13.717   4.734 -0.0733  0.1007  0.2575
 8954W        W24763  12.707  10.771   1.992  0.0167 -0.0194 -0.1642
 8955W        W24764  17.109   5.718  12.058  0.0154  0.1986  0.1107
 8956W        W24765   0.135   7.169  11.163 -0.1347  0.1491  0.0687
 8957W        W24766  14.455   3.092  12.422  0.0682  0.1644 -0.2070
 8958W        W24767   5.243   9.373   4.952 -0.1742  0.0633 -0.1887
 8959W        W24768  10.534   9.109  13.267 -0.1986 -0.0520 -0.0004
 8960W        W24769  16.102   1.435  15.329 -0.1613  0.4085 -0.1025
 8961W        W24770   3.741  16.829  12.340 -0.1168  0.0707  0.0405
 8962W        W24771  14.829  14.210   0.230 -0.1246 -0.0826  0.2342
 8963W        W24772  13.753   4.400  16.005  0.1778 -0.3795 -0.3136
 8964W        W24773   1.707  11.750   4.763 -0.1972  0.0748 -0.0655
 8965W        W24774   3.163   4.512   2.015  0.1341  0.2598 -0.1913
 8966W        W24775  10.727  15.230   6.091  0.0849 -0.1114  0.5414
 8967W        W24776   1.470  10.900   3.010  0.1521 -0.0694 -0.0672
 8968W        W24777  16.506   1.019   3.377  0.2615 -0.2028 -0.0488
 8969W        W24778  10.532   4.046   2.475 -0.1233  0.1368  0.2644
 8970W        W24779   6.286  10.000  12.797  0.3165  0.1651  0.3175
 8971W        W24780   0.280  16.039  13.309  0.0326 -0.1545  0.0139
 8972W        W24781  11.270  16.820   0.639  0.3328  0.0973  0.0689
 8973W        W24782   7.607   1.661  14.022 -0.0423  0.2435 -0.1043
 8974W        W24783   1.029  17.260  12.126  0.1970 -0.0237 -0.0130
 8975W        W24784   2.076  13.390   2.361  0.2173 -0.3234 -0.0595
 8976W        W24785   6.679  13.871  12.525  0.3742  0.2365  0.1861
 8977W        W24786  12.665   0.380  14.418 -0.2202 -0.0460  0.0472
 8978W        W24787   2.347   7.037  16.380  0.1320  0.1133  0.1888
 8979W        W24788   3.066   4.307  14.312  0.0037 -0.0807 -0.0841
 8980W        W24789  14.762  17.842  11.994  0.1115  0.1354 -0.0935
 8981W        W24790   1.172  13.799   0.263 -0.4331 -0.0299  0.2573
 8982W        W24791  10.291  16.560  16.416  0.1074  0.0444 -0.1723
 8983W        W24792  15.762  11.960  15.386  0.2193 -0.0472  0.1342
 8984W        W24793  10.884   3.000   0.507 -0.0326 -0.1715  0.2921
 8985W        W24794   0.313   8.120  11.302 -0.1129  0.2253  0.0518
 8986W        W24795  10.312  11.521   3.667 -0.2846 -0.0894 -0.2237
 8987W        W24796   0.487  12.744   3.973 -0.0276 -0.1970  0.1314
 8988W        W24797   9.462   7.218   3.711  0.0166 -0.0789  0.0121
 8989W        W24798   0.262   7.969  12.745  0.0072  0.2020 -0.0424
 8990W        W24799   7.222   9.033   5.364 -0.0477 -0.0068 -0.1323
 8991W        W24800  14.978   1.050   3.435 -0.1147  0.2813  0.1687
 8992W        W24801   9.394   0.616  16.521 -0.0968 -0.3068 -0.1167
 8993W        W24802  14.975  11.731   0.764  0.3574  0.0178  0.4857
 8994W        W24803   5.446   7.132   3.658 -0.2542 -0.1849 -0.1749
 8995W        W24804   5.059   0.798   0.928  0.1613  0.2331 -0.2908
 8996W        W24805  14.235   1.722   1.232 -0.0211 -0.0825  0.0305
 8997W        W24806   9.597   8.201   6.536  0.1346  0.1408  0.0770
 8998W        W24807   4.014  17.273  14.828 -0.3687  0.1076  0.0654
 8999W        W24808  12.118   8.687   3.998  0.2092  0.1601 -0.0929
 9000W        W24809  11.125   8.993  13.272 -0.2907  0.1075 -0.0698
 9001W        W24810   8.930  13.221   3.863  0.1256 -0.1269 -0.1103
 9002W        W24811   2.798  12.105   4.878 -0.0558  0.2609  0.1251
 9003W        W24812   4.769   6.558   3.934 -0.2310 -0.0714  0.1109
 9004W        W24813  12.530  10.764   1.139 -0.2466 -0.0288 -0.1000
 9005W        W24814   7.510   2.978  15.868  0.1343 -0.0133  0.0107
 9006W        W24815  10.866   0.261  12.821 -0.0222 -0.0912  0.4237
 9007W        W24816   7.482   6.030  14.949 -0.1350 -0.1497  0.3354
 9008W        W24817   8.658   9.773  13.057 -0.2886  0.0074 -0.1881
 9009W        W24818   6.091  14.974  14.253  0.0162  0.2494  0.0001
 9010W        W24819   9.873   8.280   0.102  0.1987  0.0563 -0.3278
 9011W        W24820   0.382   7.613   0.304 -0.3177  0.2998  0.0522
 9012W        W24821  15.418  16.088  15.594  0.3197 -0.3266 -0.0525
 9013W        W24822   9.204   2.200   5.845 -0.1215 -0.1637 -0.1421
 9014W        W24823  12.574  14.595   4.113  0.0470 -0.0727  0.2564
 9015W        W24824   7.810  14.130   1.650 -0.0169  0.0118 -0.1074
 9016W        W24825  12.926   7.088  13.347  0.0002 -0.2145  0.4531
 9017W        W24826  10.412  14.847   6.769  0.1857  0.2784 -0.2731
 9018W        W24827  11.806  16.487  15.579  0.1463  0.1034  0.0309
 9019W        W24828  16.522   1.091   2.502  0.1714  0.2696  0.1885
 9020W        W24829   1.281   5.478  11.039  0.0844  0.1330 -0.1340
 9021W        W24830   9.550   1.350   1.131 -0.0189 -0.0749 -0.1547
 9022W        W24831   4.854   5.761   0.756  0.2274 -0.3369 -0.0353
 9023W        W24832  13.747  13.799   3.615  0.1754  0.0343 -0.2101
 9024W        W24833   2.408  10.531   1.924  0.0144 -0.2131  0.2811
 9025W        W24834   7.587  15.062  16.621 -0.1058 -0.0439  0.0740
 9026W        W24835   9.274   1.755   3.456 -0.0238  0.0714  0.1200
 9027W        W24836   6.376   2.857  16.656 -0.1004 -0.2857 -0.0614
 9028W        W24837   0.846  14.621  13.824 -0.2182  0.1074 -0.3410
 9029W        W24838  14.899  13.132  15.299  0.4194  0.1264  0.2658
 9030W        W24839   2.782  10.922   1.374  0.1107 -0.1244  0.3524
 9031W        W24840  15.413   7.184   0.843  0.2061 -0.0022  0.3471
 9032W        W24841   1.175  17.551   5.344 -0.0247  0.2358  0.1270
 9033W        W24842  14.081   3.699   3.714  0.2887  0.3776  0.0059
 9034W        W24843  15.830   1.154   2.296 -0.0086  0.3093 -0.1201
 9035W        W24844   1.826  15.449  13.574 -0.1203 -0.5042 -0.2450
 9036W        W24845   3.918  12.274  12.382  0.0099 -0.0331  0.1312
 9037W        W24846   1.520  16.097  14.067 -0.2959 -0.1878 -0.2170
 9038W        W24847   1.447  14.654  16.039  0.1475  0.0528  0.0649
 9039W        W24848   4.633   1.643   4.428  0.0099  0.0914 -0.0758
 9040W        W24849  12.101   1.342   3.205 -0.1778  0.0052 -0.1353
 9041W        W24850   3.111  13.101  12.268  0.0908  0.2817 -0.1292
 9042W        W24851   1.593   8.950   0.006 -0.1053 -0.3049  0.2007
 9043W        W24852   7.315   4.089  13.864 -0.0422 -0.2198  0.0092
 9044W        W24853   5.302   5.594  11.424  0.1228 -0.0504  0.0245
 9045W        W24854  14.210   8.664   5.050  0.1571 -0.1173 -0.0850
 9046W        W24855  14.803   6.889  11.538  0.1749  0.1762 -0.0737
 9047W        W24856   5.317  10.290  15.604 -0.0932 -0.1212  0.2185
 9048W        W24857   5.005   2.487   5.826  0.0495  0.1751 -0.1304
 9049W        W24858   8.802   5.733   4.359  0.0396 -0.2615 -0.0548
 9050W        W24859   7.651  17.350   2.943  0.0517  0.3211  0.1123
 9051W        W24860  11.909   2.096  16.306 -0.1318  0.0339  0.1956
 9052W        W24861  13.034   0.984   1.464  0.0871  0.0104 -0.0382
 9053W        W24862  16.326  10.722  12.099  0.2832 -0.0796 -0.0475
 9054W        W24863   7.772   9.033  15.282 -0.0397 -0.1914 -0.3441
 9055W        W24864  13.660   7.075  14.517 -0.2094  0.1269 -0.0101
 9056W        W24865  17.812   7.578   2.934  0.1365  0.1055  0.0438
 9057W        W24866   5.401   8.523   5.869  0.0622 -0.1913  0.1517
 9058W        W24867   8.948   7.850  15.384 -0.1486 -0.1493  0.0901
 9059W        W24868  15.368   3.144   2.537  0.4265 -0.1402  0.2508
 9060W        W24869   3.343   6.575   0.995  0.0069  0.1074 -0.0462
 9061W        W24870  11.737   6.403  14.488  0.0781  0.1612  0.2140
 9062W        W24871   7.397  16.182   1.278 -0.1340  0.0939 -0.0015
 9063W        W24872  17.908   5.050   3.954  0.0427 -0.0607  0.2093
 9064W        W24873  10.532  11.643  15.677  0.1647  0.4493  0.4001
 9065W        W24874   7.321   6.620   0.730 -0.1203 -0.0009  0.3331
 9066W        W24875   3.345  12.717   5.389  0.0514 -0.2304 -0.1181
 9067W        W24876   6.800  17.132   2.622 -0.3268  0.1469  0.1188
 9068W        W24877   1.843   3.338  13.460 -0.1848  0.1548 -0.0772
 9069W        W24878  11.277   7.831  13.083  0.1834  0.0910  0.0160
 9070W        W24879   0.391  10.789  15.517  0.1061  0.0006  0.0397
 9071W        W24880   7.984  14.495  11.762 -0.4001  0.0275 -0.0299
 9072W        W24881   5.618  10.096  14.565 -0.2743 -0.3411 -0.0510
 9073W        W24882   0.713   7.457  15.501 -0.0119  0.2225  0.1453
 9074W        W24883   9.663   3.759   0.459  0.3397  0.1154  0.1153
 9075W        W24884   0.520  15.172  16.327  0.1123  0.1910 -0.0221
 9076W        W24885   4.449  14.040  12.930  0.0747 -0.0293  0.1065
 9077W        W24886   1.713   3.534   3.404  0.1909 -0.1307  0.0104
 9078W        W24887   6.568  10.832  16.493 -0.1605  0.1966 -0.3540
 9079W        W24888  15.709   2.712   2.237  0.2117 -0.2306  0.0956
 9080W        W24889  11.857  13.414   2.659  0.2043 -0.0539 -0.0764
 9081W        W24890  10.773   7.876  16.175  0.0358  0.2613 -0.0963
 9082W        W24891  11.368   7.165   5.219  0.3269  0.0580  0.3702
 9083W        W24892  14.037   0.453  13.339  0.0823 -0.1503  0.0652
 9084W        W24893   6.335   7.847  13.734  0.0555  0.2456  0.2489
 9085W        W24894   2.460   1.046  11.518  0.0905 -0.0281  0.1879
 9086W        W24895   0.705  15.765   3.145  0.0068  0.1141  0.0538
 9087W        W24896  17.814   3.973   4.968 -0.0104  0.1517 -0.4994
 9088W        W24897  14.929  13.479  14.426 -0.4697 -0.1947  0.0272
 9089W        W24898   1.705   0.276   0.351  0.2855  0.2934  0.1643
 9090W        W24899   0.599  16.574   3.806  0.3416 -0.0978  0.2120
 9091W        W24900   8.465   2.402   0.419 -0.1979  0.1442 -0.2193
 9092W        W24901  17.888   3.407  16.093 -0.0213  0.4602  0.2655
 9093W        W24902  17.392  16.381  15.012 -0.1119  0.0956 -0.0056
 9094W        W24903  16.202  15.694  12.443 -0.3210  0.2072  0.1162
 9095W        W24904  13.610  13.490   0.572 -0.2144 -0.2794 -0.1383
 9096W        W24905   5.929  17.889   1.480  0.0690  0.1395 -0.4038
 9097W        W24906  13.556   6.855  16.106 -0.1237  0.0611 -0.2282
 9098W        W24907   1.859   5.466   4.821  0.1677  0.0015  0.0325
 9099W        W24908   6.648   0.726  13.332  0.0875  0.1898  0.0450
 9100W        W24909   2.546   2.931   4.363 -0.2587 -0.1959 -0.3023
 9101W        W24910   6.007   8.201  12.902  0.0945 -0.0513 -0.2325
 9102W        W24911   5.077   6.885   3.363 -0.0225 -0.0417  0.0594
 9103W        W24912  16.277   8.206  12.466 -0.1117  0.2248  0.0950
 9104W        W24913   0.693  14.472  13.311  0.0050  0.0493 -0.0102
 9105W        W24914  16.820   5.166   3.729 -0.0291 -0.1340 -0.0047
 9106W        W24915   1.450  12.400   0.190  0.1792  0.0949 -0.1970
 9107W        W24916  15.820   1.710  14.951 -0.0260 -0.0087  0.0639
 9108W        W24917  17.846  12.788  13.971 -0.1270 -0.1095  0.1883
 9109W        W24918  12.803   3.843  11.569 -0.1413  0.0337 -0.1785
 9110W        W24919   8.746   7.838   1.370 -0.1790  0.1869  0.1817
 9111W        W24920   3.438   7.086  11.972  0.3535  0.1572  0.2756
 9112W        W24921  11.325  11.319   5.874  0.0637  0.1531  0.0989
 9113W        W24922  10.832   6.987   1.710 -0.4084  0.0394 -0.1721
 9114W        W24923   4.365  14.836   2.145  0.1021  0.0139 -0.0201
 9115W        W24924  16.326   6.485   0.587 -0.1452  0.1014  0.0949
 9116W        W24925   5.232  10.658  14.617 -0.0276 -0.0737  0.1221
 9117W        W24926   9.416   6.919   3.289  0.2591 -0.1264 -0.4238
 9118W        W24927   3.673  14.804  13.893 -0.1385 -0.0440 -0.1069
 9119W        W24928  10.217   4.706  12.320  0.0284  0.0984 -0.0383
 9120W        W24929   8.901   8.438  15.402  0.0627  0.3098 -0.3765
 9121W        W24930  11.032   3.400  12.459  0.1975  0.0921  0.1228
 9122W        W24931   9.207   0.255  16.148  0.0751 -0.0237  0.1879
 9123W        W24932   6.810  17.934  12.739 -0.0573 -0.1246  0.1923
 9124W        W24933   0.588   3.421  12.344  0.0591 -0.2849 -0.1779
 9125W        W24934  17.247  13.315  12.549  0.1735  0.0044 -0.1917
 9126W        W24935   7.389  14.839   3.786 -0.0486  0.0850 -0.1378
 9127W        W24936   2.264  15.003   1.305 -0.1785  0.2591 -0.0060
 9128W        W24937   0.277   8.573   1.387  0.0176  0.2877  0.1026
 9129W        W24938  12.784   7.805   3.890 -0.1120 -0.2700 -0.0885
 9130W        W24939   9.214   3.109  15.015 -0.2305  0.3905 -0.1628
 9131W        W24940   6.317  14.385  13.249  0.1712 -0.0473  0.2718
 9132W        W24941  15.056   7.484   2.236  0.3340 -0.0748  0.0077
 9133W        W24942   7.695  10.009  14.006 -0.0075  0.0114  0.1461
 9134W        W24943   5.485   0.799   0.419  0.3442  0.0813 -0.0121
 9135W        W24944   9.519   0.651   5.732  0.1423  0.2200  0.1568
 9136W        W24945   5.790   7.852   3.530 -0.2057 -0.0006 -0.0520
 9137W        W24946   3.232   7.068  15.365 -0.0400 -0.3504  0.1731
 9138W        W24947  13.639   9.185   1.861  0.2641  0.0550  0.0478
 9139W        W24948   6.591   9.784   2.151 -0.2450  0.0572 -0.1604
 9140W        W24949   8.216   8.953   5.533  0.0447  0.0317  0.0139
 9141W        W24950   4.128   1.008  16.505 -0.2274 -0.1401  0.2758
 9142W        W24951  12.415  10.259   3.614 -0.0241  0.2628  0.1350
 9143W        W24952   8.756  10.013  11.813 -0.0516  0.0218  0.2762
 9144W        W24953   9.873   4.615  11.846 -0.0272 -0.1160 -0.2072
 9145W        W24954   3.751   0.708  16.279 -0.1079  0.4454 -0.1206
 9146W        W24955   8.291   2.590  14.879  0.0428 -0.0946 -0.0806
 9147W        W24956   0.025  14.530  16.568 -0.1832 -0.1126  0.2910
 9148W        W24957  10.911  12.744  15.802  0.0918 -0.1373 -0.0748
 9149W        W24958   3.502   8.220  12.128 -0.2800 -0.0219  0.0014
 9150W        W24959  15.383   8.191  14.130 -0.0130  0.0577 -0.1798
 9151W        W24960   8.892   9.228  10.620  0.2131 -0.2734  0.2249
 9152W        W24961  14.005   2.235   6.154  0.3440 -0.0609  0.3044
 9153W        W24962   0.794   1.766   1.766 -0.1877 -0.0181 -0.1082
 9154W        W24963  13.178   6.406   5.800 -0.3173 -0.2113  0.0183
 9155W        W24964   7.692  17.166   1.331 -0.0509  0.0215  0.2198
 9156W        W24965  13.270  10.919   2.388 -0.3531  0.0650  0.3914
 9157W        W24966  16.942   7.788   4.571  0.0729  0.0920  0.0328
 9158W        W24967  13.899  15.335  15.304 -0.0990 -0.1021  0.3728
 9159W        W24968   2.162   3.138   1.891  0.1587 -0.0465 -0.1464
 9160W        W24969   5.168   4.564   4.595 -0.1502  0.0038  0.2960
 9161W        W24970  16.751   9.166  12.625 -0.0434 -0.0387  0.1272
 9162W        W24971  11.162  16.641   3.568 -0.2650  0.2063 -0.1546
 9163W        W24972   4.468  11.225   3.286  0.5063 -0.0318 -0.0140
 9164W        W24973   4.855   7.744   0.951  0.0440 -0.0350  0.1196
 9165W        W24974  15.402  10.953   4.443  0.2121  0.0949 -0.2084
 9166W        W24975   7.632  16.536   2.357  0.0555  0.0850 -0.0820
 9167W        W24976  16.023  11.300  13.894  0.1824  0.2915 -0.0520
 9168W        W24977  17.549  10.386  14.048 -0.0709 -0.2457 -0.0237
 9169W        W24978   5.578  10.791  10.902  0.0331  0.0639  0.2237
 9170W        W24979  16.924  17.768   3.262  0.1385 -0.3398  0.2532
 9171W        W24980   1.088  11.058   5.198  0.3158  0.2182  0.1721
 9172W        W24981   1.239  16.309  16.562  0.0540  0.1194 -0.2895
 9173W        W24982  12.448   4.235   3.345 -0.3745 -0.0560  0.1801
 9174W        W24983  13.002  17.127   4.304 -0.1636  0.2407 -0.0563
 9175W        W24984   3.278   7.120  14.426  0.0631  0.0425 -0.1731
 9176W        W24985   3.494   9.000   0.206 -0.2726  0.0020 -0.1438
 9177W        W24986   6.121   9.273  11.753 -0.3972  0.1131  0.0532
 9178W        W24987   1.117  16.346   5.101  0.0253  0.0701 -0.2277
 9179W        W24988   5.013  16.359   3.024  0.0193 -0.4278  0.3252
 9180W        W24989  12.606  14.166   6.680 -0.2813  0.0475  0.1739
 9181W        W24990  11.492  15.733   6.365 -0.2678 -0.0912  0.2172
 9182W        W24991   3.436   2.109  14.391 -0.0103 -0.0361 -0.2617
 9183W        W24992   1.085   4.870   1.817  0.0191  0.1916 -0.0513
 9184W        W24993   5.803   3.287   2.329  0.2021  0.1277 -0.1159
 9185W        W24994  11.169  14.217   0.702 -0.3237  0.1282 -0.0020
 9186W        W24995   6.935  10.519  15.403 -0.1610  0.1135  0.2415
 9187W        W24996  17.307   2.743  15.054 -0.2216 -0.1304  0.1706
 9188W        W24997  17.339  15.117  15.521  0.2511 -0.2112  0.1140
 9189W        W24998   5.589   2.498   5.085  0.1087 -0.1418  0.2003
 9190W        W24999   9.835   8.745   4.966 -0.0105 -0.0518 -0.0637
 9191W        W25000   4.623   8.673  10.683  0.0384 -0.3801 -0.0437
 9192W        W25001  12.747   5.094  12.337  0.0649 -0.5175 -0.1130
 9193W        W25002  10.486   7.751   3.263  0.1734 -0.1909  0.0927
 9194W        W25003  17.382  10.253   1.216 -0.0520  0.0268 -0.0635
 9195W        W25004   2.645  11.710   4.695 -0.1520 -0.1366  0.2425
 9196W        W25005   9.211   5.481   4.191  0.1749 -0.0970 -0.2930
 9197W        W25006   9.769   8.134  14.776  0.1693  0.0433  0.0694
 9198W        W25007  15.550  14.192   4.940  0.0402  0.0212 -0.1574
 9199W        W25008  10.129   2.628  15.828 -0.0632 -0.0903 -0.0563
 9200W        W25009  14.943  13.460  11.866 -0.2301  0.2671 -0.1396
 9201W        W25010  14.181   6.485  12.693  0.1384 -0.0998  0.2543
 9202W        W25011  14.752  16.786   5.188  0.0690  0.1292  0.3188
 9203W        W25012   7.122  16.551   1.003 -0.1997  0.0158 -0.0450
 9204W        W25013   1.793  13.027  14.279  0.1593  0.1391 -0.0320
 9205W        W25014   8.086  14.611   1.110 -0.1889  0.1934 -0.4130
 9206W        W25015  15.038  15.385   4.532  0.2856  0.2211 -0.0274
 9207W        W25016   8.362  12.401   5.041 -0.0004  0.0358  0.0055
 9208W        W25017   4.889   6.647   1.380 -0.0479  0.0723  0.3465
 9209W        W25018   9.420   2.301   0.897  0.1020  0.1516  0.1821
 9210W        W25019   8.350  12.838   4.185 -0.1197 -0.0492  0.1963
 9211W        W25020   3.134   5.877  11.010 -0.2461  0.0649 -0.0507
 9212W        W25021   5.042  10.329   1.585  0.2120  0.1139  0.3006
 9213W        W25022  13.598   7.239  11.830 -0.0182  0.1896  0.0135
 9214W        W25023  11.010   6.828  12.004 -0.1390 -0.2469 -0.0213
 9215W        W25024  16.141   4.138   4.433  0.2257 -0.0459  0.1761
 9216W        W25025   6.491  15.856   2.076  0.1820 -0.1827  0.0269
 9217W        W25026   7.260   9.571  13.088  0.0749 -0.0362  0.0922
 9218W        W25027  13.055   5.352  10.831  0.0215 -0.3844  0.1138
 9219W        W25028  14.656  15.570   5.765  0.3080 -0.0973  0.2032
 9220W        W25029  15.467   9.140  13.753 -0.2783 -0.1394  0.2024
 9221W        W25030   8.227   2.905   0.345  0.0333 -0.0162  0.1943
 9222W        W25031   0.917  12.189  13.592  0.0648 -0.0786 -0.0609
 9223W        W25032  13.237   6.256  13.579  0.0405  0.2057 -0.1262
 9224W        W25033  12.872   4.440  16.291 -0.0907  0.0295  0.2381
 9225W        W25034  17.594   1.646  11.048 -0.0797  0.0874  0.2005
 9226W        W25035  12.099  16.350   1.587  0.1482 -0.1236 -0.1082
 9227W        W25036   9.264  16.369  16.118 -0.3265  0.1331  0.1355
 9228W        W25037   7.605  16.726   1.880  0.2006  0.0523  0.3701
 9229W        W25038  12.056   2.810  12.720  0.0491 -0.2295  0.2570
 9230W        W25039   4.838   3.480  15.333  0.1068 -0.6014 -0.0598
 9231W        W25040   6.237   7.141   3.141 -0.0426 -0.1029 -0.0855
 9232W        W25041   4.995  13.260   5.046  0.2120 -0.0876 -0.0162
 9233W        W25042  17.852   8.717   4.286  0.0123 -0.0610  0.1257
 9234W        W25043   2.411  16.333  11.940 -0.0560 -0.2873  0.0598
 9235W        W25044  14.624  15.879   1.297 -0.3690  0.1494 -0.0145
 9236W        W25045   9.824   1.463   2.862 -0.0943  0.0966  0.0554
 9237W        W25046   4.504   1.983  13.910 -0.2515 -0.1805 -0.0841
 9238W        W25047   3.771   9.791   1.246  0.2082  0.2152  0.1751
 9239W        W25048  13.363   8.737  13.872 -0.0761  0.0871 -0.1515
 9240W        W25049   5.398   3.047  15.826 -0.0947 -0.1484  0.2421
 9241W        W25050  17.775  17.904  11.667  0.0016  0.1822  0.3203
 9242W        W25051  17.320   8.591  13.129  0.1427  0.1414 -0.1604
 9243W        W25052  14.903   9.680   5.917  0.1044  0.0427 -0.0102
 9244W        W25053   3.880   0.093   0.106  0.2653  0.0031  0.1651
 9245W        W25054   3.074   9.494   4.084 -0.1887  0.0383 -0.5610
 9246W        W25055  16.403  15.338  13.650  0.1756  0.2147 -0.2400
 9247W        W25056   2.570  17.582  15.664 -0.0785  0.1165 -0.1215
 9248W        W25057  15.015  12.353   3.064 -0.2305 -0.0100 -0.4765
 9249W        W25058   9.510  16.514   3.321  0.1506  0.0171  0.1154
 9250W        W25059  12.219   6.730   4.657 -0.1289 -0.1374 -0.3246
 9251W        W25060  10.025   8.574   0.613 -0.4922  0.0443  0.2339
 9252W        W25061   3.107   1.017   1.512 -0.3502 -0.1819  0.1683
 9253W        W25062   7.019  16.251   3.136 -0.1798  0.0990  0.0394
 9254W        W25063  12.949   8.732   4.609  0.2349  0.0150 -0.2310
 9255W        W25064  16.398   1.416   2.981 -0.0898  0.0737  0.1140
 9256W        W25065   0.164  11.673  10.472  0.0232  0.1924  0.1074
 9257W        W25066   1.012   1.518  11.785 -0.1716 -0.2815 -0.0240
 9258W        W25067  14.260  16.411  14.248  0.4838 -0.2471  0.0640
 9259W        W25068  17.229   5.183  14.426 -0.2467  0.0001  0.2368
 9260W        W25069  16.293   1.300   5.614  0.0563  0.0162  0.1249
 9261W        W25070   3.237   3.683  16.376 -0.1919  0.1381  0.1979
 9262W        W25071   5.757  17.060  14.037 -0.0667 -0.0990 -0.0962
 9263W        W25072   5.041  17.184  12.930  0.1242  0.2037  0.3002
 9264W        W25073   2.722   1.450  15.740 -0.1532  0.0018 -0.3115
 9265W        W25074  12.463   9.576   4.842  0.0899  0.2099  0.0656
 9266W        W25075  11.581   8.735   0.882  0.0801 -0.2136 -0.2034
 9267W        W25076   3.050  10.818  16.139  0.2433 -0.4209  0.0017
 9268W        W25077  12.831   6.774   5.909 -0.0777  0.1095  0.2389
 9269W        W25078   3.751   5.830  14.141 -0.1692  0.1206 -0.2303
 9270W        W25079  10.605  12.062   2.141 -0.0078 -0.0833  0.0993
 9271W        W25080  13.008  17.788  13.686  0.1406  0.1935 -0.1987
 9272W        W25081   2.684   1.241   2.673  0.1656  0.0226  0.2882
 9273W        W25082   8.206   1.151   0.786  0.0252 -0.4409 -0.0414
 9274W        W25083   9.244  15.906  15.265 -0.0704 -0.0420  0.0400
 9275W        W25084   3.624  13.892  14.618 -0.0073 -0.3829  0.0997
 9276W        W25085   0.358  16.249   4.581 -0.0578  0.3315  0.0103
 9277W        W25086  10.917  10.030  16.680  0.2554 -0.0710 -0.1958
 9278W        W25087   0.975   5.732   5.028 -0.1022 -0.1900  0.4110
 9279W        W25088  12.125  16.897   2.099  0.0784 -0.2704 -0.0089
 9280W        W25089   5.083   4.727  15.011  0.1489 -0.1563  0.2734
 9281W        W25090   4.423  11.501   4.853 -0.0953 -0.0567  0.3469
 9282W        W25091   0.363  12.806   5.161  0.3180 -0.2316 -0.0741
 9283W        W25092  17.849   4.386   3.449 -0.1335 -0.2065 -0.3321
 9284W        W25093   2.985   0.246   0.448  0.0402  0.0314  0.2975
 9285W        W25094  17.444   9.922   5.602 -0.1811  0.2696 -0.3312
 9286W        W25095  17.607  16.305   2.722  0.3080  0.1352 -0.0155
 9287W        W25096  13.306  17.710   0.176 -0.1804  0.1346 -0.0510
 9288W        W25097  13.318  15.667   1.280  0.0236  0.1320  0.0721
 9289W        W25098   6.146   9.034   1.435 -0.1509 -0.0098  0.1876
 9290W        W25099  14.895  13.758  16.695 -0.2359 -0.2494 -0.2492
 9291W        W25100  10.999   7.669  15.681  0.2538  0.3106 -0.1562
 9292W        W25101   2.830   3.518   2.362 -0.2053 -0.1517 -0.0590
 9293W        W25102  17.722   4.932   2.525  0.1498 -0.1423 -0.0290
 9294W        W25103  10.964   2.240   0.133  0.1972  0.1694  0.0221
 9295W        W25104  11.421   8.328   0.649 -0.2325  0.1118 -0.2310
 9296W        W25105  15.578  10.234  13.096 -0.1259  0.1780  0.0021
 9297W        W25106  15.615  13.184  12.656  0.2314 -0.0456 -0.0422
 9298W        W25107  17.126   6.536   3.081  0.1053 -0.3075 -0.1104
 9299W        W25108   9.252  15.706   4.527  0.0199  0.1076  0.3049
 9300W        W25109  10.344  12.491  15.244 -0.0379  0.0474 -0.2197
 9301W        W25110   0.932  11.019   3.765  0.0245  0.1292 -0.3399
 9302W        W25111  11.866  15.359   3.813 -0.1618 -0.1679  0.1153
 9303W        W25112   9.247  16.771   6.718  0.0029  0.4510 -0.0773
 9304W        W25113  10.017   9.364  13.229 -0.2638 -0.0662 -0.0069
 9305W        W25114   4.061   6.281  12.386  0.0955 -0.1120  0.0378
 9306W        W25115  12.569  12.265  15.723 -0.1349 -0.0096  0.1341
 9307W        W25116   9.045  14.443   3.281 -0.1401  0.0533  0.0846
 9308W        W25117   6.803   9.579  13.433 -0.1046  0.1912  0.1907
 9309W        W25118  12.739   5.508  16.381  0.0587  0.2629  0.0969
 9310W        W25119  12.523  15.383   6.344  0.1175 -0.3317 -0.1634
 9311W        W25120   6.184   0.385   4.637 -0.0349 -0.0010  0.1528
 9312W        W25121  16.290   4.305   3.937  0.2250 -0.3018  0.4055
 9313W        W25122  12.095  17.128   5.037  0.2115 -0.0206  0.0007
 9314W        W25123   6.751   9.227   2.186  0.1258 -0.0659 -0.1736
 9315W        W25124  15.151   3.408   2.901 -0.0839  0.1130  0.1032
 9316W        W25125  17.423  17.866  14.604 -0.3307  0.1839 -0.0031
 9317W        W25126   1.192   6.469   0.340  0.1578 -0.1284 -0.1114
 9318W        W25127  16.852  10.163   2.019 -0.1952 -0.1040 -0.0574
 9319W        W25128  16.975  10.593   2.883  0.0518 -0.1266  0.2270
 9320W        W25129   7.171   6.418  11.522 -0.0183  0.0478  0.0764
 9321W        W25130  12.253   9.880  16.676 -0.0347  0.0659  0.0838
 9322W        W25131  12.860   9.713   4.144  0.2297 -0.2527 -0.2560
 9323W        W25132   7.346  11.491  12.693  0.0630  0.1108 -0.0700
 9324W        W25133   4.620   9.981  11.931  0.0921 -0.1500 -0.1510
 9325W        W25134  15.051  14.642   4.938 -0.0687 -0.0940  0.2162
 9326W        W25135   2.682   9.409  14.822 -0.0556 -0.1139  0.0524
 9327W        W25136  12.864   8.369   5.095 -0.0406  0.1932 -0.1934
 9328W        W25137   5.914   8.744   1.840 -0.0156  0.0687  0.1365
 9329W        W25138  12.539   9.795  11.847 -0.0859 -0.2324 -0.4519
 9330W        W25139   9.293   6.586  13.930 -0.0609 -0.1179  0.1226
 9331W        W25140  17.074  14.540  11.550 -0.0642  0.1334  0.0069
 9332W        W25141   4.702   4.161   2.284  0.2256  0.0288  0.1612
 9333W        W25142  16.040  17.763   2.121  0.2193 -0.0164  0.1900
 9334W        W25143  12.777   6.785   5.324  0.0932  0.0093  0.2464
 9335W        W25144   2.242   5.488  16.064  0.0857  0.1322 -0.0198
 9336W        W25145   4.630   9.084   4.450 -0.1982  0.4762 -0.3217
 9337W        W25146  10.365   0.655   4.942  0.0225  0.2173 -0.0486
 9338W        W25147   3.253   8.695  14.419 -0.0330 -0.2475 -0.1203
 9339W        W25148   2.137   6.331   1.255 -0.1528 -0.0508  0.3100
 9340W        W25149   5.227   3.427  12.805 -0.0067 -0.0954  0.1132
 9341W        W25150   7.253   9.301  15.194 -0.1292 -0.0680 -0.1762
 9342W        W25151   7.419   5.198  15.670 -0.3591  0.1428 -0.0385
 9343W        W25152   8.576   7.834  12.205 -0.5455 -0.1245  0.0395
 9344W        W25153  14.703   3.070   4.240 -0.0628  0.0086 -0.1491
 9345W        W25154  12.356  13.809  11.705  0.2585  0.0834  0.1857
 9346W        W25155  10.994   0.718  16.604 -0.0590  0.1830  0.2439
 9347W        W25156  14.621   5.360  14.539  0.2661 -0.0776 -0.2711
 9348W        W25157  12.215   0.488   0.538  0.0407 -0.4402  0.0019
 9349W        W25158  12.074   1.425   0.731 -0.1615 -0.1676 -0.0127
 9350W        W25159   9.044  14.229   0.993 -0.1276 -0.3018  0.2616
 9351W        W25160  15.316  13.104  11.740  0.0953 -0.0894 -0.0513
 9352W        W25161   0.179   8.299   2.627 -0.0969 -0.0844  0.0810
 9353W        W25162   9.989  17.502   4.482 -0.1663  0.4248 -0.0479
 9354W        W25163   3.237   1.051   4.583  0.5549 -0.3747  0.0177
 9355W        W25164   3.981  11.988   4.116 -0.3174  0.1927  0.1228
 9356W        W25165  16.277  15.337   4.804 -0.1793 -0.2118  0.2816
 9357W        W25166   7.044   7.488   1.576  0.4193  0.1331 -0.0905
 9358W        W25167  12.165   4.213  15.175 -0.3671  0.1481 -0.1627
 9359W        W25168   5.750   2.199  14.792  0.2868 -0.1623 -0.0704
 9360W        W25169   9.469  13.529  12.639 -0.0462  0.2092 -0.1038
 9361W        W25170   1.971  17.708   1.055 -0.1239 -0.2837 -0.1117
 9362W        W25171  10.702   1.364  12.135  0.1563  0.1512  0.0605
 9363W        W25172   6.979  10.562  12.717  0.0339 -0.1342 -0.3136
 9364W        W25173  16.855   9.001  16.496 -0.1214 -0.1783 -0.0502
 9365W        W25174   8.534  13.498   0.868  0.0826  0.2694 -0.3896
 9366W        W25175   4.947   8.530   3.381 -0.1008 -0.0210  0.0438
 9367W        W25176   9.902  17.833   3.069 -0.1844  0.1378  0.0231
 9368W        W25177   9.809  13.525  13.009 -0.0546 -0.0792  0.0199
 9369W        W25178  14.082   9.911  14.166 -0.0880 -0.3238  0.1013
 9370W        W25179  14.617  12.859   5.289 -0.1807 -0.1550 -0.0442
 9371W        W25180   5.099   7.937  12.948 -0.2104 -0.1448 -0.0525
 9372W        W25181  15.199   6.997   2.985 -0.1536  0.0184  0.0768
 9373W        W25182  10.916  10.471  16.462  0.0674 -0.0117  0.0187
 9374W        W25183  16.662  17.627  15.304  0.1338 -0.0837 -0.0286
 9375W        W25184  12.083  16.319  12.052 -0.0743 -0.2256  0.2402
 9376W        W25185  16.307  17.004   3.215  0.2389  0.2199  0.2120
 9377W        W25186   4.351   4.780  14.764 -0.1134 -0.2586  0.0511
 9378W        W25187   9.227   7.082   0.034 -0.0200  0.1441 -0.1690
 9379W        W25188   6.825   6.814  14.490  0.4102  0.0226 -0.3616
 9380W        W25189   5.728   9.455   0.708  0.1708 -0.1848  0.1400
 9381W        W25190   0.786  16.069   4.370  0.2539 -0.1628 -0.1700
 9382W        W25191   3.032   0.371   2.274 -0.2992  0.0053  0.0577
 9383W        W25192  12.367  12.095   2.700 -0.1286  0.2325 -0.2210
 9384W        W25193  16.409   0.102  11.820 -0.1505  0.1906  0.0509
 9385W        W25194   2.456   5.873  15.830  0.2186  0.0754  0.0886
 9386W        W25195   9.385   6.443  12.613 -0.0571  0.2398 -0.2030
 9387W        W25196  17.740   6.887   1.882  0.0662  0.1581  0.0227
 9388W        W25197   7.423   8.623  13.192  0.0108  0.1514 -0.2242
 9389W        W25198  15.647   5.883   1.936  0.1066 -0.0944 -0.4107
 9390W        W25199   5.728  15.788  16.314 -0.1847  0.0782  0.0121
 9391W        W25200  17.141   8.734   2.682  0.2412  0.1681  0.0054
 9392W        W25201   3.512   5.168   4.214  0.0016 -0.0310  0.1146
 9393W        W25202   5.700  12.468   2.181 -0.0910 -0.1225 -0.0424
 9394W        W25203  17.154   4.452  14.863  0.2468 -0.0579  0.1370
 9395W        W25204   6.983   8.883   2.532 -0.1664  0.1099  0.0020
 9396W        W25205  16.218   7.145   1.660 -0.1587 -0.1739  0.0737
 9397W        W25206  13.888  13.335   6.441 -0.0196  0.2138 -0.0555
 9398W        W25207   6.641  10.309  16.450 -0.1780  0.4056 -0.0874
 9399W        W25208   7.017   9.271  14.445  0.0104  0.2330  0.0697
 9400W        W25209  14.145  13.251   4.220  0.1058 -0.0632  0.2088
 9401W        W25210   0.870   0.478   0.625  0.0544 -0.0210  0.1740
 9402W        W25211   3.779  10.457  10.923 -0.2080 -0.1687  0.2306
 9403W        W25212   8.356   0.721   2.209 -0.1732 -0.1946  0.1797
 9404W        W25213  11.920  15.022   5.168 -0.1036  0.2028  0.0650
 9405W        W25214   0.025   3.545  13.724 -0.1566  0.0536  0.1642
 9406W        W25215   9.042   7.163  10.630  0.1390  0.0101 -0.0634
 9407W        W25216  17.725   9.201   2.009  0.0771  0.1692  0.0245
 9408W        W25217  13.888   9.880  13.650 -0.0755  0.0179 -0.0880
 9409W        W25218   8.186   9.832  13.268  0.1373  0.0647  0.1887
 9410W        W25219  11.863   4.133  12.505 -0.0007  0.0621  0.3642
 9411W        W25220  10.975   9.519   0.803  0.1628  0.1349 -0.0822
 9412W        W25221  13.295  10.280   3.914  0.1264 -0.3772 -0.0570
 9413W        W25222  14.398  10.787   6.413  0.1263 -0.3868  0.0661
 9414W        W25223  10.308  13.454   1.015  0.3233 -0.0527 -0.0702
 9415W        W25224  16.216   4.013   4.894 -0.0736  0.1603 -0.3105
 9416W        W25225  13.295   6.604   5.015 -0.0846 -0.0087 -0.2163
 9417W        W25226   9.021   2.090   1.146  0.2485  0.1217  0.0107
 9418W        W25227   9.497  10.089  16.237  0.0737 -0.0234 -0.0293
 9419W        W25228   9.652   0.781   0.533 -0.0438  0.2948 -0.0753
 9420W        W25229  12.872  10.771   1.497 -0.0686 -0.2801  0.0591
 9421W        W25230  11.786   9.164   1.333 -0.1305  0.0781  0.0588
 9422W        W25231   3.971   4.901  14.282 -0.0906 -0.0030 -0.1962
 9423W        W25232   4.178   7.255  15.834 -0.1590 -0.3672  0.1510
 9424W        W25233   2.215   2.665  16.677 -0.0791 -0.1396 -0.2361
 9425W        W25234   9.887   2.123  14.403 -0.1552 -0.0536 -0.0623
 9426W        W25235   3.738  11.018  11.380 -0.0239 -0.2293 -0.3120
 9427W        W25236  11.343   9.799  16.197 -0.3045 -0.0287 -0.1521
 9428W        W25237   2.192  15.968  12.838  0.4020 -0.1638 -0.0349
 9429W        W25238   3.617  13.607  13.098 -0.0648 -0.0424 -0.0239
 9430W        W25239   3.949   9.659  13.601 -0.1021  0.1550 -0.2897
 9431W        W25240   3.108   1.621  13.606 -0.0207 -0.3297 -0.3294
 9432W        W25241  15.856   3.342   0.039  0.1752 -0.0488  0.2695
 9433W        W25242  15.570  11.075  16.048  0.1504 -0.0340 -0.1633
 9434W        W25243   4.056   6.839   1.088  0.1606  0.2057  0.1698
 9435W        W25244   1.450  17.728  14.627 -0.1851  0.0455  0.0789
 9436W        W25245   7.819   5.789  11.782  0.2218  0.2139  0.2211
 9437W        W25246   0.013   2.005   0.199  0.0826  0.0396 -0.2785
 9438W        W25247  10.883   4.168   1.925  0.1853 -0.1215 -0.0599
 9439W        W25248  17.767   5.214  13.062  0.2099 -0.1255  0.1087
 9440W        W25249  14.014  16.183   1.439  0.2875 -0.0032 -0.1157
 9441W        W25250  12.141  11.552   5.813  0.1770  0.0422 -0.4424
 9442W        W25251   4.547  10.564   4.547  0.1391 -0.0961 -0.0703
 9443W        W25252   4.046   2.705  13.447  0.1188  0.2664  0.0223
 9444W        W25253   7.874   9.987   0.375  0.1080  0.1002 -0.3199
 9445W        W25254  14.371  17.758   4.005 -0.1167 -0.1362  0.2721
 9446W        W25255  17.731   6.682  14.905  0.0184 -0.1855  0.1878
 9447W        W25256  13.793   4.604   0.913  0.1690  0.0257  0.0782
 9448W        W25257   5.363  10.237   5.289 -0.0999  0.1765  0.1019
 9449W        W25258   3.452   0.299   5.525 -0.2930 -0.1111 -0.1397
 9450W        W25259  12.071   6.088  13.879 -0.2485 -0.1973  0.0311
 9451W        W25260   2.859  10.907   3.709  0.0429 -0.0124 -0.0450
 9452W        W25261  10.770   7.048  10.715  0.1478 -0.0385 -0.0006
 9453W        W25262   4.034   4.615   2.867  0.1809  0.0364 -0.2299
 9454W        W25263   3.548  11.558   2.782 -0.1380 -0.2488  0.1374
 9455W        W25264  15.786   1.152   3.790  0.1169 -0.0038  0.0720
 9456W        W25265  17.570  10.588   0.650 -0.1029  0.0738  0.0362
 9457W        W25266  16.366  16.863   1.705  0.1733  0.2792 -0.3219
 9458W        W25267  13.221   2.146  16.237 -0.0889 -0.0561 -0.1273
 9459W        W25268   8.460   3.897   5.527  0.1303 -0.4708 -0.3056
 9460W        W25269  11.880  12.111  14.461 -0.3799  0.3239  0.3465
 9461W        W25270  15.247  13.962   0.454  0.0875 -0.0168  0.0638
 9462W        W25271   8.164   0.146   4.813 -0.1867  0.1502 -0.0513
 9463W        W25272  10.997  17.241   3.295 -0.1165  0.0384 -0.1916
 9464W        W25273   4.175  16.663  15.609 -0.0062  0.0241 -0.0824
 9465W        W25274  10.587   7.956   6.319 -0.0700  0.0529 -0.0330
 9466W        W25275  14.630   8.039  12.102 -0.1185  0.0236  0.1915
 9467W        W25276   4.205  14.734  14.126  0.1400  0.1645  0.0093
 9468W        W25277   6.133   0.724   1.080  0.2487  0.1311  0.1701
 9469W        W25278  12.776  14.747  12.001 -0.0286  0.1258  0.1795
 9470W        W25279   0.151  11.538  12.931  0.1699 -0.0894  0.4395
 9471W        W25280  16.020  15.556   5.252  0.1511 -0.1223 -0.3281
 9472W        W25281  10.353   7.598  11.839 -0.0266 -0.1591  0.0973
 9473W        W25282   0.572   7.545  14.602  0.0550  0.2631  0.3061
 9474W        W25283  17.216  13.853  15.455 -0.0326  0.1986 -0.0832
 9475W        W25284   4.792   1.992  12.473  0.0070  0.1190 -0.0024
 9476W        W25285   8.551   5.848  14.776 -0.2329 -0.0117 -0.0949
 9477W        W25286   8.952   8.453  14.838 -0.0271 -0.0216 -0.0441
 9478W        W25287  12.723  13.691  12.827  0.0252 -0.1387  0.2299
 9479W        W25288   0.513   9.598  13.046  0.0665 -0.0167 -0.0627
 9480W        W25289   3.788   2.364   4.376 -0.2819 -0.1784 -0.0493
 9481W        W25290   1.520   6.865  15.889  0.2464  0.1912  0.1181
 9482W        W25291  11.704   8.890  16.066  0.0196 -0.1131  0.0779
 9483W        W25292   2.948   2.662   2.606 -0.0854 -0.2555 -0.1497
 9484W        W25293   3.626   2.477  16.617  0.0437  0.1045  0.0877
 9485W        W25294   2.032   8.470  12.221  0.2555  0.2602  0.1808
 9486W        W25295  14.934   8.575  12.075  0.1876 -0.1835 -0.0083
 9487W        W25296   1.920  17.149  15.713 -0.0880  0.0462 -0.1671
 9488W        W25297  14.619   1.667  15.115  0.2726  0.1383 -0.1690
 9489W        W25298  13.281   4.167  16.258 -0.0238 -0.0067  0.3038
 9490W        W25299  12.529   6.375   5.520 -0.0446  0.1652  0.0762
 9491W        W25300   1.864   3.593  12.471 -0.2240 -0.1942  0.0340
 9492W        W25301   9.963   2.779   0.094  0.0477 -0.2740 -0.1100
 9493W        W25302   6.118  10.751  13.631 -0.0679 -0.2708  0.0921
 9494W        W25303   2.964  12.517   0.289  0.0279 -0.1157  0.0989
 9495W        W25304  11.887  17.894   0.635 -0.2109  0.1162 -0.0911
 9496W        W25305   0.629  12.390  11.919  0.0121  0.0875  0.3500
 9497W        W25306   5.751   7.655  14.469 -0.0959  0.1441  0.0387
 9498W        W25307   4.090   7.459   4.032 -0.0327  0.2296 -0.0124
 9499W        W25308  10.506   8.005  15.726  0.1902  0.0609 -0.1618
 9500W        W25309  13.020   3.898  16.604  0.0331  0.2382 -0.1435
 9501W        W25310   4.256   8.922  12.387  0.0631 -0.0650  0.1245
 9502W        W25311  13.643   8.688  15.001 -0.1965 -0.0591 -0.1532
 9503W        W25312  11.604   1.534   6.639  0.0028 -0.1599  0.2134
 9504W        W25313   9.599  12.618   2.782  0.2349 -0.0786 -0.0357
 9505W        W25314  11.388   0.828   4.710  0.0860  0.3804 -0.0450
 9506W        W25315   6.724   1.281   3.940 -0.0700  0.2232 -0.1818
 9507W        W25316   2.803   3.824  14.248 -0.0931  0.2308 -0.2051
 9508W        W25317  11.307   8.344  12.665 -0.1080 -0.1924  0.1635
 9509W        W25318  17.034  16.139  12.452  0.1317 -0.0795  0.0146
 9510W        W25319   0.765   6.105   1.949  0.1434  0.2266  0.1577
 9511W        W25320   0.771  16.253  12.399 -0.4092  0.2118  0.1681
 9512W        W25321   5.979   0.910  11.369 -0.1047 -0.1975  0.1751
 9513W        W25322   3.357  16.346  12.781  0.1021  0.0409 -0.1572
 9514W        W25323  17.575   3.527   5.135  0.5405  0.0042 -0.0165
 9515W        W25324  13.766   1.536  16.601  0.2221 -0.0713  0.0245
 9516W        W25325  17.650   1.966   4.745  0.0178  0.2058 -0.0929
 9517W        W25326   2.583   0.482  13.084 -0.0190  0.0408  0.0652
 9518W        W25327  11.354   9.682  13.974 -0.1242  0.0648 -0.0017
 9519W        W25328  11.881  17.737   2.446 -0.0292 -0.1018 -0.1012
 9520W        W25329   0.264   4.641   1.697  0.1442 -0.4012 -0.2815
 9521W        W25330   0.266   3.307  11.991  0.1702 -0.1598  0.2221
 9522W        W25331  11.306   7.164  11.835 -0.1792 -0.1181  0.1179
 9523W        W25332   6.790   1.793   2.229  0.0954 -0.1011 -0.2088
 9524W        W25333   6.158  14.471   5.072  0.0593  0.0458 -0.2647
 9525W        W25334   0.510   7.082   4.883 -0.0157 -0.2916  0.0933
 9526W        W25335   7.457   8.300   0.446  0.2020  0.1237 -0.1532
 9527W        W25336   2.977  16.104  11.856  0.0775  0.2056 -0.2794
 9528W        W25337  16.252   2.552  15.243 -0.0942 -0.2080  0.1316
 9529W        W25338   2.944  11.776   0.950 -0.3747 -0.1773 -0.0943
 9530W        W25339   1.749   4.638   4.060  0.0758 -0.0526  0.2756
 9531W        W25340   8.989  11.206   0.694 -0.2765  0.3090 -0.4142
 9532W        W25341   3.781  15.048   4.590  0.2835 -0.2519 -0.2003
 9533W        W25342  13.680   5.494   6.056 -0.1252  0.0240  0.1654
 9534W        W25343   9.388   2.045   2.356 -0.0239 -0.0853 -0.1681
 9535W        W25344   0.713   4.263   2.137 -0.0464  0.1219  0.1837
 9536W        W25345   4.812  15.995  16.657  0.2930  0.0164  0.0115
 9537W        W25346  13.866  14.165   3.931  0.1603 -0.2549 -0.2285
 9538W        W25347   2.562  14.638   5.238 -0.0069  0.0420  0.0573
 9539W        W25348  10.514   7.833   1.574 -0.0480 -0.0833  0.1266
 9540W        W25349  17.041  10.546   2.371 -0.0492 -0.0801  0.0166
 9541W        W25350  11.805   8.114  14.586 -0.0825  0.0208  0.3196
 9542W        W25351  16.162  13.912  13.941 -0.2818  0.0312  0.0839
 9543W        W25352  12.373   5.171   4.513 -0.0926  0.0916 -0.0400
 9544W        W25353   7.981   0.102  13.548 -0.2494 -0.0221  0.1431
 9545W        W25354   3.278  13.017  10.891 -0.2756 -0.2054 -0.1281
 9546W        W25355  14.318   1.301   0.906 -0.3681 -0.0781 -0.0869
 9547W        W25356  15.593   2.522  15.407 -0.2939 -0.2517 -0.3327
 9548W        W25357   4.101   1.463   4.366  0.2136  0.2111 -0.1983
 9549W        W25358  16.268   5.950   2.648 -0.0972 -0.4110  0.0454
 9550W        W25359  16.201   5.981   0.765  0.1041 -0.1981  0.1138
 9551W        W25360  16.515   0.746  15.056  0.0790 -0.0174 -0.0028
 9552W        W25361   2.444   1.558   0.111 -0.1031  0.0356 -0.0804
 9553W        W25362   1.692  16.372   5.367  0.0003 -0.1318 -0.1963
 9554W        W25363  15.923   5.566   3.465 -0.1046 -0.0492  0.2816
 9555W        W25364   7.321  15.506  12.513 -0.0026 -0.1003 -0.0258
 9556W        W25365   9.793  16.166   1.234  0.1156  0.2192  0.1560
 9557W        W25366  10.047   5.277   5.488 -0.2750 -0.1240  0.0639
 9558W        W25367   7.764   6.701   0.461  0.0339  0.4211 -0.2626
 9559W        W25368  12.125   8.103  16.694 -0.2590  0.0082 -0.0157
 9560W        W25369  10.502   2.820  16.114  0.0356  0.0166  0.1151
 9561W        W25370   3.072  12.573   1.445 -0.1346 -0.0586 -0.3478
 9562W        W25371  11.895  11.371   3.622 -0.2600  0.0143  0.1289
 9563W        W25372  17.060   1.254  16.604 -0.2307  0.0114  0.0911
 9564W        W25373   1.954   0.804  13.707  0.1425  0.1446 -0.2874
 9565W        W25374   4.147   6.322   1.814  0.3971  0.2362 -0.3180
 9566W        W25375   4.289  11.229  13.907  0.1122 -0.0076  0.0026
 9567W        W25376  16.937   7.055  13.133  0.1148  0.1372 -0.0466
 9568W        W25377  17.720  14.255  15.292 -0.1458 -0.0188  0.1185
 9569W        W25378   3.283   0.430   1.273  0.0137  0.0292  0.1358
 9570W        W25379  12.677   0.231   3.287 -0.0130  0.6138  0.0233
 9571W        W25380  10.217   8.212   3.019  0.2136  0.0443 -0.0558
 9572W        W25381  17.460   3.396   4.575 -0.0846 -0.0764  0.1799
 9573W        W25382   1.304   5.926   0.709 -0.1899 -0.2017 -0.1986
 9574W        W25383   2.634   8.057  11.056  0.1205  0.1358 -0.1807
 9575W        W25384  13.011  14.533   3.714  0.4653  0.1597 -0.1157
 9576W        W25385   9.547  12.984  15.301  0.0234 -0.0239 -0.1094
 9577W        W25386   1.395   2.509  14.724 -0.0434  0.0620 -0.1856
 9578W        W25387  17.698  10.867   3.886 -0.2293  0.1599  0.1566
 9579W        W25388   2.990  12.083  10.843 -0.0445  0.2890  0.0164
 9580W        W25389  16.027   5.239   5.057  0.0300  0.0329 -0.1815
 9581W        W25390  10.391   9.066  11.711 -0.1348 -0.0299 -0.1934
 9582W        W25391   7.893  16.220  15.271 -0.2127 -0.0416  0.0823
 9583W        W25392  11.121   5.768  12.293  0.1197 -0.1814 -0.2769
 9584W        W25393  16.604  17.264  14.274 -0.2722  0.3218 -0.0372
 9585W        W25394  13.785   6.014   0.831 -0.2461 -0.3753  0.2037
 9586W        W25395  15.839  13.094   0.569  0.1748 -0.2386  0.1659
 9587W        W25396  16.236   7.858   3.774  0.0812 -0.0659  0.1893
 9588W        W25397   0.395   6.391  13.993  0.0983  0.0077 -0.0557
 9589W        W25398   8.736  13.838  11.054  0.1386 -0.0199 -0.3100
 9590W        W25399  14.591  17.950  16.255  0.0787 -0.1033 -0.0092
 9591W        W25400   2.100  14.873   5.190  0.2154 -0.4845 -0.1752
 9592W        W25401   8.691  16.643  13.910 -0.1602 -0.1072 -0.1015
 9593W        W25402  17.317   8.105   5.002  0.0494 -0.0130  0.0185
 9594W        W25403  15.867   4.205   2.476 -0.0108 -0.1530 -0.0037
 9595W        W25404  11.180  10.921  14.046  0.2986 -0.3168  0.0761
 9596W        W25405  15.704   2.370  16.496  0.0127  0.1655  0.0998
 9597W        W25406  10.175  16.148   0.842  0.0223 -0.0450 -0.1878
 9598W        W25407  14.934   7.068   0.322 -0.0305 -0.0436  0.1267
 9599W        W25408  16.245   9.281   1.426  0.1512  0.0535  0.0851
 9600W        W25409   0.943   7.347   2.012  0.2105  0.2623 -0.4569
 9601W        W25410  16.079  16.932  15.547  0.0713 -0.0523  0.1434
 9602W        W25411   1.540  12.003   2.212 -0.0609  0.0617  0.1312
 9603W        W25412   3.992   7.190   3.582 -0.3947 -0.0276 -0.1946
 9604W        W25413   4.551   0.833  11.625 -0.2449  0.2323  0.0802
 9605W        W25414   3.841  12.926  14.503  0.0794  0.3121  0.1313
 9606W        W25415   7.764  11.685  16.565 -0.2855  0.3300  0.0079
 9607W        W25416   8.522   8.067  14.451 -0.0307 -0.2317  0.0968
 9608W        W25417  16.781  11.371  14.755 -0.4542  0.0225 -0.1852
 9609W        W25418  15.458   6.168   1.461 -0.0453 -0.1971 -0.0518
 9610W        W25419   7.389   9.875  15.889 -0.1003  0.0531  0.0297
 9611W        W25420   2.638   1.438  13.655  0.0059  0.0420  0.0600
 9612W        W25421   0.945  12.365  16.664  0.0167 -0.2631  0.0477
 9613W        W25422  13.566   7.586  14.318  0.0108 -0.1012 -0.1605
 9614W        W25423   1.941  11.636  13.268  0.0731  0.1421  0.0257
 9615W        W25424   4.163   1.976  13.012 -0.1068  0.0284  0.0688
 9616W        W25425  13.154  13.582  15.257 -0.1495 -0.1485 -0.1619
 9617W        W25426  15.937  11.566  12.637  0.0979  0.1489 -0.2609
 9618W        W25427   9.497   5.577   0.968  0.2089 -0.1640 -0.0486
 9619W        W25428   9.652   1.083  15.082  0.2705 -0.5042 -0.0389
 9620W        W25429  15.684   0.252  15.900  0.1439  0.0001  0.1290
 9621W        W25430   8.112   8.112  15.255  0.1022  0.1355  0.0654
 9622W        W25431   0.345   9.938  13.936  0.0225 -0.1465 -0.1818
 9623W        W25432  16.644   8.645   4.065  0.1077 -0.1105 -0.0953
 9624W        W25433  17.711   6.057  16.671 -0.1839 -0.3251  0.2332
 9625W        W25434   4.093  10.057  11.850  0.2258  0.0171  0.3636
 9626W        W25435  13.010  11.873   2.709 -0.1020  0.3291 -0.0691
 9627W        W25436   8.739  12.203   3.862  0.3562  0.1384 -0.1174
 9628W        W25437   7.159   0.993   2.985 -0.4152 -0.0608  0.1128
 9629W        W25438   7.725  12.195  10.211  0.0849 -0.0148  0.1557
 9630W        W25439   5.043   4.597  11.751  0.4459  0.0003 -0.1048
 9631W        W25440   5.917   6.225  16.060 -0.0902 -0.0037 -0.2612
 9632W        W25441  11.276   1.755   1.042  0.1441 -0.1916  0.1005
 9633W        W25442   8.993  13.730  15.346 -0.1172  0.1326 -0.1760
 9634W        W25443  14.377   2.876  13.711  0.0270 -0.0186 -0.1938
 9635W        W25444   7.772  10.395   2.629 -0.2383  0.2518  0.0449
 9636W        W25445  11.360  13.544   2.734 -0.4175 -0.0603  0.0550
 9637W        W25446   6.336   6.745  11.253 -0.3579 -0.3607 -0.0171
 9638W        W25447   5.507  10.417   3.247  0.0125 -0.1263 -0.0406
 9639W        W25448  17.224  10.829  15.264 -0.0023  0.1326  0.0013
 9640W        W25449  15.806   9.892  14.072 -0.0869 -0.2935  0.2708
 9641W        W25450  16.204  10.219  12.155  0.0485 -0.0510  0.2120
 9642W        W25451   1.783   1.499  11.745  0.0996  0.3677 -0.0454
 9643W        W25452   0.209   0.678   6.195 -0.0704  0.2002  0.0039
 9644W        W25453  11.417  14.046  13.955 -0.2276  0.2028 -0.1741
 9645W        W25454   6.231   1.384  15.997 -0.0314  0.0550 -0.1237
 9646W        W25455   0.125  13.064  13.258  0.0644  0.1558 -0.0131
 9647W        W25456  11.164   5.000   1.834  0.2189 -0.1331  0.4331
 9648W        W25457   4.974   7.636  14.618  0.0062  0.2414  0.1175
 9649W        W25458  10.868   8.350   5.597 -0.4050  0.1134  0.3165
 9650W        W25459   5.914   0.029  15.592  0.1322  0.0510  0.3241
 9651W        W25460   8.940   4.477   2.396  0.3652 -0.0335 -0.0056
 9652W        W25461   9.171  15.870   2.247 -0.0955  0.1600  0.2063
 9653W        W25462  16.920   0.448  16.402 -0.1197 -0.1368  0.1739
 9654W        W25463   0.973  13.864   4.966 -0.1662 -0.2297  0.1596
 9655W        W25464   2.825   7.460   4.752 -0.1014 -0.3942  0.0732
 9656W        W25465  13.668   3.799  14.153 -0.0588  0.1816  0.1067
 9657W        W25466   9.910  14.572  14.954  0.1536 -0.1741  0.2687
 9658W        W25467   7.878  10.151  11.978 -0.2419  0.0111 -0.0273
 9659W        W25468  15.514  16.945   2.349 -0.4826  0.1632 -0.0976
 9660W        W25469  17.799   6.277  14.560  0.0027  0.0422  0.0791
 9661W        W25470   2.115   1.925  15.255 -0.1718 -0.0378 -0.0699
 9662W        W25471  11.556  17.186  12.123  0.1512 -0.2982  0.0162
 9663W        W25472  14.049  13.870   1.583  0.1793 -0.1933  0.0865
 9664W        W25473   2.363  14.266   0.803 -0.1326 -0.2289 -0.1765
 9665W        W25474  13.082   2.456  11.211  0.1057  0.2892 -0.2082
 9666W        W25475  12.584   8.131   2.925  0.3608  0.1304  0.0318
 9667W        W25476   7.243  16.107   0.753  0.2371 -0.1107 -0.2977
 9668W        W25477  13.501  12.974   0.764  0.0264  0.0505 -0.1176
 9669W        W25478  16.976   6.449  15.443  0.2770  0.2068  0.1434
 9670W        W25479   1.178  10.701   1.213  0.2574 -0.1105  0.0412
 9671W        W25480  14.652  16.504  15.225  0.2959 -0.1444  0.1733
 9672W        W25481   3.647   6.693  16.183 -0.0873  0.0480 -0.1298
 9673W        W25482  11.396   5.352  15.994 -0.0737 -0.1773  0.1364
 9674W        W25483  14.459   9.921  12.855 -0.1850 -0.0444  0.0725
 9675W        W25484   2.755   7.751   1.573 -0.5589  0.1010  0.2407
 9676W        W25485  12.357  17.738   0.269 -0.4145 -0.3434 -0.0810
 9677W        W25486   6.321   6.607   4.496 -0.1880 -0.3589 -0.3842
 9678W        W25487   0.614  15.349   0.458 -0.1256  0.1677  0.0794
 9679W        W25488   3.749  13.283   1.291  0.3946  0.0910 -0.1192
 9680W        W25489   6.733   1.895  14.561  0.2393  0.0876 -0.0119
 9681W        W25490  12.219  11.383   2.445  0.0073  0.0160  0.1730
 9682W        W25491   1.334   2.950   5.145 -0.0654  0.2359 -0.0182
 9683W        W25492   1.661   1.615  11.190 -0.0117 -0.1092  0.0360
 9684W        W25493  16.567   9.426   3.334 -0.1905 -0.0653  0.0753
 9685W        W25494   2.743   0.030  11.351  0.3376 -0.3954  0.0345
 9686W        W25495   0.554   9.364   0.231  0.0815 -0.1495 -0.2255
 9687W        W25496   5.921  16.890   0.501 -0.1712 -0.1751 -0.3898
 9688W        W25497  17.942  10.474   4.987  0.0199  0.1153 -0.1903
 9689W        W25498  14.222   9.362   3.216  0.0306 -0.0229 -0.0869
 9690W        W25499   5.837  12.998   3.731 -0.1740  0.2284 -0.2671
 9691W        W25500  15.817   7.277  15.421 -0.0497  0.3540  0.0336
 9692W        W25501   7.732   9.058   0.722  0.0708  0.2430  0.1222
 9693W        W25502   0.793   8.248  12.980 -0.2018  0.0430  0.0746
 9694W        W25503   8.588   9.164   3.080  0.3131  0.3959  0.0697
 9695W        W25504  14.351  12.869  12.124  0.1191 -0.0633 -0.1309
 9696W        W25505  14.162   2.161   3.432 -0.2153 -0.0410  0.0424
 9697W        W25506  15.762  13.313   5.792  0.2169  0.5697  0.0309
 9698W        W25507   6.220   2.630  12.682  0.1308 -0.2993  0.2467
 9699W        W25508   7.973   5.005   4.419 -0.1347  0.1132  0.0098
 9700W        W25509  10.457  10.560   2.810 -0.1113  0.0213  0.3058
 9701W        W25510  12.919  15.054   5.796  0.0301 -0.2174 -0.0381
 9702W        W25511  12.865  16.000   3.536  0.1012  0.3432  0.0071
 9703W        W25512   7.640   0.950   1.474 -0.0068 -0.2723 -0.1312
 9704W        W25513   1.301   5.753  11.440 -0.0022 -0.0753 -0.0280
 9705W        W25514  13.863   4.410  14.643  0.1926  0.0811  0.3177
 9706W        W25515   1.927   8.603  16.357  0.0259  0.0708  0.0118
 9707W        W25516  12.421  11.852   2.286 -0.2005  0.1509  0.0593
 9708W        W25517  10.040  10.086  11.695  0.1586  0.0043 -0.0639
 9709W        W25518  11.284  15.452   4.070  0.0695  0.1865 -0.0591
 9710W        W25519   6.776   9.897   5.214  0.1443 -0.0255 -0.2651
 9711W        W25520   4.694  12.249   3.641  0.1946 -0.0472  0.0274
 9712W        W25521  17.501  16.105   1.658  0.0790 -0.2191  0.0352
 9713W        W25522   1.358   1.768   4.230 -0.0215  0.1082  0.0910
 9714W        W25523   1.965  14.866  16.041  0.1585 -0.0163 -0.1186
 9715W        W25524  16.496  12.320   5.779 -0.1301 -0.0328  0.0269
 9716W        W25525   9.765   1.156   1.981 -0.1031  0.0518  0.1452
 9717W        W25526  12.678   4.206   0.014  0.2303  0.0194 -0.0735
 9718W        W25527   4.546  13.162  13.357  0.1752 -0.1680 -0.1035
 9719W        W25528   3.437   9.919  15.856 -0.0221 -0.0808 -0.0303
 9720W        W25529  17.588   0.765  12.001  0.0714 -0.1342  0.0646
 9721W        W25530  15.280   1.310  14.114  0.0036 -0.1023  0.2328
 9722W        W25531   6.753   4.933  11.940  0.3247 -0.2901  0.0232
 9723W        W25532   8.923  16.719   4.488 -0.0303 -0.1362  0.2841
 9724W        W25533  10.735  10.883   3.139  0.0700 -0.1044  0.0156
 9725W        W25534  12.979  10.138  12.991  0.1143 -0.0425  0.0078
 9726W        W25535  16.438  17.007   1.108  0.0305  0.2349  0.3250
 9727W        W25536  16.919   9.266  16.020  0.0102  0.3692  0.1037
 9728W        W25537  10.298   8.781   1.071 -0.0519  0.0512  0.1075
 9729W        W25538  15.900   8.441   0.527  0.0048 -0.0344  0.1881
 9730W        W25539  10.944   1.168  16.157 -0.0156  0.0649  0.0492
 9731W        W25540   7.832  10.699  13.798 -0.0664  0.0101  0.0218
 9732W        W25541  14.508  15.683   5.294 -0.1831 -0.1805  0.0300
 9733W        W25542   0.451  10.179   1.349  0.0981 -0.2183 -0.4559
 9734W        W25543   6.109  10.422   4.874  0.1396  0.0450  0.0589
 9735W        W25544   4.363   8.224  10.692  0.1621 -0.0216  0.0981
 9736W        W25545   2.841   5.677  16.061 -0.0187 -0.2389  0.3174
 9737W        W25546  15.669  11.463  16.468 -0.1501 -0.1483 -0.0453
 9738W        W25547  10.918   5.631   2.491 -0.0478  0.0741 -0.0442
 9739W        W25548  13.916   4.032   3.063 -0.1089 -0.0876  0.2110
 9740W        W25549   3.128  17.020   0.272 -0.1119  0.0125 -0.0960
 9741W        W25550   4.899   9.340   1.843 -0.3570 -0.2366  0.0033
 9742W        W25551   1.572   2.037  12.959 -0.1881  0.1209 -0.1366
 9743W        W25552   1.168  16.952  12.593 -0.1327  0.2536 -0.1502
 9744W        W25553  13.782   6.864  11.362  0.1329 -0.2409  0.2618
 9745W        W25554  10.184   1.718   0.073 -0.2308 -0.2243  0.0684
 9746W        W25555  13.862   4.471  12.520 -0.0742 -0.0006 -0.3089
 9747W        W25556   1.668   2.568  16.532  0.0738 -0.2077  0.0510
 9748W        W25557   7.999   3.130  16.713  0.2862  0.0741 -0.0381
 9749W        W25558   9.996   7.685   4.921 -0.0140  0.0962  0.3396
 9750W        W25559  12.309  16.908  12.693  0.0897  0.0346 -0.0341
 9751W        W25560  12.828   3.272   5.338 -0.0780 -0.2026  0.0956
 9752W        W25561  16.450  17.669   3.329 -0.0824 -0.1718  0.1328
 9753W        W25562  16.532   0.164  11.371  0.0499  0.1897  0.3671
 9754W        W25563   5.725   5.409   0.190  0.0652 -0.2227  0.2713
 9755W        W25564   7.157   9.009   3.079 -0.2017 -0.0165  0.1403
 9756W        W25565   6.610   8.365   4.578  0.2088  0.0549  0.1659
 9757W        W25566   3.318  13.792  13.859 -0.0970 -0.1900  0.2024
 9758W        W25567   5.730  14.222   3.195 -0.0561  0.1011  0.0886
 9759W        W25568  14.875   0.717   2.294  0.1326  0.1259 -0.2202
 9760W        W25569  13.183   0.400  13.698 -0.0180 -0.2021 -0.0811
 9761W        W25570   8.591   5.905   1.228  0.2428 -0.0460  0.2107
 9762W        W25571  11.710   2.916   4.209 -0.0438  0.3270 -0.2326
 9763W        W25572   0.901  12.875   0.930  0.4068 -0.0704 -0.0135
 9764W        W25573  10.885   6.883  16.091  0.0135 -0.1760  0.0129
 9765W        W25574   8.229  16.501  13.901  0.2768 -0.0617 -0.1333
 9766W        W25575   7.473   2.250   2.507  0.2018  0.1217  0.0522
 9767W        W25576  10.612   0.208   5.001 -0.2290  0.1446  0.0060
 9768W        W25577  11.707   2.007   6.606  0.0470  0.2179 -0.1674
 9769W        W25578  17.297   7.717  14.646  0.0322  0.3581  0.1330
 9770W        W25579   9.623  12.969   5.126  0.1271 -0.1633  0.0527
 9771W        W25580   0.549  12.560  12.417 -0.1580 -0.4354  0.1425
 9772W        W25581  17.550  13.399   2.341 -0.3444 -0.2990  0.1905
 9773W        W25582   9.394   6.652  12.162  0.0809 -0.0906  0.0545
 9774W        W25583   4.766   1.415  15.428  0.1041 -0.0326  0.0417
 9775W        W25584   7.289  10.700   3.319  0.0996 -0.0175  0.0796
 9776W        W25585   7.897  15.514   2.056 -0.2067 -0.1039  0.0361
 9777W        W25586   9.311  14.642   1.899  0.0206  0.0202 -0.2299
 9778W        W25587  16.134   1.993   2.156  0.1212  0.0097  0.1611
 9779W        W25588   7.321   7.485  13.369 -0.0227  0.2428 -0.0315
 9780W        W25589   7.856   6.840  13.619  0.0047  0.1863 -0.1187
 9781W        W25590   1.600   9.872  15.871  0.1535  0.1327  0.0997
 9782W        W25591   4.031   6.639   3.347  0.1516  0.0403 -0.1050
 9783W        W25592   9.571   2.816   4.527 -0.3272  0.0406  0.2023
 9784W        W25593   1.359  16.969   6.135  0.1599 -0.1700 -0.1734
 9785W        W25594  16.410  14.088   5.441  0.3268  0.0073 -0.1629
 9786W        W25595   0.798  13.170  11.996  0.2532  0.3229 -0.1616
 9787W        W25596   4.168  15.204   2.408 -0.2380  0.0762 -0.1360
 9788W        W25597   7.076  12.772   2.260  0.0796  0.0591 -0.1658
 9789W        W25598   6.375   0.782   0.611  0.4012 -0.2770  0.0368
 9790W        W25599   4.171  14.789   3.359 -0.0022  0.0120  0.1986
 9791W        W25600   8.519   7.129  14.958 -0.0881  0.0051 -0.0130
 9792W        W25601   3.107  17.255  15.028 -0.1776  0.1208  0.3011
 9793W        W25602   9.617   1.744  13.358 -0.0683  0.1508  0.2421
 9794W        W25603   1.975   8.852  12.644  0.5053  0.0067  0.0170
 9795W        W25604  12.931  12.208  16.029  0.1114  0.4396 -0.0270
 9796W        W25605  16.260   4.876  14.348 -0.1218  0.2751 -0.1454
 9797W        W25606  17.206   1.344  15.068 -0.1911 -0.1971  0.2642
 9798W        W25607  16.526   9.841  16.190  0.0834 -0.0714  0.0469
 9799W        W25608  17.614   9.484  12.669  0.2587  0.0725 -0.2180
 9800W        W25609  15.753  13.238   0.050  0.0536 -0.2731 -0.1648
 9801W        W25610   9.854  16.997  14.286 -0.0793  0.0814 -0.0681
 9802W        W25611   9.693   9.335   5.781 -0.2318 -0.1131 -0.0496
 9803W        W25612  16.873  16.897   2.451  0.0036  0.0479 -0.0955
 9804W        W25613  12.706   7.088  11.083  0.0197  0.0168  0.1104
 9805W        W25614   5.926  12.206   3.733 -0.2014  0.1080 -0.0959
 9806W        W25615   2.061  13.090   4.195 -0.0058 -0.0916 -0.1387
 9807W        W25616  17.401  14.498   1.551  0.1016  0.2425 -0.2569
 9808W        W25617   2.879  12.628  14.664  0.0510  0.0085  0.0972
 9809W        W25618   0.389  13.046   3.255  0.1118 -0.1983 -0.1344
 9810W        W25619   6.392  15.604  11.417 -0.1231  0.1686 -0.3790
 9811W        W25620  16.438  15.824   4.904 -0.2250  0.2903  0.1835
 9812W        W25621  17.273   6.663   3.580  0.0902  0.3072 -0.1076
 9813W        W25622  16.362  17.861   0.566 -0.2071 -0.0365 -0.1275
 9814W        W25623  12.873  12.880   0.933 -0.2405  0.1615 -0.2520
 9815W        W25624   6.537  14.234  16.077  0.0358  0.1286  0.2025
 9816W        W25625   7.404   3.797   1.847  0.1457  0.0890 -0.3185
 9817W        W25626  10.590  17.267  12.463  0.0229  0.0916  0.3747
 9818W        W25627  13.875   7.734   1.164 -0.1647 -0.1175 -0.0477
 9819W        W25628  10.440  13.054  14.211 -0.1977  0.0932 -0.2191
 9820W        W25629  13.459   9.077   5.345  0.1823  0.3057 -0.1863
 9821W        W25630  15.340  12.996   0.261 -0.0735  0.2453 -0.3201
 9822W        W25631   0.600  14.286   0.560  0.2107 -0.1069 -0.2082
 9823W        W25632   0.469   3.328   1.861  0.5791  0.2548 -0.1603
 9824W        W25633   2.135  12.379  15.924 -0.1537  0.1429  0.0068
 9825W        W25634   4.184  15.134  13.259 -0.0283  0.2926 -0.1447
 9826W        W25635  11.792  11.384  15.682 -0.1684  0.1128  0.1913
 9827W        W25636  17.811   0.098  10.515  0.1155  0.1586  0.2257
 9828W        W25637  13.714  14.516   1.482 -0.0654 -0.0159  0.0228
 9829W        W25638   0.196   8.983  16.697 -0.1983  0.2357 -0.0256
 9830W        W25639   3.558  14.361   1.539  0.1296  0.2863 -0.1869
 9831W        W25640   9.271   1.739   5.946 -0.0157 -0.3115  0.4312
 9832W        W25641   4.711  15.758  15.171 -0.0211 -0.2072  0.0930
 9833W        W25642   2.335   9.675   2.124 -0.0265 -0.0117  0.0096
 9834W        W25643   5.482  16.443  14.660  0.1025 -0.0906 -0.0314
 9835W        W25644   6.568  17.201   1.693 -0.0245  0.1883  0.3403
 9836W        W25645   9.297   6.592  15.602  0.1813  0.0056  0.0596
 9837W        W25646   7.889  15.469  16.345 -0.2161 -0.0106  0.1609
 9838W        W25647   6.995  11.802  11.693 -0.1686  0.1440 -0.1786
 9839W        W25648  10.040  16.309   0.048  0.1335  0.2468  0.1405
 9840W        W25649   4.768  13.964  12.092 -0.2754 -0.0952 -0.0933
 9841W        W25650   9.056  13.021   5.273  0.2697 -0.1315 -0.0131
 9842W        W25651   6.303  13.808   0.608 -0.3374 -0.0504  0.4024
 9843W        W25652   5.593  12.520  13.138  0.0344  0.3957 -0.2226
 9844W        W25653   9.037   4.079   4.491 -0.0688 -0.0599  0.0268
 9845W        W25654   0.061  10.828  16.398 -0.0529 -0.0514  0.1552
 9846W        W25655  11.937   0.766   5.977 -0.1506  0.6421 -0.0586
 9847W        W25656   0.136  11.099   1.614  0.0710 -0.1602 -0.0758
 9848W        W25657  15.708  14.100  13.741 -0.0579  0.0067 -0.1672
 9849W        W25658   3.954   0.836  15.083  0.0849  0.0262  0.0900
 9850W        W25659  14.438  17.126   0.606  0.4026  0.0001  0.5367
 9851W        W25660   1.283  12.102  16.016 -0.0279 -0.1043 -0.0607
 9852W        W25661   9.745  17.186  11.909  0.1142  0.1230 -0.1802
 9853W        W25662   9.195   8.114  14.008  0.0831  0.0519 -0.0013
 9854W        W25663  10.241   4.315  12.009 -0.0417  0.1173 -0.1728
 9855W        W25664  17.372  16.739   0.977  0.2603  0.1256  0.0854
 9856W        W25665   7.272   1.220   4.713 -0.0355  0.0400 -0.1273
 9857W        W25666  10.062  10.179   0.619 -0.3098 -0.1826  0.0846
 9858W        W25667  15.732  10.478   3.714 -0.2730  0.1540  0.1765
 9859W        W25668  14.915   5.297   0.335  0.0966  0.0704  0.1810
 9860W        W25669  10.921   1.116   2.082  0.1535  0.2101  0.0094
 9861W        W25670   7.639  16.543  11.842 -0.2524 -0.1227 -0.1524
 9862W        W25671   5.165   0.083  14.869 -0.1925 -0.1794 -0.2018
 9863W        W25672  16.729   3.906   5.677 -0.1634  0.2967  0.4001
 9864W        W25673   4.033   0.030  11.595 -0.0383 -0.2805  0.1350
 9865W        W25674  15.804  11.997  14.826 -0.4764  0.1919 -0.1027
 9866W        W25675  11.909   3.077  14.773  0.2259 -0.1310  0.1444
 9867W        W25676   8.882   1.022   5.388 -0.0091 -0.2484  0.1420
 9868W        W25677  14.623  16.982   4.681 -0.1776  0.0151  0.0230
 9869W        W25678  10.301  13.578  13.420 -0.2913  0.3507  0.1632
 9870W        W25679   8.473  14.635   2.383  0.1183 -0.0298  0.4517
 9871W        W25680   5.756   5.712  14.287 -0.0727 -0.1881 -0.0181
 9872W        W25681   2.710   4.583  15.021 -0.2557 -0.2861 -0.2612
 9873W        W25682  10.982  14.087  15.202 -0.2978 -0.0509 -0.1960
 9874W        W25683   1.326  17.330   3.875 -0.2399 -0.1438  0.0720
 9875W        W25684   2.137   4.168  15.428 -0.0559 -0.0381  0.0708
 9876W        W25685  15.065  13.879  11.600  0.2716  0.1507  0.2426
 9877W        W25686   9.703   8.125   4.572 -0.0148  0.1095  0.2962
 9878W        W25687   3.918  13.239  12.580  0.2960  0.2529  0.0479
 9879W        W25688   5.094   8.714  10.557 -0.1283 -0.1198 -0.0239
 9880W        W25689  10.609   6.586  11.889 -0.1701  0.1668 -0.1272
 9881W        W25690   6.624   8.940   3.869 -0.1985 -0.3149 -0.2399
 9882W        W25691   4.496   0.490  15.690  0.2544 -0.0317 -0.0713
 9883W        W25692  11.151  16.284  13.896  0.2521 -0.3566  0.2832
 9884W        W25693  14.517   1.910   4.957  0.3867 -0.1160 -0.0363
 9885W        W25694   6.924   3.597  13.095  0.1928  0.1072  0.0784
 9886W        W25695   8.926   2.005  15.368 -0.0281 -0.3565 -0.0119
 9887W        W25696  16.071   1.153   3.245  0.0318  0.1310  0.1539
 9888W        W25697  10.080  12.532   0.385  0.1143 -0.0271 -0.2177
 9889W        W25698   2.713  12.693  12.941  0.0353 -0.2009  0.2909
 9890W        W25699   5.498  15.601   1.031  0.1482 -0.0785 -0.1577
 9891W        W25700  10.485  10.511  12.958  0.1997  0.5477  0.0882
 9892W        W25701  10.879   0.255   6.634 -0.1512 -0.2651  0.0926
 9893W        W25702   6.265  13.360  12.422  0.0162  0.1674  0.1784
 9894W        W25703  11.314   1.413   1.378 -0.1398 -0.1379 -0.1871
 9895W        W25704  11.915   4.110   0.645 -0.1570 -0.2100 -0.1048
 9896W        W25705   5.165  14.824  14.391  0.0773  0.0526 -0.0926
 9897W        W25706   7.493   9.963   1.414  0.3096 -0.1332  0.1252
 9898W        W25707   0.565   3.668   0.107  0.0118 -0.3127  0.2228
 9899W        W25708   9.759   3.313  15.106 -0.3893  0.3547  0.4400
 9900W        W25709   8.862  14.711   2.772 -0.1842  0.0605  0.3348
 9901W        W25710  10.789  13.275  15.623  0.0187 -0.1695 -0.3158
 9902W        W25711   1.255   7.643  14.185 -0.1204  0.1865 -0.0175
 9903W        W25712  12.002   5.250   1.817  0.1362  0.0308 -0.1417
 9904W        W25713   5.259  11.151  12.027 -0.1488  0.1167 -0.0780
 9905W        W25714   6.858  15.516   0.991  0.2298  0.0030 -0.0548
 9906W        W25715   5.966   3.074   3.800  0.2768  0.0765 -0.0565
 9907W        W25716  13.744  14.205   1.079  0.1481 -0.0207 -0.0556
 9908W        W25717  16.200  10.016   2.347 -0.5793 -0.0156 -0.0316
 9909W        W25718   1.080  13.939  12.663 -0.0734  0.0364 -0.1778
 9910W        W25719  14.335   8.311   5.642 -0.0757 -0.1467 -0.2735
 9911W        W25720  12.498   3.573   2.207 -0.1080 -0.2567  0.1986
 9912W        W25721   1.869  12.866   4.971  0.0404  0.1626 -0.2207
 9913W        W25722   9.931  13.706  12.495 -0.2126  0.1882 -0.1270
 9914W        W25723   5.549   7.918  12.215  0.2591  0.2423  0.0226
 9915W        W25724  11.017   4.007   6.172  0.0346 -0.1821  0.2157
 9916W        W25725   7.708   6.892   5.755 -0.0737  0.0433  0.0320
 9917W        W25726   9.417  12.058  12.436  0.3014 -0.1261 -0.1851
 9918W        W25727  16.263   8.620   6.257 -0.1302  0.1846 -0.0868
 9919W        W25728   6.497  16.813  14.331 -0.1774  0.0501 -0.1865
 9920W        W25729   0.759   6.926  13.171  0.2790 -0.0192 -0.0994
 9921W        W25730   1.419   6.115   4.260 -0.1468 -0.1660  0.0567
 9922W        W25731  12.597   6.791   2.378 -0.2195 -0.1854  0.3651
 9923W        W25732  10.940  15.054   3.421  0.0525  0.4129  0.0671
 9924W        W25733  15.424   5.765  11.949  0.3431 -0.1730  0.0344
 9925W        W25734  13.368  10.664  13.537  0.2022 -0.0030 -0.3818
 9926W        W25735  10.515   3.229  13.819  0.0159 -0.0875 -0.0935
 9927W        W25736   7.328   4.274   0.563 -0.3963 -0.3470  0.0269
 9928W        W25737  17.772   2.090  14.884 -0.4765 -0.2708 -0.1873
 9929W        W25738   8.666  13.112  15.958 -0.1198  0.1445  0.2140
 9930W        W25739  15.373   8.034   2.982  0.0906  0.1973  0.3183
 9931W        W25740   9.376   5.997   5.115  0.0183  0.2086  0.1267
 9932W        W25741   6.531   1.848  15.442 -0.1967  0.0848  0.2315
 9933W        W25742  14.975  14.930  12.966 -0.2898  0.2785 -0.2336
 9934W        W25743   5.464   2.993  12.721  0.0189  0.1825  0.0315
 9935W        W25744  13.591   2.093   4.923  0.0516  0.1298 -0.0149
 9936W        W25745  11.221   4.324  12.105 -0.2981 -0.1884 -0.0412
 9937W        W25746   1.252   6.874  13.035  0.1235  0.1115  0.3182
 9938W        W25747   8.894   2.406   1.586  0.1822  0.2135 -0.2832
 9939W        W25748  11.212  16.126   3.486 -0.2352  0.2499 -0.1059
 9940W        W25749   1.184  13.602   6.080  0.0871  0.1579 -0.0586
 9941W        W25750  14.356   2.835   3.889 -0.2018  0.0966  0.2498
 9942W        W25751  13.557   9.718   6.203  0.1177 -0.3584 -0.2282
 9943W        W25752   8.618  15.994  14.144  0.0512  0.1212 -0.0910
 9944W        W25753  14.646   1.562   6.154 -0.1275 -0.0582 -0.0323
 9945W        W25754   3.140   1.774   2.701 -0.1199  0.4907  0.2166
 9946W        W25755   4.228  15.022   1.220  0.2526  0.0645  0.0660
 9947W        W25756   3.725   5.121   1.241  0.3070  0.0656 -0.2963
 9948W        W25757   3.407   7.643  16.546  0.3930  0.3571 -0.0738
 9949W        W25758  17.463  14.056   3.070  0.0284  0.1155 -0.1789
 9950W        W25759  15.856  15.001  14.674  0.1139 -0.0750 -0.2862
 9951W        W25760  13.772  10.258  16.221 -0.3676  0.1256  0.0089
 9952W        W25761  14.891   6.438  11.922  0.1825 -0.0224 -0.0186
 9953W        W25762  15.048   2.399   1.462  0.0163 -0.1005  0.0337
 9954W        W25763   0.639  12.100   2.760 -0.2449 -0.0604  0.1692
 9955W        W25764   8.373  17.405  15.938 -0.1058 -0.0596  0.3396
 9956W        W25765  17.221   8.967   1.083  0.1418  0.0349  0.0143
 9957W        W25766   2.727   4.685   3.277  0.0779 -0.0703 -0.0346
 9958W        W25767   9.907   0.583   2.519  0.5634  0.3275 -0.2222
 9959W        W25768  17.056   0.720   3.907  0.1084  0.2174 -0.2741
 9960W        W25769   6.789  10.133  13.925 -0.1523  0.0500  0.0534
 9961W        W25770   6.552   8.072   0.620 -0.0591  0.3736  0.2171
 9962W        W25771  10.527   6.989  14.184 -0.0071  0.1521 -0.1754
 9963W        W25772  10.158   7.253   6.160 -0.0797  0.1769  0.2779
 9964W        W25773  15.740  16.467  12.233  0.0505 -0.1227 -0.0548
 9965W        W25774   4.474  15.404   1.987  0.1541 -0.0370  0.0241
 9966W        W25775  11.989   9.419   1.748 -0.4042 -0.1412 -0.4619
 9967W        W25776   7.626   7.417  15.102  0.2116 -0.0920 -0.0205
 9968W        W25777   1.716   4.634   0.820  0.0989 -0.1911  0.0093
 9969W        W25778   0.827   0.733  12.745  0.0327 -0.0880  0.0248
 9970W        W25779   9.819  11.714   0.784 -0.0114 -0.0294  0.4056
 9971W        W25780  16.804   7.454  15.887  0.2313 -0.0670 -0.3256
 9972W        W25781  12.285  15.337   3.525  0.2470 -0.2385 -0.0430
 9973W        W25782  14.306   8.039   3.097 -0.1554 -0.1195 -0.0235
 9974W        W25783  17.848  16.758   0.851 -0.0144  0.1154  0.1352
 9975W        W25784   1.754  11.051   0.584 -0.3418  0.0903 -0.0392
 9976W        W25785  13.063   9.406  13.414  0.1513  0.0262  0.0174
 9977W        W25786   4.888  11.215   4.919  0.1890 -0.1867  0.1246
 9978W        W25787  12.980  15.490  14.795 -0.4653  0.1842 -0.1342
 9979W        W25788   9.131   6.232  15.953 -0.3152  0.0384  0.2092
 9980W        W25789   9.614   0.719   2.112 -0.0295 -0.1105  0.0723
 9981W        W25790  16.835  16.497   5.417 -0.1067 -0.4618  0.0469
 9982W        W25791   8.291   2.045  10.615  0.0578 -0.2523  0.0866
 9983W        W25792  16.728   6.932   1.157  0.0345 -0.1073 -0.0435
 9984W        W25793   8.046  10.759  14.264  0.0286  0.0324 -0.0069
 9985W        W25794   0.757   7.768   1.184 -0.2243 -0.0428 -0.3707
 9986W        W25795   5.771  17.427  10.611  0.2511 -0.2342  0.1216
 9987W        W25796   2.938   2.798   0.628  0.0443 -0.1179 -0.2257
 9988W        W25797  15.071   4.359   4.845  0.0698  0.1271 -0.0964
 9989W        W25798   8.600   0.949  15.136 -0.1079  0.1115 -0.0271
 9990W        W25799  12.243   1.259   2.696  0.1822  0.0745  0.6447
 9991W        W25800   9.742  17.932  15.524  0.1892  0.0963  0.0194
 9992W        W25801   3.375  13.891   0.685  0.2057 -0.1545 -0.0731
 9993W        W25802  13.349   6.424   1.091  0.2561  0.1800  0.0450
 9994W        W25803  12.309   6.064   6.346 -0.1652 -0.0351  0.2919
 9995W        W25804   7.787  15.869   1.672  0.0128 -0.0048  0.0083
 9996W        W25805  13.193   9.057  13.033  0.1881 -0.3069  0.3098
 9997W        W25806   7.579  14.762  13.871 -0.1034 -0.0389 -0.0393
 9998W        W25807  13.960  13.415  12.008 -0.1959  0.0005 -0.1226
 9999W        W25808   7.387   7.159   1.305  0.0369  0.1303 -0.1595
10000W        W25809  10.127   0.056  14.318  0.0040  0.0754 -0.0798
10001W        W25810   8.779  15.812  15.023 -0.0216  0.3461  0.1778
10002W        W25811  13.081  14.925  13.133  0.0019 -0.0005 -0.1145
10003W        W25812  10.193  13.064  15.132  0.1748 -0.2917 -0.1936
10004W        W25813  13.026   7.590   3.501  0.2720 -0.1246 -0.0584
10005W        W25814   8.784   3.500  15.029  0.2256  0.0777  0.0604
10006W        W25815  14.992  10.388  14.998  0.2683 -0.3202  0.0138
10007W        W25816  11.514   7.969   4.076  0.0511 -0.1880 -0.0072
10008W        W25817  14.994  16.759   5.618  0.0709  0.1180 -0.1068
10009W        W25818   4.323   8.679  13.565 -0.0299 -0.1790 -0.1503
10010W        W25819   9.064  17.559   4.723 -0.4099 -0.0807  0.0300
10011W        W25820   2.604   2.886  11.688  0.2320 -0.0253  0.1069
10012W        W25821  15.909   1.326  12.323  0.1653 -0.0302 -0.2442
10013W        W25822   9.658   0.282   2.878  0.1907  0.1402 -0.0299
10014W        W25823   5.767  16.344  12.786 -0.0511 -0.1041  0.2138
10015W        W25824  16.028   1.616  13.607  0.2039  0.0787 -0.3554
10016W        W25825  12.609   7.257  15.439 -0.1876 -0.0901 -0.0405
10017W        W25826  13.876  13.276   5.951  0.2604 -0.0448 -0.0052
10018W        W25827   9.027  16.694   2.706 -0.0649  0.2006  0.0629
10019W        W25828   0.110  13.478   0.921 -0.2447  0.0311  0.2017
10020W        W25829   8.986   5.035   3.450  0.2926 -0.1287 -0.0625
10021W        W25830   6.009   1.582   4.272 -0.0818 -0.0332  0.0152
10022W        W25831   7.032  15.136   0.673 -0.0253 -0.1012  0.1535
10023W        W25832   7.633  13.198   3.139  0.0212  0.1311  0.0135
10024W        W25833   5.855   5.603   1.416 -0.1187 -0.0703  0.0753
10025W        W25834  17.188  17.314  16.554  0.4077  0.2225 -0.0108
10026W        W25835   2.325  13.301   0.330 -0.3729 -0.1260  0.0672
10027W        W25836  10.708   8.718  13.004  0.0657  0.1006 -0.4824
10028W        W25837  14.569  15.587   4.458  0.0740  0.0553  0.0767
10029W        W25838  16.988   2.904   4.976  0.0536 -0.1161  0.1983
10030W        W25839   4.700  15.046  15.656 -0.0712 -0.1275 -0.0289
10031W        W25840  11.581   2.675  12.513 -0.1644 -0.2330  0.1534
10032W        W25841   9.938   0.699   6.140  0.0831  0.0136  0.0431
10033W        W25842  15.411  13.851  13.170 -0.0516  0.0183 -0.2447
10034W        W25843   9.816   6.000   4.782 -0.2610 -0.1155  0.2232
10035W        W25844   5.412   5.721   0.559  0.0257 -0.0178 -0.0450
10036W        W25845  14.042   0.454   5.877  0.1203  0.0438 -0.0484
10037W        W25846  13.247   5.249   5.059  0.2232  0.1939  0.2156
10038W        W25847   5.834   4.978   5.114 -0.1256 -0.0791 -0.1530
10039W        W25848  13.591  14.505   4.166  0.0361 -0.0177 -0.4163
10040W        W25849   1.156  15.593   3.051  0.1201 -0.0653 -0.1990
10041W        W25850  13.322  11.724  13.585  0.3112  0.1013  0.1463
10042W        W25851   3.382   1.094   5.134  0.0898 -0.1789 -0.0636
10043W        W25852   3.096   5.060  13.764 -0.1644 -0.1490  0.0875
10044W        W25853  14.063  11.593  13.195 -0.1901 -0.0225 -0.1889
10045W        W25854   2.954   2.695  11.411  0.2702 -0.2012 -0.1676
10046W        W25855   9.403   3.331   0.573 -0.0105  0.4662 -0.0057
10047W        W25856  12.382   4.213   4.873  0.1877  0.1870  0.2376
10048W        W25857   0.374  12.973  14.773 -0.2287  0.3973  0.0917
10049W        W25858   7.687   4.513  12.419 -0.1287  0.1043 -0.0345
10050W        W25859  12.263   6.345  12.309 -0.1298 -0.0553  0.1820
10051W        W25860   6.099  12.332   2.466 -0.2225 -0.1001  0.4328
10052W        W25861   5.399  14.131  13.097 -0.1012 -0.1804  0.2423
10053W        W25862  14.073  15.663   3.546  0.2072 -0.1342  0.3850
10054W        W25863   5.289   8.562  15.932  0.2475  0.3091 -0.0444
10055W        W25864  11.423   1.529  15.127  0.0363 -0.2317  0.0835
10056W        W25865  15.892   6.851   6.360 -0.0579  0.1049 -0.0641
10057W        W25866  15.040  14.665  15.646  0.0941  0.0285  0.0850
10058W        W25867  14.152   1.908   4.289 -0.0908 -0.1521  0.0519
10059W        W25868   9.110  12.492  14.634  0.0376 -0.2432  0.1459
10060W        W25869  11.334  15.658   1.268  0.0811 -0.0473 -0.1312
10061W        W25870   1.300  10.772  13.590  0.1642  0.2895 -0.1165
10062W        W25871   9.901   5.939  15.246  0.1584 -0.0224 -0.0499
10063W        W25872  10.756  14.660  14.524 -0.1111  0.2254  0.0799
10064W        W25873   5.775  15.782  14.362 -0.2029  0.0420 -0.0254
10065W        W25874   9.132  14.764  15.705  0.0567  0.0995 -0.1025
10066W        W25875   9.500   9.235   6.354  0.1485  0.1483 -0.3012
10067W        W25876   7.452   7.991   0.938 -0.0655  0.3080  0.0875
10068W        W25877   2.847  14.360   1.437  0.3198 -0.0289  0.0948
10069W        W25878   0.559   5.507   0.685 -0.2513  0.2526 -0.0249
10070W        W25879   7.225  14.437   4.740  0.1405  0.1514  0.1578
10071W        W25880  17.719   2.226  12.399 -0.0679 -0.3130  0.2686
10072W        W25881  16.515  12.505   5.316  0.2034 -0.0252 -0.0162
10073W        W25882  17.140  16.139  11.964  0.3303 -0.0246  0.0216
10074W        W25883   3.631  17.874  11.286  0.1059 -0.0133  0.0589
10075W        W25884  15.746  13.737   5.118  0.0869 -0.2010 -0.0983
10076W        W25885   8.086   1.852  11.029 -0.0082 -0.1431  0.1072
10077W        W25886   6.544   3.961   0.944  0.0382 -0.3412 -0.1297
10078W        W25887  16.126   5.779   1.254 -0.1992 -0.2559 -0.4033
10079W        W25888   7.723   2.326   4.247  0.2439  0.0747  0.0515
10080W        W25889  13.413  11.682  12.158  0.1452 -0.2610  0.1592
10081W        W25890  15.079  14.696  14.027 -0.1501 -0.2288 -0.1228
10082W        W25891   3.893   1.148  15.589 -0.0158 -0.1583 -0.1343
10083W        W25892   2.903  17.934   0.872  0.2355 -0.1112 -0.2703
10084W        W25893   5.152   1.740  15.812  0.1766 -0.1762 -0.0864
10085W        W25894   3.748   5.247  16.561 -0.0373  0.0090 -0.2895
10086W        W25895   3.628  14.098  10.145 -0.2845  0.0994  0.1943
10087W        W25896   5.418   1.200   5.761  0.2520  0.1072  0.0392
10088W        W25897  11.881   2.687   0.257 -0.0580  0.1434 -0.0922
10089W        W25898   8.825   9.746   3.389  0.0748 -0.1930  0.0437
10090W        W25899  14.971   5.323  16.273 -0.3158 -0.1211  0.0052
10091W        W25900   8.106  11.733   1.537 -0.0721  0.3395  0.0393
10092W        W25901  14.439   3.418   5.099 -0.3692 -0.0155 -0.1588
10093W        W25902   9.717   9.071  13.804  0.3509 -0.0032  0.2715
10094W        W25903   9.417   3.290   2.799  0.0209  0.0905 -0.1257
10095W        W25904   5.021   9.672  10.900  0.1150 -0.0581  0.0718
10096W        W25905   7.752   1.487  13.546 -0.0474  0.1414  0.1430
10097W        W25906   2.747   6.527   4.813  0.0489  0.1706  0.2418
10098W        W25907   5.443   6.385   4.220 -0.2663  0.1711 -0.0990
10099W        W25908  15.791   1.669   0.211  0.1115 -0.1440  0.1782
10100W        W25909   4.928   3.783   1.093 -0.1386  0.0410  0.0802
10101W        W25910  11.506  15.791  14.064 -0.0481  0.1931 -0.1313
10102W        W25911   0.597   8.107  15.541  0.1918 -0.0561 -0.1293
10103W        W25912   7.993   5.772  15.598 -0.2594  0.1030 -0.2715
10104W        W25913   9.354   2.719   3.557  0.0783 -0.0949  0.2996
10105W        W25914   9.719  11.678  14.979 -0.0659 -0.2540  0.2294
10106W        W25915  12.416  16.031   0.562  0.2371  0.2389 -0.1249
10107W        W25916  12.321   8.533   1.316  0.4957  0.0834  0.0028
10108W        W25917  11.471   7.626   3.585 -0.2301  0.3339 -0.1137
10109W        W25918   8.498   9.013   1.282 -0.0186 -0.0362 -0.3012
10110W        W25919  11.451  10.486  11.768  0.4180 -0.1421  0.3483
10111W        W25920   7.805   3.551   0.966  0.1013  0.0826  0.1609
10112W        W25921  15.435   9.803   2.736 -0.5013 -0.2749  0.0458
10113W        W25922   4.612  15.070   0.383 -0.1576 -0.0842 -0.2819
10114W        W25923  12.167   8.814  15.832  0.1937  0.0221 -0.2193
10115W        W25924   2.141  12.577   3.691  0.1195 -0.0106  0.0370
10116W        W25925  12.907   2.486  16.277  0.1638 -0.0215 -0.0074
10117W        W25926   4.319  16.986   1.571  0.1105 -0.1541 -0.3732
10118W        W25927   7.311   8.452   2.021 -0.3248  0.2919 -0.0402
10119W        W25928  16.207  12.763   3.256  0.3140 -0.1385 -0.0982
10120W        W25929  11.247   3.902  14.813  0.0144 -0.2988  0.0542
10121W        W25930  11.227   2.957  12.763  0.4904 -0.3926  0.0756
10122W        W25931   8.316  12.374  14.317 -0.1093  0.1298  0.0779
10123W        W25932   3.670  13.548   3.653  0.1391  0.0271 -0.1808
10124W        W25933   4.811   6.674  13.461 -0.2116  0.1182 -0.2271
10125W        W25934   0.766   9.876  13.488 -0.0943  0.0795 -0.1124
10126W        W25935   5.303   4.157  15.171 -0.2357  0.2243  0.3129
10127W        W25936   4.556  10.555  15.146 -0.1881 -0.1684 -0.1105
10128W        W25937   2.876  15.382   4.881 -0.0796  0.0674  0.1090
10129W        W25938  13.625   7.066   4.190  0.0730  0.1431 -0.1066
10130W        W25939   1.312   6.535  10.925  0.1248 -0.0137 -0.2009
10131W        W25940   4.572   6.847  15.880 -0.0698  0.0873 -0.1054
10132W        W25941  11.663  10.041  13.065  0.2370 -0.2382  0.1227
10133W        W25942  13.517   6.405   4.050  0.4357  0.1291 -0.2805
10134W        W25943   2.700  10.863  15.011 -0.0164 -0.2248  0.1752
10135W        W25944   5.026  16.203  13.419  0.1695  0.2711  0.1551
10136W        W25945   9.642   3.609   4.860  0.1806 -0.0539 -0.2088
10137W        W25946   4.217   9.375  13.887  0.0250  0.0623  0.2709
10138W        W25947  11.436  12.334  14.514 -0.0168 -0.0466  0.0473
10139W        W25948   3.210  12.139   5.247  0.1315 -0.0762  0.0720
10140W        W25949   5.816  12.818   2.501 -0.2691  0.3710  0.1917
10141W        W25950  13.490   2.505  11.437  0.0897 -0.0563 -0.0776
10142W        W25951   0.780   4.061   1.195 -0.0310 -0.1827 -0.0029
10143W        W25952   8.787  12.722  15.523  0.0088  0.3127 -0.1121
10144W        W25953   2.030  16.863  12.562 -0.1167 -0.1254  0.0523
10145W        W25954   5.236   9.356  16.625  0.0788 -0.2088 -0.5069
10146W        W25955   7.555  15.793   3.720 -0.1984  0.1974 -0.0670
10147W        W25956  12.213   9.648   3.550 -0.1312 -0.2132  0.2369
10148W        W25957  16.263  14.842   4.910  0.2325  0.0380  0.3498
10149W        W25958  16.821   6.433  14.941 -0.1466  0.1541  0.0128
10150W        W25959   3.763   7.724  10.870 -0.0707 -0.0527  0.2770
10151W        W25960   8.216   9.739  16.543  0.1670  0.1580 -0.0587
10152W        W25961   3.891   1.112   6.116  0.0451  0.0471 -0.1254
10153W        W25962   6.998  17.640  14.674  0.1584  0.1110 -0.0616
10154W        W25963   9.082   1.072   1.130  0.0557 -0.3643  0.1679
10155W        W25964   8.320  10.517  13.847 -0.0615  0.0303 -0.1820
10156W        W25965   2.322   1.158  12.350  0.1186 -0.2398  0.0549
10157W        W25966   4.575  16.500  12.550  0.1761  0.1178  0.1475
10158W        W25967   8.630   4.922  15.910  0.2115 -0.2779  0.2743
10159W        W25968   0.597   4.029  16.315  0.1391  0.1182 -0.0204
10160W        W25969   9.278   2.771   5.099  0.2019  0.0088  0.1021
10161W        W25970   2.883  17.538  11.839  0.0387  0.0520 -0.0498
10162W        W25971  10.285   6.557  12.521  0.1127  0.1440 -0.0919
10163W        W25972   8.099  10.283  14.273 -0.1371  0.1819  0.1057
10164W        W25973  14.190   2.763   1.326 -0.1465  0.0145 -0.1233
10165W        W25974   8.211  10.619  13.378  0.2687 -0.0398 -0.0734
10166W        W25975  10.745  16.617   1.469 -0.2340 -0.1274 -0.2478
10167W        W25976  14.569   6.383   3.345  0.0942 -0.0802  0.0309
10168W        W25977   2.279   4.868   3.442  0.1394  0.2213 -0.0376
10169W        W25978  16.883   4.799  14.491  0.0222 -0.0155 -0.1618
10170W        W25979  11.033  12.207  15.067 -0.3458  0.0302  0.1177
10171W        W25980  11.381  17.609  16.569  0.1189 -0.0641 -0.1886
10172W        W25981  15.221  17.408  11.437 -0.1907  0.0941  0.0136
10173W        W25982   8.701   0.957  15.626  0.0117  0.0966 -0.1585
10174W        W25983  14.071  11.733   2.812  0.0445 -0.0042  0.0848
10175W        W25984  15.724   2.779   3.819  0.2054 -0.2387 -0.0246
10176W        W25985  13.071   9.251   4.392 -0.2267  0.0897  0.0711
10177W        W25986   5.689   2.204  14.305  0.0507 -0.1181  0.0990
10178W        W25987  10.902   4.521  15.623 -0.4931  0.2822  0.3575
10179W        W25988  13.207  12.095  13.101  0.1513 -0.0755 -0.0379
10180W        W25989  16.534  12.495  14.208 -0.2711  0.0644  0.3226
10181W        W25990  12.859   4.700  14.945 -0.0507 -0.1413 -0.1023
10182W        W25991  17.666   2.899   1.479 -0.0758  0.0913 -0.0310
10183W        W25992   8.833  14.636   4.533  0.3184  0.2460 -0.1425
10184W        W25993   5.369   4.501  12.748 -0.1476  0.1490 -0.0826
10185W        W25994  17.346  11.494   1.673 -0.1038  0.0751  0.0710
10186W        W25995  14.875  11.818   3.776  0.3078  0.0943  0.1883
10187W        W25996   5.357   7.581   1.015 -0.2865  0.1819  0.0728
10188W        W25997  17.457  16.830  15.793 -0.2841 -0.0333 -0.1474
10189W        W25998  16.506  12.683  12.690 -0.2212  0.0698 -0.0376
10190W        W25999  11.951  14.224  15.565  0.0826 -0.0194  0.0228
10191W        W26000   8.378  16.888  15.896  0.1890  0.0881  0.1158
10192W        W26001  12.918   3.695  12.455 -0.0276  0.4471  0.0914
10193W        W26002   6.215   5.046  13.606 -0.0598  0.1508  0.0164
10194W        W26003  12.454   4.687   3.518  0.1102  0.1097  0.0814
10195W        W26004   4.310   7.280  16.658 -0.1291 -0.1262 -0.0410
10196W        W26005   1.045   7.133  11.806  0.3077  0.0357  0.0387
10197W        W26006   4.045   8.210   5.298 -0.1592  0.3427  0.0369
10198W        W26007   6.605  14.778   5.700 -0.0455 -0.0760  0.2333
10199W        W26008  13.939   8.653   4.166 -0.0998 -0.1849  0.2867
10200W        W26009   6.064  11.761  15.244  0.2904  0.2272 -0.0169
10201W        W26010  15.850   1.558   3.510  0.0114 -0.0477 -0.0174
10202W        W26011   6.800  12.272   1.847 -0.1265  0.1400 -0.1392
10203W        W26012   4.265  11.125   4.274 -0.2329 -0.0780  0.0170
10204W        W26013  17.733  13.293   3.727 -0.2285 -0.0649 -0.3512
10205W        W26014  10.667  16.470  15.171  0.0066  0.1500  0.0682
10206W        W26015   3.677   1.913  16.638  0.1192 -0.0618  0.0081
10207W        W26016   2.226   5.342  13.215  0.0015 -0.4213  0.0397
10208W        W26017   0.188  17.855  12.050  0.3885 -0.3397 -0.0712
10209W        W26018   3.234   5.709   0.653 -0.2963 -0.2513  0.1394
10210W        W26019   9.327  17.757  13.074 -0.2274 -0.0079  0.1434
10211W        W26020   4.317   3.245   3.468  0.0648  0.4768  0.0010
10212W        W26021   9.651   8.991  14.299 -0.1587  0.0117  0.2618
10213W        W26022  13.626   0.494  15.959  0.2197 -0.2288  0.2549
10214W        W26023  15.590   8.755   5.736  0.0724  0.1002  0.0894
10215W        W26024   7.276   9.230   0.691 -0.2058 -0.2194 -0.2825
10216W        W26025  17.217   7.244  15.495  0.0821  0.0217  0.0683
10217W        W26026   1.987   1.432  14.367  0.0680  0.2916  0.1089
10218W        W26027   4.242  14.294   4.007 -0.1697 -0.0827 -0.0667
10219W        W26028  10.763   7.293  11.984 -0.1842 -0.2728 -0.1424
10220W        W26029   1.681  15.986  14.519 -0.1613  0.0816  0.0043
10221W        W26030  16.809   0.091   3.687 -0.3376  0.0476 -0.0290
10222W        W26031  11.966  12.958   1.639 -0.0314  0.0243  0.3859
10223W        W26032   0.406  11.245   0.756  0.3193 -0.1798  0.0237
10224W        W26033  17.120  16.473   3.593 -0.0048 -0.2292  0.3345
10225W        W26034   6.106  16.673  15.308 -0.0453  0.1035  0.2418
10226W        W26035   8.047   8.608  15.317 -0.0247  0.0497 -0.1115
10227W        W26036   4.860  12.258  15.947  0.1608  0.0007 -0.1710
10228W        W26037   7.810  11.661   0.657 -0.1113 -0.4175 -0.2935
10229W        W26038   2.707   5.808  11.344 -0.1651  0.2224 -0.0250
10230W        W26039   8.404   5.603  15.372  0.1060  0.1301 -0.0513
10231W        W26040   6.514   6.082  12.666 -0.2234 -0.0618 -0.0179
10232W        W26041   6.542   8.924   3.375  0.0923 -0.0276  0.1523
10233W        W26042  14.120   8.990  14.209 -0.2498  0.0091  0.2527
10234W        W26043  16.679   5.940   3.501 -0.0392 -0.4168  0.0909
10235W        W26044   8.856   8.386  16.041  0.1678  0.0995 -0.0289
10236W        W26045  11.313  10.449   1.224 -0.0112 -0.1935  0.2264
10237W        W26046  15.861   0.219   0.117  0.1722  0.0193  0.0086
10238W        W26047  17.666   4.095   2.497 -0.1816  0.1140  0.0516
10239W        W26048   6.359  10.390  13.895  0.0909  0.1222  0.1897
10240W        W26049  11.128   4.604  14.104 -0.1158 -0.1377  0.2014
10241W        W26050   8.857   5.497   4.805 -0.1148 -0.2406 -0.0213
10242W        W26051  17.192  12.596  15.328  0.0699 -0.0263 -0.1413
10243W        W26052   1.967  11.136  13.317  0.0916 -0.0810  0.0592
10244W        W26053   2.116   5.331  15.463 -0.1323  0.0418  0.1763
10245W        W26054  13.398  12.306  15.843  0.1122 -0.0556  0.3000
10246W        W26055  17.238   5.167  13.144 -0.0357 -0.3742  0.0521
10247W        W26056  11.163   8.821   5.561  0.0979  0.1671  0.1336
10248W        W26057   7.152   2.129   2.085  0.3745 -0.1212  0.2685
10249W        W26058  15.884   0.877   6.366 -0.2749 -0.0947  0.0056
10250W        W26059  15.044   2.996  16.008 -0.2516  0.1180 -0.1616
10251W        W26060   1.675   6.269  16.430 -0.0277 -0.2324 -0.0417
10252W        W26061  15.923   4.108   1.845  0.0365 -0.2076 -0.0977
10253W        W26062   3.321   9.002   1.473 -0.0207 -0.0454  0.0891
10254W        W26063  10.519   3.682  14.782  0.0052 -0.0256  0.1228
10255W        W26064   4.835   2.910   1.233  0.1272  0.0077  0.1920
10256W        W26065  16.077   9.761   3.129  0.0681 -0.1036  0.1796
10257W        W26066   2.728   7.887  10.582 -0.4124 -0.2023 -0.2379
10258W        W26067  15.790  15.324   0.626 -0.1032  0.3649  0.1581
10259W        W26068   9.807  17.138  13.344  0.3931  0.0167  0.0084
10260W        W26069   5.657  11.188   4.407  0.0706 -0.1752 -0.2040
10261W        W26070  13.467  17.833   4.172 -0.0916 -0.2738  0.1829
10262W        W26071   1.608   5.981   0.225  0.1621 -0.2961 -0.0859
10263W        W26072  15.831   4.517  11.584  0.1229  0.0748 -0.2322
10264W        W26073  10.002   3.669   6.470 -0.0944 -0.1369  0.2020
10265W        W26074  17.395   9.300   3.754  0.4214  0.2387 -0.1704
10266W        W26075   5.346   9.765  15.458  0.0527 -0.0970 -0.0246
10267W        W26076  13.431   5.928  14.346  0.0465 -0.0786  0.1457
10268W        W26077   8.203   2.222  15.716  0.0092 -0.1688 -0.1881
10269W        W26078  12.537   3.034  12.771 -0.1664  0.1239 -0.2386
10270W        W26079  11.614   6.226   6.002  0.3229 -0.0195  0.1787
10271W        W26080   6.809   7.771  13.281 -0.2012 -0.1986  0.2225
10272W        W26081  15.776   9.063  14.622 -0.1225 -0.0187 -0.0343
10273W        W26082   4.093   8.064   0.328  0.1806  0.0593  0.2107
10274W        W26083   6.161  13.139   2.714 -0.1013 -0.1206  0.2421
10275W        W26084  17.316  12.691  14.251 -0.2956 -0.0799 -0.0038
10276W        W26085  15.534   7.362   2.224 -0.0900  0.0058 -0.0208
10277W        W26086  13.412   9.964  11.735  0.2085  0.1372  0.1024
10278W        W26087  17.674   5.779   0.915  0.3707 -0.0537 -0.2420
10279W        W26088   6.322   2.663   4.031  0.2331 -0.2183 -0.1237
10280W        W26089   2.438  13.809  12.012 -0.1673 -0.0042 -0.2157
10281W        W26090   1.417  11.069   3.942 -0.0147  0.4220 -0.1887
10282W        W26091   4.911   8.214   1.603 -0.0464  0.0793  0.2472
10283W        W26092  12.261  12.499  14.138 -0.2122 -0.0328  0.0572
10284W        W26093  12.639  15.221  12.747  0.3077 -0.3847 -0.2373
10285W        W26094  15.286  11.156  16.685  0.1594  0.0221 -0.1316
10286W        W26095   2.559   6.653   1.878  0.1541 -0.1774  0.1505
10287W        W26096   0.668  16.305  13.536  0.1635  0.1871 -0.3260
10288W        W26097   9.874  16.579  14.024  0.2593 -0.2621  0.0491
10289W        W26098  12.754  14.853  15.505  0.1145  0.3163 -0.0286
10290W        W26099   9.945  16.990  15.544  0.1268  0.2683  0.1929
10291W        W26100   7.959  13.319   4.071 -0.0627 -0.0403  0.0899
10292W        W26101   2.475  16.424  14.164  0.1582  0.0200  0.1913
10293W        W26102   7.907   7.383  12.308 -0.1145 -0.0084 -0.1887
10294W        W26103  15.435   4.797  11.731  0.0245  0.0583 -0.2606
10295W        W26104   2.215  14.365   2.127 -0.2859 -0.0699  0.0238
10296W        W26105   3.338   7.920   2.881 -0.1159 -0.1305 -0.0469
10297W        W26106   7.280  10.165  12.999  0.1185  0.4306  0.2068
10298W        W26107  12.855   7.507   2.197 -0.0482 -0.0695  0.3201
10299W        W26108  12.401  15.290  15.259  0.0203  0.2728 -0.0457
10300W        W26109  12.115  10.916  11.453 -0.3148 -0.1598 -0.1493
10301W        W26110   6.714   2.784   2.729 -0.4491  0.3346 -0.0188
10302W        W26111  13.391   4.299   6.570 -0.1189  0.2304 -0.3460
10303W        W26112   8.068   6.631   2.173  0.0771  0.0183 -0.1022
10304W        W26113  16.768  15.946  13.985  0.0182 -0.0230 -0.1647
10305W        W26114   4.236   0.142  13.720 -0.3090  0.0766  0.1782
10306W        W26115  17.525  10.674  14.607  0.2208  0.1140  0.0657
10307W        W26116  12.345   6.665   1.042  0.2076 -0.0886 -0.0000
10308W        W26117  14.944  10.636  13.089  0.3026  0.1316  0.0758
10309W        W26118   3.607  11.539  12.762 -0.1023  0.0522 -0.2992
10310W        W26119   9.254  16.338  13.413  0.3224  0.0991  0.1027
10311W        W26120  12.512  12.325   1.482 -0.0361 -0.1765 -0.1980
10312W        W26121   9.406   9.549   1.051  0.2179  0.0191  0.1535
10313W        W26122   6.658   9.255   1.275 -0.1202  0.2488  0.0247
10314W        W26123  12.936  16.537   4.112  0.2184 -0.3140 -0.3812
10315W        W26124   4.107  11.625   5.331  0.0267  0.1276  0.2398
10316W        W26125   0.316  13.824  15.958 -0.0183  0.0213 -0.2609
10317W        W26126   2.973   6.891   4.125 -0.0496 -0.1202  0.1753
10318W        W26127  15.192   5.057  11.430  0.2861 -0.2003 -0.1755
10319W        W26128   9.601  13.983  12.785 -0.1372  0.0402 -0.0906
10320W        W26129   2.752   2.863   3.538  0.1995 -0.0839  0.1617
10321W        W26130  17.955  15.160  13.889  0.0587  0.2821  0.1853
10322W        W26131  12.262  12.959   0.343  0.0951 -0.0334 -0.1562
10323W        W26132   0.467   5.099  13.402 -0.0490  0.0373  0.0349
10324W        W26133  17.678   5.575  15.772 -0.1767 -0.1781 -0.0675
10325W        W26134   1.222  10.265  15.096 -0.2771 -0.0076  0.0339
10326W        W26135  17.334  12.169   1.522  0.2416  0.1233 -0.0538
10327W        W26136  15.459   8.615  14.306  0.2066 -0.1253 -0.2291
10328W        W26137   0.191   4.640  11.601 -0.1309 -0.0674 -0.1147
10329W        W26138   2.813   7.211  14.581  0.4517  0.2621  0.3750
10330W        W26139   9.570   3.829  15.520  0.0093  0.1125 -0.2316
10331W        W26140  10.547  10.416   2.007  0.0734 -0.3118 -0.2347
10332W        W26141   0.432  15.440   5.318  0.1790  0.4008  0.1522
10333W        W26142  16.803  16.096  14.480 -0.2356  0.1108 -0.1593
10334W        W26143  15.655  16.978   1.880 -0.1633  0.0507  0.0439
10335W        W26144  13.957   9.279  15.711  0.0736  0.1610  0.2634
10336W        W26145  16.376   7.684  12.165  0.2382  0.0856 -0.0928
10337W        W26146   1.601   0.948  15.607 -0.2271  0.1024  0.0621
10338W        W26147   5.171  16.611   1.136  0.0942  0.0303 -0.1593
10339W        W26148   1.239  12.734   2.513 -0.1519  0.3121  0.0794
10340W        W26149  11.450  10.790  13.470  0.2881 -0.3916 -0.2522
10341W        W26150   4.822  11.441  15.243 -0.2821  0.1035 -0.3584
10342W        W26151  11.100   0.586   0.409  0.2961  0.1898  0.0212
10343W        W26152  14.063   9.440  13.525 -0.0656  0.0546 -0.2154
10344W        W26153   6.187   9.404   1.033  0.2278  0.2209 -0.1041
10345W        W26154   4.338  14.506  12.694  0.1461 -0.1446  0.0471
10346W        W26155   0.377  14.044  14.585 -0.0441  0.3279  0.0536
10347W        W26156  14.071  10.130  13.183  0.2428  0.2919  0.0949
10348W        W26157   3.787   6.250   5.588  0.1950 -0.4381  0.0085
10349W        W26158  10.273   5.269  16.628 -0.3296  0.0937  0.1882
10350W        W26159  14.774   5.372   4.358  0.4605  0.1181 -0.1276
10351W        W26160  10.173  11.228  15.003  0.0459  0.3047  0.1057
10352W        W26161  13.589   9.042  12.221 -0.4991  0.0693 -0.1456
10353W        W26162  17.074  17.890   2.122 -0.0682 -0.1832  0.0294
10354W        W26163   4.179  16.531   1.692 -0.2863  0.1079 -0.0553
10355W        W26164  15.315   1.097   0.545  0.0914 -0.2459 -0.0224
10356W        W26165  14.716   9.746   1.729 -0.2252  0.0329  0.1597
10357W        W26166   5.116   9.271   1.349 -0.3694  0.0472 -0.0557
10358W        W26167   7.673  13.623  15.803  0.3208  0.1651 -0.0891
10359W        W26168   2.610   1.860  15.444  0.2026 -0.0825 -0.1655
10360W        W26169  12.696  17.443  14.021 -0.0426 -0.0745  0.3531
10361W        W26170   8.897  14.497  12.789  0.0256  0.0985  0.2358
10362W        W26171  11.878   9.661   1.354  0.0855 -0.1212  0.3920
10363W        W26172  14.889  14.300   6.279  0.0076  0.5786  0.0350
10364W        W26173   3.207  17.413   1.555 -0.1052 -0.2042  0.0414
10365W        W26174   3.049   9.031   5.033  0.1066 -0.0880  0.3660
10366W        W26175   6.740   4.289   0.623 -0.1123 -0.0344 -0.0082
10367W        W26176   7.548   6.299   0.369  0.0571 -0.1810 -0.4463
10368W        W26177   6.234  17.444   3.640  0.1710  0.1015 -0.1410
10369W        W26178  13.863  16.449  15.633  0.1704 -0.1458  0.0681
10370W        W26179  11.812   1.476  14.847 -0.1921  0.0584 -0.0479
10371W        W26180  12.185  12.510   6.920 -0.2446 -0.2463  0.0271
10372W        W26181  12.030   5.769  12.998  0.3795 -0.0196  0.0552
10373W        W26182  11.743  15.088  13.347 -0.1783  0.1743 -0.2396
10374W        W26183   9.488   4.046   1.306 -0.0752 -0.2104  0.0726
10375W        W26184   7.381  17.774   4.317 -0.0686 -0.2793 -0.2435
10376W        W26185   8.625   8.907  14.110 -0.0962 -0.1026  0.1332
10377W        W26186   0.237   3.595  14.210 -0.0365  0.1051  0.1904
10378W        W26187  14.158   0.900   4.020  0.0278 -0.1048 -0.1986
10379W        W26188  16.631  15.415  13.219 -0.1226 -0.1830  0.3137
10380W        W26189  13.924  15.391   2.346  0.3122 -0.2582  0.2673
10381W        W26190   9.328   0.773  13.455 -0.1161 -0.2556 -0.1160
10382W        W26191   4.666  11.162  11.258 -0.0888  0.0140  0.1116
10383W        W26192   8.910   9.715   1.845  0.1184 -0.2006  0.4588
10384W        W26193  13.505   3.794   4.137 -0.2019 -0.0100 -0.2523
10385W        W26194  15.975   7.831  12.757 -0.0295  0.0992  0.0251
10386W        W26195   9.270   1.454  12.056 -0.3441 -0.0114  0.1692
10387W        W26196   9.908  14.187   5.228  0.1215 -0.0646 -0.0187
10388W        W26197   8.429   7.510   1.942  0.5237 -0.1528 -0.1523
10389W        W26198   6.369  17.740  12.711  0.0965  0.2652 -0.5873
10390W        W26199   0.639  15.286  13.107  0.1683  0.0395 -0.0329
10391W        W26200   5.139  17.683  16.479  0.1271  0.0854 -0.1167
10392W        W26201   5.402  16.251   5.396  0.2666  0.0246 -0.1884
10393W        W26202  13.452   9.258   6.145  0.0599  0.1378 -0.1464
10394W        W26203   0.776  10.320  14.707  0.3284  0.3217 -0.0459
10395W        W26204   1.803  13.439   0.473  0.3524  0.0041  0.3750
10396W        W26205   6.720  15.711  13.320 -0.1188 -0.1417 -0.0988
10397W        W26206   9.483  11.351   3.955  0.2136  0.0603  0.0282
10398W        W26207  12.796   8.236   4.559  0.0853  0.1246 -0.5162
10399W        W26208   0.918   3.151  14.861 -0.1007 -0.3958  0.1658
10400W        W26209   0.071  13.253  15.939  0.0243  0.1122  0.1344
10401W        W26210   5.704   2.561   3.261  0.1294  0.2050 -0.1758
10402W        W26211  11.428   3.905  12.383  0.5012  0.1776 -0.0908
10403W        W26212   8.051  14.792  12.205 -0.0016  0.0216  0.1139
10404W        W26213   6.745  15.262  13.687  0.3461  0.2635  0.1269
10405W        W26214   1.158   9.892   5.755 -0.3029  0.3222 -0.1378
10406W        W26215  14.541   5.709   2.441 -0.1121  0.1437  0.1014
10407W        W26216  10.242  12.161  15.688  0.1045 -0.0195  0.1342
10408W        W26217   6.963  11.147  16.186  0.0393  0.2267 -0.1078
10409W        W26218   6.980   8.454   1.638  0.0832  0.1009 -0.2687
10410W        W26219   1.283   8.344   2.601  0.1587  0.0201  0.1799
10411W        W26220  12.606  10.975   6.027 -0.2866 -0.0411  0.1616
10412W        W26221  13.189  10.118   2.892  0.3594 -0.0328  0.3950
10413W        W26222  13.476   7.814   1.593  0.1636 -0.2155  0.3007
10414W        W26223   5.149   2.065   5.152 -0.1691  0.0823  0.2360
10415W        W26224   9.547   5.226  11.979 -0.0528 -0.1662 -0.2084
10416W        W26225  15.037  17.195   3.447 -0.0580  0.0777 -0.3604
10417W        W26226   7.587  10.535  13.199  0.4134 -0.0055 -0.3556
10418W        W26227   1.863   6.575  12.278 -0.1887  0.1332 -0.0250
10419W        W26228  15.777   2.792  14.164  0.2603 -0.0218  0.1599
10420W        W26229  17.719   9.615  13.261 -0.0233  0.1940 -0.1391
10421W        W26230   1.319  13.585   2.161 -0.0249  0.4224  0.0326
10422W        W26231   0.285  16.164  12.303 -0.1723 -0.2885  0.0656
10423W        W26232  16.769   4.344  15.722 -0.0291  0.0918 -0.0972
10424W        W26233  15.030   9.370   1.505 -0.1699  0.3119  0.0777
10425W        W26234  10.356   1.347  15.501  0.0954 -0.0930 -0.3031
10426W        W26235  11.948   9.973   5.552 -0.2120  0.0483 -0.2374
10427W        W26236   7.654  10.127  14.994  0.0157 -0.0325 -0.0877
10428W        W26237   7.543  10.185   3.160  0.0686 -0.1851 -0.2513
10429W        W26238   2.571  14.282  11.257 -0.0910  0.0563 -0.2261
10430W        W26239  14.988  17.559   0.689 -0.1119 -0.0876  0.2212
10431W        W26240   6.628   7.684   0.255  0.1590 -0.0921  0.0935
10432W        W26241  13.310   6.797   5.510 -0.0847  0.5590  0.2544
10433W        W26242  17.243   8.579   1.472  0.1775 -0.2339 -0.1718
10434W        W26243   8.952   7.785  14.294  0.1213 -0.1013 -0.2125
10435W        W26244  17.630   9.963   3.025  0.0691 -0.0554 -0.4113
10436W        W26245   5.101  13.683   1.570 -0.3651 -0.0263 -0.2430
10437W        W26246  15.434  16.307   1.599 -0.1986  0.0011  0.1009
10438W        W26247  14.685  14.961  14.070  0.1413  0.0411  0.2725
10439W        W26248   4.025   3.312   1.249 -0.1744 -0.1566  0.0606
10440W        W26249   3.525   4.309  13.558  0.2254 -0.0839  0.0493
10441W        W26250   9.323   6.485   5.470  0.0587 -0.0814  0.1346
10442W        W26251  12.340  12.455  14.653  0.1275 -0.1207 -0.1728
10443W        W26252  10.478  17.219   3.198  0.0715 -0.0369 -0.2899
10444W        W26253  10.910   6.086   2.997  0.0399 -0.0915 -0.1047
10445W        W26254  10.431   0.538  15.543  0.3362  0.0098  0.0522
10446W        W26255  12.905   1.531  15.607  0.0490  0.1579 -0.3209
10447W        W26256  17.814   1.868  14.195 -0.0649  0.2068  0.0491
10448W        W26257   8.158  14.037  15.188 -0.2344 -0.0296  0.3520
10449W        W26258   1.359  12.204   3.208  0.0677 -0.1160  0.1708
10450W        W26259   2.176   1.554   0.542 -0.1017  0.1926 -0.1200
10451W        W26260   7.007  13.778   2.602 -0.1251  0.1139 -0.3465
10452W        W26261  10.561   7.128  15.549 -0.0484  0.1135 -0.0336
10453W        W26262   6.280   7.049   4.191 -0.0103 -0.0594 -0.0254
10454W        W26263   9.012   7.874   0.157  0.3681 -0.0034 -0.1654
10455W        W26264   7.670  11.701   4.691 -0.1996  0.1312 -0.0587
10456W        W26265  16.438   1.066   5.150 -0.0347 -0.0064 -0.0837
10457W        W26266   3.978   4.795  12.783  0.0970 -0.1403  0.2882
10458W        W26267   3.052  13.013  13.088  0.3024 -0.0808 -0.1949
10459W        W26268  11.796  16.336  16.348  0.0720  0.1304  0.0712
10460W        W26269  16.417  11.503   2.581 -0.1725  0.1589  0.1385
10461W        W26270   9.141   3.597  12.210 -0.0944 -0.1491  0.1031
10462W        W26271   7.319  16.704   0.557  0.3689 -0.3683  0.1395
10463W        W26272   6.697  17.459  15.130  0.2591 -0.0934  0.1534
10464W        W26273   7.160   7.072   0.869 -0.2621 -0.0283  0.0835
10465W        W26274   6.355   0.892  14.599  0.2381  0.2199  0.3588
10466W        W26275   3.822   4.591  16.692 -0.0097 -0.2327 -0.0791
10467W        W26276  13.422  16.947  11.879  0.2420 -0.1006 -0.1036
10468W        W26277   4.994  13.452  14.472  0.0930 -0.2215 -0.2496
10469W        W26278   4.470   4.119  16.492  0.0590 -0.4783  0.0162
10470W        W26279   7.123   0.326  11.858  0.4467 -0.0783 -0.0133
10471W        W26280  12.025   0.180   1.079  0.3285 -0.2946  0.3073
10472W        W26281  11.409  16.811  15.600  0.0362  0.0576 -0.1573
10473W        W26282   2.579  17.389   2.357  0.0799  0.1957 -0.3349
10474W        W26283   2.786  13.277  12.787  0.0101  0.0728 -0.1375
10475W        W26284   3.041   4.417   0.897  0.1296  0.0104 -0.4089
10476W        W26285  16.449   4.601   0.711 -0.0450  0.0247 -0.1688
10477W        W26286   5.440   6.920  15.364 -0.3429 -0.1015 -0.1518
10478W        W26287  10.441   9.900  14.857 -0.0775 -0.2299  0.1110
10479W        W26288   7.880   4.730  13.413  0.0887 -0.0129 -0.1357
10480W        W26289  10.429  17.824  13.903 -0.3202 -0.0416  0.3498
10481W        W26290   0.511   2.061   4.579  0.2741 -0.0345  0.4626
10482W        W26291   6.894  15.874   2.299  0.0441 -0.1371 -0.2239
10483W        W26292   1.638  17.749   5.128 -0.5999  0.2331  0.0027
10484W        W26293   8.642  10.382  12.654  0.0974 -0.2023 -0.2110
10485W        W26294  16.819  13.846   2.487 -0.1201 -0.2037 -0.1378
10486W        W26295   0.581   5.304  12.261  0.0638 -0.1043 -0.0729
10487W        W26296   6.848  12.665  10.647 -0.0863 -0.0762  0.3132
10488W        W26297  11.913   9.607   0.712 -0.0320 -0.2489 -0.2248
10489W        W26298   7.834   0.258   2.677 -0.0086  0.2219  0.2400
10490W        W26299   5.370   9.141   1.733  0.0873 -0.1602 -0.4871
10491W        W26300  13.100   3.960   4.366  0.2796 -0.0615  0.1535
10492W        W26301  16.987   3.442   2.483 -0.0763  0.0845  0.2474
10493W        W26302   1.312   6.274   3.360 -0.1879 -0.2550 -0.2967
10494W        W26303  10.686   3.440   0.290  0.1359 -0.1229 -0.1308
10495W        W26304   6.400  12.404   1.570 -0.1627  0.1458  0.0601
10496W        W26305  17.697   1.824  11.991  0.3052  0.0848  0.0625
10497W        W26306  15.919  15.368  13.905  0.2270 -0.0064 -0.0317
10498W        W26307  10.851  15.368  16.068 -0.1587 -0.1224 -0.1509
10499W        W26308  11.210   4.223   5.076  0.2755 -0.0675 -0.1259
10500W        W26309   9.338   3.483   5.205 -0.0031 -0.2640 -0.2278
10501W        W26310  14.229   2.903  12.834 -0.2167 -0.0605 -0.0465
10502W        W26311   0.208   3.229   2.835  0.0143 -0.3421 -0.1761
10503W        W26312  16.357   5.424  14.154  0.1847  0.2073  0.0296
10504W        W26313   4.075   2.163  15.803  0.3692 -0.0740 -0.0377
10505W        W26314   5.690  12.928  14.172  0.0540  0.2032 -0.0045
10506W        W26315   8.970  11.037  13.187  0.0552  0.0510 -0.0801
10507W        W26316   4.994   7.514  15.501 -0.2763 -0.0936 -0.1995
10508W        W26317  10.837  11.032   4.118 -0.1914 -0.1755 -0.3015
10509W        W26318   8.247   0.098  11.968  0.2421 -0.2992 -0.0988
10510W        W26319  16.169  11.259   3.880  0.2091 -0.0681 -0.1700
10511W        W26320  15.710  10.215   1.008  0.1756 -0.2911  0.0632
10512W        W26321   6.547  12.993  12.854  0.1339  0.1321  0.2523
10513W        W26322  15.177  17.213   4.085  0.3741  0.0296 -0.0053
10514W        W26323  17.819  14.072  15.993 -0.0300  0.1619  0.1971
10515W        W26324  11.650  13.309   6.023  0.2620 -0.5069  0.1278
10516W        W26325  15.475  15.176   1.953  0.2202 -0.0070  0.3594
10517W        W26326   1.573  11.458  15.596 -0.3114 -0.0197 -0.1169
10518W        W26327  13.219  17.219  16.704  0.0019 -0.3487  0.1987
10519W        W26328  14.825  16.608  14.220  0.1662  0.3150  0.0520
10520W        W26329   6.811  14.566  14.530  0.0208 -0.3317 -0.0312
10521W        W26330   9.487  15.158   5.288 -0.0520 -0.2293  0.2750
10522W        W26331  17.369   0.108  11.438  0.0946  0.1093 -0.1574
10523W        W26332  11.282  14.573  13.292 -0.1154 -0.0632 -0.0133
10524W        W26333  11.611   9.753  12.245  0.2014  0.1001 -0.0410
10525W        W26334   8.818   0.775   3.386 -0.0715  0.1548 -0.0218
10526W        W26335   3.318  15.524  15.783  0.1334 -0.0243 -0.0395
10527W        W26336   8.541  13.646  15.814 -0.1773  0.0704  0.2794
10528W        W26337   0.290  15.850   5.623 -0.0308  0.0104 -0.1080
10529W        W26338   3.008   8.805   2.723 -0.0875  0.0320  0.2329
10530W        W26339  10.479  15.468  14.557 -0.2154  0.1370 -0.1075
10531W        W26340   1.884   3.831   2.415 -0.0471  0.3698 -0.2130
10532W        W26341  11.149  17.161  14.738  0.0477 -0.0257  0.1153
10533W        W26342   1.966   6.248  13.457  0.1771  0.0557 -0.4179
10534W        W26343   3.776  12.096   2.295  0.1458  0.0839 -0.2058
10535W        W26344  12.444  10.582  15.796 -0.0593 -0.2265 -0.0879
10536W        W26345  15.222   9.890  15.783  0.0261 -0.1153 -0.1825
10537W        W26346   4.836  11.327   1.509  0.0546  0.0483 -0.0761
10538W        W26347  10.553   9.109  12.740 -0.1337 -0.2326  0.2016
10539W        W26348  12.439   8.031   0.455 -0.3121  0.0014  0.0611
10540W        W26349   1.433   2.548   1.712  0.2127 -0.0263  0.3892
10541W        W26350   2.258   8.763   3.455 -0.2596 -0.1216  0.0258
10542W        W26351   0.016  12.994   2.171 -0.0567 -0.0919  0.0035
10543W        W26352   8.784  17.112  12.066  0.1020  0.2437 -0.0389
10544W        W26353   3.056  12.416  13.201  0.0111  0.0003 -0.1372
10545W        W26354   2.028  16.319   4.631  0.2176 -0.0460  0.2962
10546W        W26355   2.610   3.764   1.951 -0.4176  0.0631  0.1647
10547W        W26356   8.425   8.329   0.717 -0.1648 -0.0295 -0.1372
10548W        W26357  10.889  16.699  12.489  0.0969 -0.1380  0.2631
10549W        W26358   6.244  12.434  15.795 -0.2666  0.1365  0.1549
10550W        W26359  11.195   9.180  16.251 -0.2609  0.0363  0.3660
10551W        W26360   7.574  10.608  12.185 -0.0570 -0.5107  0.0882
10552W        W26361   9.608  14.677   1.446 -0.3820 -0.0129 -0.1279
10553W        W26362   8.754   5.220  14.181 -0.0914 -0.0198  0.0125
10554W        W26363  13.028   6.519  16.653 -0.0279  0.1087 -0.0851
10555W        W26364   9.821   5.487  14.239 -0.0989 -0.0620 -0.3809
10556W        W26365   7.405   2.305   4.659 -0.0219  0.1577  0.0131
10557W        W26366   8.923  11.743  16.528  0.0717 -0.0220  0.0648
10558W        W26367   1.165   8.179   1.880  0.4454 -0.1138 -0.1084
10559W        W26368   5.674   6.878   4.081 -0.1860 -0.0916  0.2307
10560W        W26369   6.758   1.748   3.700 -0.2808  0.1220 -0.1504
10561W        W26370   9.444  17.740   1.674 -0.0944 -0.1965  0.0863
10562W        W26371  17.571  11.736  14.402 -0.0767  0.0646  0.2079
10563W        W26372  16.952   0.645   5.661  0.1939  0.1556 -0.0894
10564W        W26373   0.852  17.558   5.705  0.0907 -0.0934  0.0948
10565W        W26374   6.897   4.235  15.671 -0.0925 -0.0724 -0.0359
10566W        W26375   8.722   3.097  13.682 -0.1337 -0.0305  0.1199
10567W        W26376  17.923   7.435   0.568  0.0905  0.0470 -0.2112
10568W        W26377   4.901   1.415   3.446 -0.0369  0.2053  0.0726
10569W        W26378   0.333   4.282  12.905 -0.2994  0.2235 -0.5464
10570W        W26379   4.093  13.182   4.733 -0.0322  0.1612  0.0837
10571W        W26380   5.209   8.052   0.739  0.1291  0.0775  0.2733
10572W        W26381   2.765   3.596   1.449 -0.2224  0.0515 -0.0228
10573W        W26382   4.479  16.071  13.424 -0.0510  0.2579 -0.1640
10574W        W26383  13.920   0.384  12.330  0.2078  0.2188  0.0054
10575W        W26384  11.154   7.349  13.098 -0.2827  0.0982 -0.1015
10576W        W26385   6.881   2.874   5.976  0.0124  0.2117  0.2781
10577W        W26386  12.177  16.619  11.651  0.0332 -0.0614  0.1132
10578W        W26387   7.435   2.294   3.358  0.0091 -0.0011  0.4102
10579W        W26388   9.467   0.354   0.765 -0.0767  0.2288  0.0129
10580W        W26389  15.825   1.784   4.889  0.0339 -0.0586  0.1304
10581W        W26390  12.584  13.601  15.475 -0.2010 -0.1130 -0.1023
10582W        W26391   7.828   7.256  15.540 -0.1894 -0.4858 -0.1146
10583W        W26392   3.292   7.418  15.731  0.1555  0.0782 -0.3342
10584W        W26393   2.369   3.108  10.786  0.1996  0.2337 -0.3206
10585W        W26394  12.650   8.838  16.509  0.0352 -0.0743  0.0976
10586W        W26395   1.487   1.534  14.208  0.2218 -0.2606  0.0839
10587W        W26396   4.889   6.501  15.684 -0.0542  0.0138  0.0358
10588W        W26397   7.785   1.123  15.328 -0.2520 -0.0387  0.0328
10589W        W26398   7.445  13.551   0.105  0.1109  0.1348 -0.0186
10590W        W26399  12.806   1.201  11.966 -0.2936  0.2233 -0.0481
10591W        W26400   8.925   2.375   0.713  0.2168  0.1766  0.0477
10592W        W26401   4.990   0.318   1.029 -0.1695  0.0364 -0.1366
10593W        W26402   1.855   4.068   5.321  0.2065  0.1985 -0.0263
10594W        W26403   6.265   4.903  12.027  0.2633  0.0028 -0.3682
10595W        W26404   3.520  10.625   1.990 -0.1979 -0.1671  0.1143
10596W        W26405   4.160   5.475  12.423 -0.2440  0.0308 -0.1968
10597W        W26406   6.874   0.263   0.413  0.2528  0.1202 -0.0204
10598W        W26407   6.374   6.832  14.212  0.5534  0.2129 -0.2561
10599W        W26408   8.405   7.798   1.013 -0.1765  0.1485 -0.0301
10600W        W26409  14.710   6.779   2.461  0.1561  0.1629  0.2089
10601W        W26410   7.123  14.182  14.122  0.1184 -0.0486 -0.5710
10602W        W26411  11.602  15.763   5.047 -0.0572 -0.0781 -0.1173
10603W        W26412  17.740  16.849  11.879 -0.2992  0.0541 -0.4214
10604W        W26413   5.502   8.232  14.330  0.1089 -0.0996  0.1084
10605W        W26414  14.313   4.604  15.134  0.0698  0.0216 -0.4363
10606W        W26415   1.035   3.508   0.369 -0.1368  0.1033  0.0751
10607W        W26416  10.292  12.368  12.020 -0.1787  0.0157  0.0199
10608W        W26417  15.297   8.925   1.347 -0.2133 -0.1120  0.0456
10609W        W26418   0.783   3.224   2.671 -0.2867 -0.1032 -0.2242
10610W        W26419   6.522  13.768   3.577 -0.2187 -0.3467 -0.0660
10611W        W26420   0.803  15.377  15.988  0.0665 -0.1792 -0.0668
10612W        W26421   8.031   8.999  14.855 -0.0134  0.0365 -0.0418
10613W        W26422   4.729  10.929  15.406 -0.0180  0.1436 -0.1848
10614W        W26423  10.127  16.019   5.077 -0.2192 -0.0012 -0.0519
10615W        W26424   6.124   5.891   0.032 -0.0201 -0.0254  0.0930
10616W        W26425   2.345  17.347   3.235 -0.0366 -0.0935  0.1869
10617W        W26426   4.051  13.229  11.218 -0.0087 -0.1481  0.0195
10618W        W26427  11.672  12.185   3.371 -0.0201 -0.3433 -0.2113
10619W        W26428   6.101  13.789   4.369  0.0257  0.3427  0.3892
10620W        W26429   0.733   0.200   3.038 -0.3687  0.2562  0.0967
10621W        W26430   8.710  15.066   1.210  0.2657  0.0089 -0.1319
10622W        W26431  11.233   2.573   4.384  0.0005 -0.1206 -0.0349
10623W        W26432   2.717  10.551   3.413  0.2048 -0.0699 -0.5549
10624W        W26433   9.305   9.357  15.295 -0.0572  0.4615  0.0639
10625W        W26434   9.523   2.393  14.626 -0.0866 -0.2687  0.2067
10626W        W26435   2.670  11.378   2.864 -0.3112 -0.1183  0.1180
10627W        W26436  12.591   5.408  14.610 -0.0341  0.2519 -0.0903
10628W        W26437   7.865   6.080  12.180 -0.0483 -0.0197 -0.5359
10629W        W26438  17.773   2.035   2.698  0.0521  0.1633  0.1190
10630W        W26439  15.790  13.028  12.129 -0.1600 -0.3158 -0.0796
10631W        W26440   7.774   1.357  11.621 -0.3724 -0.0264 -0.1513
10632W        W26441   9.158   4.049   3.995  0.0465 -0.0334 -0.2164
10633W        W26442  14.468   0.759  15.214  0.2421  0.0268 -0.2733
10634W        W26443   4.152  17.713   1.267 -0.0067  0.0576  0.0015
10635W        W26444  12.830   4.871   1.055 -0.0987 -0.0269  0.0184
10636W        W26445   5.946   3.495   3.527  0.2590  0.4204 -0.0248
10637W        W26446  17.951  14.134   2.900  0.0303  0.0102  0.0477
10638W        W26447   9.280   5.400   2.567  0.2952  0.2295 -0.2397
10639W        W26448  16.725  16.575   0.122 -0.1676 -0.1712  0.0702
10640W        W26449   9.415   7.086  16.254  0.2289  0.3706 -0.1466
10641W        W26450   3.854   5.040   4.619 -0.0719 -0.1168  0.1104
10642W        W26451  10.371  13.412  15.468  0.3582 -0.0563 -0.1327
10643W        W26452   2.276  16.502   5.064  0.0143 -0.0784 -0.1191
10644W        W26453  15.194   5.977  14.581  0.0214  0.0697  0.1706
10645W        W26454  15.878  16.870  11.541  0.2288 -0.0433 -0.1057
10646W        W26455   0.201  15.510  16.346 -0.1789  0.0181  0.0124
10647W        W26456   9.334  17.211   1.601 -0.1918 -0.2330 -0.0233
10648W        W26457   2.755   5.833  13.945  0.4244 -0.2329  0.4252
10649W        W26458   5.646  16.594   6.405 -0.0077 -0.0273  0.0253
10650W        W26459   0.828   9.290  15.676  0.0214 -0.2584  0.1698
10651W        W26460  16.943   0.399  12.620 -0.0588  0.1630  0.0702
10652W        W26461  17.048  15.310   2.094 -0.1972  0.1240 -0.3517
10653W        W26462  15.191   5.473  14.760  0.0512 -0.0102  0.1261
10654W        W26463  12.827   9.624   5.199 -0.2008  0.2566  0.2839
10655W        W26464  10.312   8.897   5.357  0.4397  0.2256  0.0639
10656W        W26465   5.693   1.912  12.572  0.1411  0.1042 -0.1214
10657W        W26466   4.048   2.639  12.194  0.0610  0.3018  0.1056
10658W        W26467  16.363  13.954  15.835  0.4171 -0.0452 -0.0970
10659W        W26468   3.579  11.187   0.310 -0.1153 -0.0421  0.1810
10660W        W26469   3.175   1.836  13.013  0.0094 -0.1625  0.1642
10661W        W26470   6.886   3.654   3.620 -0.0166 -0.1009  0.1186
10662W        W26471   2.632  17.392   5.406 -0.1540 -0.0211  0.0851
10663W        W26472  10.719   8.792  16.485  0.1760 -0.3137 -0.1502
10664W        W26473   6.064  17.830   4.599  0.1080  0.2069 -0.0471
10665W        W26474  11.342  16.471   2.167 -0.1618  0.0539 -0.1756
10666W        W26475  13.077   9.668  16.625 -0.3307 -0.2234  0.0724
10667W        W26476  12.218  12.020   0.111  0.0737 -0.2496 -0.0738
10668W        W26477   8.124   4.150  16.692  0.1032  0.0883 -0.4075
10669W        W26478   8.097  16.491  14.844 -0.0197  0.1292  0.2396
10670W        W26479  12.973  17.333   4.937  0.3279  0.2364  0.0036
10671W        W26480  10.629   1.364  13.071 -0.1706  0.0332 -0.4271
10672W        W26481   5.785  12.145   4.964  0.0553 -0.0190 -0.0644
10673W        W26482   3.670   7.713  15.433  0.0836 -0.2129 -0.2709
10674W        W26483   8.850  14.688  14.490  0.1325 -0.2366 -0.3032
10675W        W26484   0.992   7.346  14.991  0.0150  0.1672  0.0647
10676W        W26485  10.035  17.069   0.834 -0.1557  0.3043 -0.0658
10677W        W26486  14.534   4.878  11.254 -0.0117  0.1712 -0.0894
10678W        W26487  16.910  17.018   1.294  0.0713 -0.2660  0.0647
10679W        W26488  13.762  14.692   1.028 -0.0059  0.1653  0.1826
10680W        W26489   8.965  10.447   0.830 -0.0212 -0.2432 -0.0358
10681W        W26490   6.219   3.653  15.479 -0.1882  0.4148  0.0382
10682W        W26491   9.258  11.605  15.666 -0.1694 -0.0882  0.0053
10683W        W26492  14.475   3.990   1.932  0.1176  0.0514 -0.1966
10684W        W26493   8.402   9.859   3.106 -0.1840 -0.2002  0.3301
10685W        W26494   9.886   6.156   3.451  0.1550 -0.0222  0.0364
10686W        W26495   3.438   6.557   3.030 -0.0580  0.0916 -0.2080
10687W        W26496   8.199   1.217   4.110  0.2750  0.2123 -0.0605
10688W        W26497   3.484  11.620  12.079 -0.0239  0.1443  0.4328
10689W        W26498  13.847  17.754  14.767  0.0014 -0.0509  0.0871
10690W        W26499  11.594   5.974  12.207  0.2643  0.0287  0.3162
10691W        W26500  11.434  13.763   0.676 -0.4940  0.2147 -0.0355
10692W        W26501   1.464   9.720   1.579  0.3036  0.1794  0.0802
10693W        W26502   9.095   8.661  12.605  0.0190  0.2917  0.2260
10694W        W26503   9.577   2.353  16.648  0.1638  0.1514  0.0615
10695W        W26504   0.307   3.860   4.674  0.0007 -0.0778 -0.0116
10696W        W26505   3.938   7.090   1.544  0.0165 -0.2382 -0.0395
10697W        W26506  10.793  14.418   4.254  0.0090 -0.0319 -0.0370
10698W        W26507  16.331  11.995   3.665 -0.2707  0.3660  0.1242
10699W        W26508   7.098   5.629   4.938  0.3003 -0.0635  0.0212
10700W        W26509   4.821   1.730  16.264 -0.0033  0.0467  0.2529
10701W        W26510   3.742   0.337   1.525 -0.3405  0.1571 -0.0760
10702W        W26511  16.176   3.692  13.726 -0.2224 -0.3271  0.0137
10703W        W26512   6.970   8.556  14.585 -0.2432  0.2632 -0.0526
10704W        W26513   4.423   1.318   3.268  0.0685 -0.0794 -0.0579
10705W        W26514   8.253   8.948   1.784  0.0400 -0.2266 -0.1094
10706W        W26515  10.666   0.893  14.234  0.0268  0.1782  0.1451
10707W        W26516   8.278   0.635  12.142 -0.0068  0.4016 -0.0299
10708W        W26517   7.694   5.936   3.265 -0.1177 -0.2386  0.2179
10709W        W26518   5.715  10.524   2.755  0.1195 -0.0064 -0.0342
10710W        W26519   2.615   0.252   6.250 -0.3696  0.1028 -0.2490
10711W        W26520   0.013   1.968   4.371  0.0786  0.0260 -0.0905
10712W        W26521  10.348   2.472   3.242 -0.1491 -0.1443 -0.0798
10713W        W26522  17.613  15.524  13.467  0.1075  0.1872 -0.1421
10714W        W26523  16.714   3.317  12.072  0.0038 -0.2026 -0.1532
10715W        W26524   3.042   6.517   0.014 -0.1114  0.1850 -0.0225
10716W        W26525  11.731   8.363  15.374  0.1405  0.2452 -0.0683
10717W        W26526   2.146  11.694   4.454 -0.0428 -0.0606  0.2370
10718W        W26527  11.231  13.224   4.046  0.2770  0.1440 -0.0935
10719W        W26528  17.291   7.125   2.357 -0.0265  0.1494  0.0809
10720W        W26529   9.778  14.372  13.536  0.4520 -0.1382  0.0505
10721W        W26530   8.180   1.468  13.961  0.1534 -0.0103 -0.1567
10722W        W26531  15.727  15.924   3.624  0.1869  0.0584  0.0164
10723W        W26532  10.509   4.682   0.703  0.0008  0.1974  0.1847
10724W        W26533  12.250   9.657   2.761  0.1850 -0.3381 -0.1483
10725W        W26534   5.190   1.924  16.654 -0.2073 -0.2959 -0.1767
10726W        W26535  13.013   5.538  14.332  0.0311  0.0329 -0.2179
10727W        W26536   7.412  15.529  16.556  0.1753 -0.0625 -0.1797
10728W        W26537  13.525   6.644  16.547  0.1612  0.1930 -0.0663
10729W        W26538   7.329   3.498  14.574  0.1825 -0.0383 -0.0824
10730W        W26539  15.864  16.021   4.692  0.0291 -0.2239 -0.0075
10731W        W26540  15.228  10.492   4.465  0.2173 -0.0370 -0.5398
10732W        W26541  11.394  14.187   4.179 -0.0991  0.0233 -0.1915
10733W        W26542   2.271  14.852   2.345  0.1412 -0.3239  0.0669
10734W        W26543  16.780  16.820   3.924  0.1098 -0.0935  0.0711
10735W        W26544  16.836  12.163   5.058  0.3754  0.0046  0.0632
10736W        W26545  17.356  16.216  16.406  0.2237 -0.0213  0.0275
10737W        W26546  10.883   1.583   2.327  0.0875  0.0807  0.0032
10738W        W26547   2.390  10.732   1.157  0.1484 -0.1062  0.0988
10739W        W26548  10.150  13.221   3.081  0.0061  0.1861  0.0865
10740W        W26549   7.789   1.369  14.412  0.0684  0.0317  0.0729
10741W        W26550   5.965  15.972   2.770  0.0795 -0.0957  0.1674
10742W        W26551  10.199  10.842  16.061 -0.1346  0.2641  0.2923
10743W        W26552  15.908   7.370   3.135 -0.3231 -0.2147 -0.2041
10744W        W26553   1.266  15.119   2.797  0.0517  0.3615 -0.0854
10745W        W26554   0.195  10.809  12.057  0.1177 -0.0713  0.2083
10746W        W26555  10.510   3.764   1.251  0.1615 -0.0946 -0.0682
10747W        W26556   9.581  16.404   5.809 -0.0244 -0.1112  0.0515
10748W        W26557   5.722   9.401  15.745 -0.2142 -0.1304 -0.2315
10749W        W26558   6.925   3.757  16.090  0.0927 -0.1039 -0.1611
10750W        W26559   0.110  12.975   4.254  0.0926 -0.1696 -0.1823
10751W        W26560  12.355   0.910   4.468  0.2988  0.0315 -0.0445
10752W        W26561  11.629  16.803   4.437 -0.2017  0.0163 -0.1586
10753W        W26562   9.461  12.694   5.543 -0.0901  0.3333  0.1383
10754W        W26563   4.089   7.948   4.906 -0.1688 -0.0553 -0.2151
10755W        W26564  10.417   2.258   1.181 -0.4827  0.2533 -0.0674
10756W        W26565   1.805   5.460   3.853 -0.0001  0.0135  0.1037
10757W        W26566  10.401   6.679   2.301  0.0427 -0.2896 -0.1307
10758W        W26567   0.865   0.308  12.425 -0.1962 -0.1609  0.0047
10759W        W26568  13.860   6.627  14.708  0.1470 -0.0069 -0.1151
10760W        W26569  14.871   9.116   4.573 -0.1364  0.0822 -0.1341
10761W        W26570  17.623   6.930  16.272  0.1251  0.0911  0.0088
10762W        W26571  17.335   3.763   0.108 -0.1597  0.2179 -0.0763
10763W        W26572   1.566  11.450   4.224 -0.0622 -0.0543  0.0827
10764W        W26573   0.364   5.401  11.791  0.0727 -0.1913  0.1376
10765W        W26574   0.003  15.254   1.962 -0.1900  0.1567 -0.0924
10766W        W26575   7.008  13.338  12.717  0.2736 -0.2833  0.1250
10767W        W26576   0.728   6.959   2.482 -0.2493  0.1538  0.0809
10768W        W26577  16.718  12.869   3.387  0.1229 -0.3506 -0.2567
10769W        W26578  17.261   2.708   4.475 -0.6317  0.1511 -0.0086
10770W        W26579  17.044  10.114   2.968  0.0082 -0.3490 -0.4160
10771W        W26580  12.536  17.421   4.270 -0.0168  0.4124  0.1324
10772W        W26581  13.540   5.639  10.502  0.1390 -0.1985  0.0091
10773W        W26582   6.015   2.602   3.645  0.4109 -0.1437  0.1087
10774W        W26583  11.444  13.373  13.224 -0.0784 -0.2206  0.2331
10775W        W26584   0.573   3.778  13.620  0.1168 -0.0476  0.2752
10776W        W26585  15.430   6.822   0.032 -0.1106  0.0223 -0.0133
10777W        W26586   0.003  14.487   4.216  0.0192 -0.0566 -0.2205
10778W        W26587  12.059   1.051  14.140  0.0343  0.1597 -0.1109
10779W        W26588  10.702   2.076   5.494  0.3135  0.0956 -0.2592
10780W        W26589   7.147   8.143  16.231 -0.0975  0.0568  0.2789
10781W        W26590   7.712   5.453   0.203  0.1336  0.0374  0.0065
10782W        W26591  16.581  11.004   4.714  0.0512 -0.0889 -0.1760
10783W        W26592   4.012  17.174   4.231 -0.2515  0.2486 -0.3950
10784W        W26593  11.989   1.551  11.639 -0.2142  0.1065  0.0167
10785W        W26594   9.421  12.764  16.496 -0.0824  0.0184 -0.0742
10786W        W26595  15.303   6.534  14.302 -0.0651  0.0728  0.3534
10787W        W26596  14.732   6.916   3.711  0.0113  0.0598  0.3269
10788W        W26597   2.176  17.843  16.334 -0.1558  0.0544 -0.4440
10789W        W26598   3.044   4.811   0.218  0.0027  0.2292 -0.0191
10790W        W26599   3.624  16.431  13.183 -0.3988  0.1354  0.0267
10791W        W26600  16.875   9.654   2.437  0.1166 -0.3350 -0.0514
10792W        W26601   8.579   7.730   4.724 -0.0045  0.2464  0.2229
10793W        W26602   5.665   4.808  10.980 -0.1294 -0.0209 -0.0485
10794W        W26603  14.298  11.160   5.451  0.0367  0.1731 -0.0820
10795W        W26604   1.120  13.645  13.795 -0.0806 -0.1321  0.1107
10796W        W26605  12.847  11.944  12.768  0.0144  0.0631 -0.0842
10797W        W26606   7.966   1.609   5.689 -0.0687  0.1181 -0.1034
10798W        W26607  11.581   1.230   1.862 -0.1741 -0.0419  0.0385
10799W        W26608  13.212  17.194  12.709  0.3155  0.1174 -0.2349
10800W        W26609  11.188   9.306   2.909 -0.1217 -0.0555 -0.3524
10801W        W26610  16.097  17.414  14.636 -0.0714  0.0479  0.0687
10802W        W26611   2.885  10.669  12.959  0.0255  0.1143  0.0153
10803W        W26612  11.819  12.665  16.445 -0.0599  0.1650 -0.1423
10804W        W26613  13.817   7.856   3.072 -0.2303 -0.1038 -0.1873
10805W        W26614  10.599   1.771  14.858  0.0222 -0.1152  0.1142
10806W        W26615   8.202   0.557   5.162 -0.2254  0.0769 -0.1932
10807W        W26616   1.845   2.023  14.732  0.0559 -0.0254 -0.0075
10808W        W26617   1.280  15.880   5.600 -0.2687 -0.1303 -0.0593
10809W        W26618   3.693  11.251  16.509  0.0617  0.0439  0.2203
10810W        W26619   5.205  14.135  16.088 -0.1144 -0.0557  0.1077
10811W        W26620  10.147  13.355  12.046 -0.1218  0.2020 -0.0550
10812W        W26621   4.065   0.378  12.732 -0.0953  0.0428 -0.0300
10813W        W26622   9.666  13.767  15.644  0.2938  0.0673 -0.0355
10814W        W26623  12.292  15.188   0.975 -0.2607 -0.1907 -0.0944
10815W        W26624   6.798  13.317  13.197  0.0981  0.1521 -0.2231
10816W        W26625  10.219  14.599   5.672 -0.0388  0.0753  0.0665
10817W        W26626  10.994   1.106  15.545 -0.2971 -0.0872 -0.1173
10818W        W26627   4.258   5.807   2.360 -0.0721  0.1563  0.3600
10819W        W26628   9.540   7.926  11.687 -0.0791  0.0171  0.0365
10820W        W26629  10.332   4.855   2.057  0.2527  0.0065 -0.2726
10821W        W26630  13.746  11.270  13.002  0.1161 -0.2371 -0.0210
10822W        W26631   2.912   7.877   3.245  0.2395 -0.3871 -0.3150
10823W        W26632   1.341   7.034   4.822 -0.1382  0.0610  0.0547
10824W        W26633  12.517  12.875  13.847  0.3086  0.1108 -0.0164
10825W        W26634   0.648  17.273  14.425  0.0020 -0.0264  0.0818
10826W        W26635  16.346   5.607   4.936 -0.0835  0.1532  0.1429
10827W        W26636   3.506   8.283  15.282  0.1208 -0.2964 -0.1266
10828W        W26637   7.120   3.934  14.331  0.0523 -0.0529  0.0315
10829W        W26638   1.315   0.181   0.081  0.2774  0.0187  0.2830
10830W        W26639  12.783   3.605  13.059 -0.3066 -0.0763  0.3206
10831W        W26640   4.475   9.026   2.881 -0.2685  0.0288 -0.1240
10832W        W26641  16.932   6.120  14.559 -0.1129  0.1765  0.1405
10833W        W26642   3.168  12.998   1.932 -0.1296  0.0236 -0.1456
10834W        W26643   4.549   9.265   2.417 -0.1030  0.0558 -0.1054
10835W        W26644  12.081   0.164   0.176 -0.2398  0.3765  0.1202
10836W        W26645   4.432  16.050  14.742 -0.2296  0.3223  0.2307
10837W        W26646  15.795   6.904   5.381  0.0362  0.0471  0.2779
10838W        W26647   3.729  15.595   3.648  0.1547 -0.1953  0.1108
10839W        W26648  10.011   3.895   5.076 -0.0420 -0.2225 -0.0076
10840W        W26649  10.225  14.399  13.131  0.0227  0.1465 -0.1919
10841W        W26650  15.769   2.910  12.040  0.3169  0.2426 -0.3473
10842W        W26651   4.835  14.887   2.694  0.2105  0.0442 -0.2236
10843W        W26652  17.370  15.216  14.459  0.0002 -0.0046 -0.2237
10844W        W26653   7.122  15.097  16.509 -0.1043 -0.1460  0.1304
10845W        W26654   4.980   7.810  15.950  0.1791 -0.0769  0.1737
10846W        W26655   2.547   0.589  14.572  0.1540 -0.1453  0.1736
10847W        W26656   9.595  11.179   1.784 -0.0713  0.1067  0.2003
10848W        W26657   5.680  11.335  14.645  0.0028 -0.1617 -0.0652
10849W        W26658   5.364  16.127   6.836  0.2013  0.0879 -0.3695
10850W        W26659  11.000  11.249  12.111 -0.3547 -0.1354 -0.1246
10851W        W26660  15.419   6.783  12.465  0.0093 -0.0379 -0.0251
10852W        W26661   9.824   9.609   4.603 -0.0323  0.4646 -0.2744
10853W        W26662  10.374  16.065  13.446  0.5291  0.0101 -0.0969
10854W        W26663   4.855   9.769  15.137 -0.2443 -0.2110 -0.3742
10855W        W26664  14.959   9.985   5.509  0.3107 -0.1315 -0.2120
10856W        W26665   5.538   7.130  12.796 -0.1004  0.1420  0.0173
10857W        W26666   8.323  16.800   5.964  0.2743  0.1712 -0.1000
10858W        W26667  10.268  16.960   2.240 -0.0771  0.0837  0.1380
10859W        W26668   7.004   7.559  16.478 -0.1202  0.2121 -0.0114
10860W        W26669  14.660   2.749   3.321 -0.1254 -0.1739 -0.2539
10861W        W26670  17.932  14.607   2.614  0.1146 -0.0090 -0.2594
10862W        W26671   6.460  11.084   4.590  0.1269  0.0705 -0.0686
10863W        W26672   6.064   0.669  14.931 -0.1449  0.1524 -0.3489
10864W        W26673   0.401  17.115  13.163  0.2794 -0.1059  0.1103
10865W        W26674  12.128   9.059   0.111  0.1702  0.0538 -0.4982
10866W        W26675   6.858  10.835   2.339  0.1290  0.2372 -0.2230
10867W        W26676   1.764  12.961  11.978  0.1559  0.1427  0.1172
10868W        W26677  15.878   3.528  13.250 -0.2742  0.2757 -0.1130
10869W        W26678  13.092  11.427   4.494 -0.0690 -0.1606 -0.1302
10870W        W26679   3.779   9.625   4.618  0.1225  0.1162  0.3907
10871W        W26680  12.840   5.804   1.952  0.0282  0.0463  0.2411
10872W        W26681   2.400   4.120  15.912  0.0412  0.4551  0.0502
10873W        W26682   5.761  16.533  15.717 -0.1284  0.2629 -0.1723
10874W        W26683   0.535  17.486  11.986 -0.3256 -0.0202 -0.2014
10875W        W26684  17.469   2.211  16.611 -0.1851 -0.1545 -0.2136
10876W        W26685   3.331   4.322  15.650  0.0869 -0.1674  0.1188
10877W        W26686   9.845   0.324   0.364  0.1471 -0.2787  0.0333
10878W        W26687   0.721   6.604  14.904 -0.0567 -0.2796 -0.3053
10879W        W26688   9.059  14.185  16.520 -0.2199 -0.0449 -0.1648
10880W        W26689  13.454   2.236  15.251  0.1203 -0.1210 -0.2232
10881W        W26690  10.300   6.115   3.915  0.0422  0.0282 -0.0601
10882W        W26691  11.321   5.893   1.631  0.1724 -0.1308  0.1860
10883W        W26692   2.774   4.068  12.361  0.1749  0.1776  0.2917
10884W        W26693  15.392   9.728  13.210  0.0351 -0.2278 -0.2147
10885W        W26694   4.528   8.537  11.934 -0.2725 -0.1749  0.2553
10886W        W26695   3.651   2.586   1.938 -0.0080 -0.0745 -0.2222
10887W        W26696   9.337   1.359  12.617 -0.0007  0.3189  0.0576
10888W        W26697  12.227  17.295  15.824 -0.2484 -0.0005  0.2305
10889W        W26698  14.540  13.657  13.278 -0.1834 -0.1215 -0.1481
10890W        W26699   2.302   1.547  16.012 -0.1970 -0.0538  0.0152
10891W        W26700   2.006  12.331  11.118 -0.1022 -0.0713  0.0671
10892W        W26701   9.705  11.578   2.387 -0.0193  0.1150  0.0042
10893W        W26702  11.393   7.560   2.976 -0.0344 -0.1444 -0.0418
10894W        W26703   0.556  15.355  10.527 -0.1000 -0.1744  0.1428
10895W        W26704  13.270   0.650   3.507  0.3442  0.1783  0.0231
10896W        W26705   0.229  15.130  13.438  0.0165 -0.2325 -0.0233
10897W        W26706   3.406  12.015   4.165 -0.2457 -0.0517 -0.1729
10898W        W26707   2.629   1.110   2.117  0.0133 -0.1719 -0.2683
10899W        W26708  12.054  10.274  14.932  0.4006 -0.0074 -0.1110
10900W        W26709  14.330   5.446  15.423  0.1769  0.1595 -0.1266
10901W        W26710   7.039   7.808  12.394  0.3690  0.1103 -0.0202
10902W        W26711   9.967   2.438  14.837  0.1104 -0.0105 -0.1589
10903W        W26712   0.215  17.791   4.492 -0.1087  0.0376  0.0576
10904W        W26713  11.369  13.388  14.498 -0.0106 -0.1309 -0.1812
10905W        W26714   6.914   4.010   4.040 -0.1047  0.1762 -0.1860
10906W        W26715   6.909   3.796   1.713 -0.0687  0.1245 -0.0466
10907W        W26716  10.652  12.134  15.983  0.2319  0.2859  0.2138
10908W        W26717  17.018   0.965   3.486  0.0552  0.1465  0.0397
10909W        W26718   0.663  12.911  14.267  0.2093  0.1720  0.3156
10910W        W26719   2.709  13.021  11.954 -0.0340 -0.0825  0.1958
10911W        W26720  13.381   6.775  11.713  0.0323  0.0504 -0.2913
10912W        W26721  11.663  12.319   0.581 -0.1080  0.1879 -0.0296
10913W        W26722  13.693   6.541  13.439  0.2591  0.1917  0.1792
10914W        W26723   5.012  11.576  12.792  0.1585  0.1705  0.0783
10915W        W26724   2.297   3.516   4.145 -0.0144  0.1557  0.0026
10916W        W26725  12.415   8.304  12.666 -0.1388  0.1104  0.1221
10917W        W26726  17.416  15.293   4.476  0.3992  0.0434 -0.0912
10918W        W26727   6.413   5.560  15.611 -0.5386  0.0138 -0.2312
10919W        W26728  12.967   0.608  15.927 -0.0249 -0.2661  0.0429
10920W        W26729  16.570  17.742   2.371  0.2249 -0.0231 -0.2380
10921W        W26730   1.287   0.661   4.898  0.2911  0.0842 -0.2281
10922W        W26731   3.235  11.229  12.728 -0.0482 -0.0724  0.2289
10923W        W26732  13.484  11.524  15.960 -0.0797  0.2896 -0.1651
10924W        W26733   7.441  10.998  14.005 -0.2967 -0.1331  0.1859
10925W        W26734  13.639   8.003   6.025  0.1881  0.0711  0.0011
10926W        W26735  12.727  12.088   3.058  0.2057 -0.2304 -0.0995
10927W        W26736   0.409   1.850  14.058  0.5448 -0.1669 -0.1198
10928W        W26737   8.193   6.544   0.781  0.0248 -0.1852  0.4004
10929W        W26738   8.711  15.566   3.743  0.1268  0.0680 -0.3933
10930W        W26739   7.913   8.193  14.486 -0.1379 -0.0935  0.2057
10931W        W26740  12.285  12.456   6.206  0.1486 -0.2542  0.1870
10932W        W26741  16.728   1.002  13.868 -0.3729  0.0867  0.2894
10933W        W26742   2.635   1.813   3.556  0.1144  0.0213  0.1504
10934W        W26743  16.891  12.815   0.009 -0.0390  0.0020 -0.0128
10935W        W26744   6.849   0.816   1.666 -0.0712 -0.0418  0.1777
10936W        W26745  11.797   9.142  15.622 -0.1467 -0.2743  0.1759
10937W        W26746  14.906   6.692   4.278 -0.1041 -0.2549  0.0944
10938W        W26747   8.224   0.540  12.631  0.1659 -0.0919 -0.2447
10939W        W26748   9.587  10.749   3.975  0.0406 -0.0236 -0.3503
10940W        W26749   4.703  13.007   2.791  0.1240  0.0759 -0.1465
10941W        W26750   7.910   9.612   2.392  0.1359  0.0653  0.5886
10942W        W26751   5.157  17.266   0.357  0.0803 -0.0361  0.0603
10943W        W26752   1.293   1.317  15.389 -0.0702 -0.2791  0.0403
10944W        W26753  16.709  14.344  15.770  0.3187  0.1381  0.3186
10945W        W26754  15.460   7.820  12.549  0.1457  0.3054 -0.0961
10946W        W26755   2.554   5.211   5.872 -0.0542  0.0330 -0.3115
10947W        W26756   0.855   1.763  14.426 -0.2531  0.2095 -0.0691
10948W        W26757   2.118   6.886   1.071 -0.1101  0.0048  0.1388
10949W        W26758  17.082   0.663   2.613 -0.2343 -0.1302 -0.4197
10950W        W26759   3.895  10.678  13.775  0.0579 -0.3025 -0.0405
10951W        W26760  17.774   4.111   4.092 -0.2414  0.2473  0.2315
10952W        W26761   0.274   0.517   4.282  0.1314  0.1983 -0.2627
10953W        W26762   8.668   6.386   0.985  0.1557 -0.2021  0.0449
10954W        W26763   3.636  15.492  14.871 -0.2257 -0.2068  0.0033
10955W        W26764   9.552  17.786  13.615 -0.0329 -0.2812 -0.0987
10956W        W26765   0.871  14.594   1.814  0.0265  0.0200  0.2802
10957W        W26766   5.019   6.987   2.773 -0.0288  0.0056 -0.0349
10958W        W26767   7.034   8.052  14.564  0.0269 -0.0837 -0.0435
10959W        W26768  12.329   6.895  15.598  0.1552 -0.1887 -0.0856
10960W        W26769  15.529   9.164   4.315 -0.0647  0.1111  0.1017
10961W        W26770  13.883   5.686   3.072 -0.0505  0.0700  0.1291
10962W        W26771   5.647  10.851  13.854 -0.0715 -0.1213 -0.3219
10963W        W26772   1.754  15.232   3.618  0.2218  0.0727 -0.1354
10964W        W26773   2.685   0.758   2.975  0.2713  0.2615 -0.0819
10965W        W26774   8.136   6.135   5.997 -0.0706 -0.0673  0.1008
10966W        W26775   9.415  12.554   5.093  0.1223  0.0846 -0.0370
10967W        W26776   9.153  11.627  14.519 -0.4108 -0.3876  0.0296
10968W        W26777  16.735  10.030  14.207  0.1077 -0.0481  0.0582
10969W        W26778  12.074  10.519   1.374  0.0273 -0.3150  0.0681
10970W        W26779  14.701   7.918   5.819 -0.1231 -0.3991  0.1435
10971W        W26780  16.330   6.798   5.487  0.2279 -0.1779 -0.1943
10972W        W26781   0.102  14.141   0.441 -0.1725  0.0161  0.1737
10973W        W26782   5.827  15.237  11.228  0.0410 -0.0215 -0.2576
10974W        W26783   6.562  14.831   2.214  0.0065  0.0129  0.1889
10975W        W26784  13.689   0.075   3.384 -0.1043  0.0373  0.2718
10976W        W26785   4.958  16.814  12.613 -0.0955  0.2213 -0.1584
10977W        W26786   7.576   4.138  13.441 -0.2609  0.1626  0.0543
10978W        W26787   7.103   2.526   1.366  0.2148 -0.0844 -0.0947
10979W        W26788  17.129   3.037   3.127 -0.1578  0.3606 -0.1002
10980W        W26789   7.791   4.816  13.965  0.2856 -0.3389  0.1015
10981W        W26790  16.575  10.152  12.503  0.0781  0.4069  0.0593
10982W        W26791  17.027   5.057  15.422 -0.2270 -0.4138 -0.0066
10983W        W26792   2.592  16.832   3.264  0.1504  0.0427 -0.1365
10984W        W26793  15.099  11.180  12.086 -0.0826 -0.1084  0.1532
10985W        W26794   4.423  17.947   4.875 -0.1912 -0.2549 -0.0724
10986W        W26795   9.428  17.025  12.669 -0.0737  0.0110  0.1910
10987W        W26796  10.851  10.916  13.606 -0.2452  0.1280  0.0970
10988W        W26797  17.112  12.594   3.531 -0.1273 -0.0481 -0.1477
10989W        W26798   6.297  11.627   0.796  0.2497 -0.1707 -0.2444
10990W        W26799  11.619  15.311  14.920 -0.0991 -0.2422 -0.1887
10991W        W26800  16.247  11.801   3.219  0.1232 -0.0909  0.3979
10992W        W26801  10.219   1.077  14.075 -0.0318  0.0155  0.2413
10993W        W26802   3.496   0.993  15.996  0.0227 -0.1244 -0.1526
10994W        W26803  15.404  13.014  14.465 -0.0218  0.1815  0.3312
10995W        W26804   3.941   4.472  15.415 -0.1192 -0.0040 -0.2742
10996W        W26805  12.524  12.268  12.071  0.0362  0.2457 -0.3994
10997W        W26806   4.980   0.948   0.295 -0.0551  0.0989 -0.0217
10998W        W26807  15.743  14.505   3.616  0.0222  0.1233  0.0385
10999W        W26808   3.103   4.097   1.315  0.0043 -0.0930 -0.2013
11000W        W26809   8.000   8.045  13.019 -0.0113 -0.3619  0.1519
11001W        W26810  14.017   1.810  11.796 -0.1869  0.0016 -0.1536
11002W        W26811  16.792  14.505  13.955  0.0721 -0.1448 -0.1019
11003W        W26812  14.460   3.588   0.642  0.0996  0.3449 -0.0488
11004W        W26813  14.477   7.526  16.397 -0.2730  0.0613  0.4128
11005W        W26814  13.836   0.562   4.873  0.1440  0.1803 -0.0804
11006W        W26815   6.893   5.575   2.211 -0.3054 -0.5834  0.1375
11007W        W26816  10.138  15.763  13.132  0.1295  0.0775 -0.2061
11008W        W26817   4.771   9.950   0.699 -0.0860  0.2175  0.0099
11009W        W26818   3.598   5.818   3.444 -0.2166  0.3671  0.4196
11010W        W26819  11.215  12.442   3.542  0.0263  0.0119  0.1968
11011W        W26820  13.262   0.962   5.735 -0.1816  0.1356  0.2220
11012W        W26821   1.692  11.464   1.349 -0.0184  0.3137  0.2293
11013W        W26822  11.195   4.702   2.787 -0.0042  0.0108  0.2084
11014W        W26823  14.426  10.850   0.393  0.0768  0.2291  0.0117
11015W        W26824   4.967   2.557   1.598  0.0731 -0.1167 -0.0757
11016W        W26825  10.205  17.911   4.155 -0.3748 -0.0142 -0.2808
11017W        W26826  13.333  14.757  12.236 -0.0812  0.3747  0.1066
11018W        W26827   3.042  13.860   1.205  0.0060 -0.0070  0.3301
11019W        W26828   3.485   7.354   0.281  0.0502 -0.1188 -0.0518
11020W        W26829   1.365  11.228   3.391  0.1002  0.1046  0.0101
11021W        W26830   2.402  11.757   0.951  0.3297  0.2210 -0.0778
11022W        W26831   0.676   4.734   2.006  0.1177  0.2261 -0.2372
11023W        W26832  10.005  13.701   5.493  0.0555 -0.2477  0.1210
11024W        W26833  10.764   4.705   5.251 -0.0834 -0.1531  0.1501
11025W        W26834  13.609   9.853   2.591 -0.2243  0.3741  0.0972
11026W        W26835  17.640  10.972   1.893 -0.2241 -0.0026 -0.1729
11027W        W26836   4.451  13.914   1.857  0.0471 -0.2248  0.3459
11028W        W26837   4.125  13.653   2.236 -0.1169  0.0416  0.0321
11029W        W26838  14.737  14.979   2.529 -0.1726 -0.3023 -0.0134
11030W        W26839   5.757  11.286  10.715 -0.2370  0.0172  0.3123
11031W        W26840   4.135  14.231   3.332 -0.0888 -0.1004  0.0242
11032W        W26841   5.011   3.658   4.073  0.0765  0.3285  0.0890
11033W        W26842  10.050   8.180   4.066 -0.0139  0.1766 -0.2028
11034W        W26843   7.665   9.852  13.336 -0.2341  0.2339  0.0561
11035W        W26844   9.007   5.692  16.030  0.3005 -0.2454  0.0724
11036W        W26845   9.048   4.428  16.126 -0.0688  0.0719  0.4324
11037W        W26846   3.643  14.812   2.606 -0.0623  0.1237 -0.0513
11038W        W26847   4.917   0.299   2.392  0.1990 -0.2350  0.2294
11039W        W26848  13.665  10.872   3.527  0.0276 -0.2967  0.1056
11040W        W26849  16.385  10.625  14.932  0.1259 -0.0642  0.0289
11041W        W26850   3.696  12.345   3.849 -0.0390 -0.2129 -0.0574
11042W        W26851   3.800   8.201  10.845  0.3301 -0.0160 -0.0734
11043W        W26852   6.667   3.956  11.888  0.0426 -0.0552  0.0266
11044W        W26853   1.058  16.097   2.132 -0.0168  0.0660 -0.1506
11045W        W26854   0.159   1.777   1.054 -0.1253  0.0626  0.0361
11046W        W26855  13.103  15.373   3.007  0.1311  0.1919 -0.0353
11047W        W26856  13.724  11.428  12.457  0.3260  0.0866 -0.1189
11048W        W26857  16.276   8.635  13.297 -0.1075 -0.2369  0.3653
11049W        W26858  15.063  15.594   5.381 -0.0622  0.0981 -0.1810
11050W        W26859   9.084   0.671  15.899 -0.0986  0.1583 -0.0440
11051W        W26860   9.897  11.737  15.764 -0.1733 -0.2919  0.0871
11052W        W26861  13.452  10.583  12.367 -0.0694  0.2914  0.1514
11053W        W26862   0.821  12.955   2.828 -0.0975  0.2214 -0.0680
11054W        W26863   5.568   0.719   4.038  0.0879 -0.0727 -0.0697
11055W        W26864  16.046  16.364  14.735  0.0431 -0.2105  0.1690
11056W        W26865   9.677  14.125   4.048 -0.2072 -0.2348  0.1079
11057W        W26866   5.827   9.539   3.318  0.1580 -0.0127 -0.1019
11058W        W26867   8.388   8.919  12.726  0.1840 -0.0699  0.0411
11059W        W26868   0.713   7.631   3.302 -0.0348 -0.4153  0.1577
11060W        W26869  14.842   2.034  15.767  0.0086 -0.3916  0.0762
11061W        W26870   2.273   5.025  13.647 -0.4011 -0.2688  0.1762
11062W        W26871   0.749  15.268   3.054  0.0076 -0.0377  0.1706
11063W        W26872  16.583   0.896   0.751  0.0038 -0.1964 -0.0510
11064W        W26873   3.141   3.022  13.951 -0.3765  0.1235  0.2768
11065W        W26874  12.049   9.815  11.830  0.1809 -0.1657  0.1711
11066W        W26875  14.443   9.414   5.860  0.2207  0.1089 -0.1458
11067W        W26876  11.427  10.464   3.638 -0.2335 -0.3081 -0.1515
11068W        W26877   9.333  15.491  12.561  0.2382 -0.1348 -0.0024
11069W        W26878  10.766  17.424   2.007 -0.0959 -0.0836 -0.1421
11070W        W26879   5.544   9.047  12.325 -0.1174  0.0357 -0.2599
11071W        W26880   5.745   2.572  15.544  0.0484  0.0728  0.0666
11072W        W26881   1.199   4.451  15.829 -0.2077 -0.2383 -0.1319
11073W        W26882  17.802  16.639   2.393 -0.0978 -0.3165  0.0977
11074W        W26883  14.882  11.627  12.681 -0.1742  0.0429  0.3364
11075W        W26884   1.200   5.755  15.556 -0.0189  0.1984  0.2480
11076W        W26885   7.903   0.613   2.306  0.3202  0.1145 -0.0009
11077W        W26886   7.005   4.910   3.503  0.1281  0.0636  0.1493
11078W        W26887  17.435   9.929  12.915  0.0854  0.4527  0.0912
11079W        W26888   6.590   3.702  13.417 -0.0852  0.2524 -0.0758
11080W        W26889   0.034  14.576  16.062  0.1788 -0.3832 -0.3560
11081W        W26890   3.820   2.515  14.195  0.2508  0.1783  0.2163
11082W        W26891  16.031   5.216   1.324 -0.0397 -0.1893 -0.3581
11083W        W26892  15.156   1.480   1.044  0.1254  0.1347 -0.3233
11084W        W26893  14.275   2.525  14.096 -0.1355  0.1041 -0.2816
11085W        W26894   6.387   1.657   5.009 -0.0513 -0.3150  0.1730
11086W        W26895   2.616   4.072   1.129 -0.2339 -0.1539  0.0716
11087W        W26896  11.912   4.782  13.289 -0.3064  0.0571 -0.0955
11088W        W26897  11.773   7.537  14.652  0.1454 -0.0412 -0.0611
11089W        W26898   2.953  11.635   5.099 -0.0945 -0.2303  0.2488
11090W        W26899   8.491   3.345   2.123 -0.3893  0.1566 -0.0118
11091W        W26900   0.114   7.715   2.544  0.0101  0.0478 -0.0024
11092W        W26901  14.636   8.380  11.648  0.0511  0.0440 -0.3967
11093W        W26902  17.547   5.152  13.585  0.3179 -0.1276 -0.0952
11094W        W26903  10.194  16.977   5.449  0.1303  0.1298  0.1402
11095W        W26904   4.285   6.446  14.849  0.0561 -0.2331 -0.0142
11096W        W26905  12.323  13.091  12.322  0.5387  0.2150  0.0529
11097W        W26906  10.845   9.761  12.708 -0.1830  0.1277 -0.3623
11098W        W26907  10.120   3.942   2.977  0.0500 -0.0757 -0.3158
11099W        W26908  12.782  10.188  11.701 -0.0508  0.2828  0.1060
11100W        W26909   6.545   6.171  15.075  0.2466  0.2369  0.0860
11101W        W26910   8.574  13.753  13.589  0.1377 -0.2000 -0.1012
11102W        W26911   8.226  15.493   1.063 -0.0074  0.1814  0.3266
11103W        W26912  11.752   7.222  15.053 -0.3279  0.1133  0.1756
11104W        W26913   4.220  12.953  14.875  0.0943 -0.2012  0.1579
11105W        W26914   8.842   8.470  14.332 -0.1735 -0.3477  0.0443
11106W        W26915   8.033  17.034   3.252  0.2278 -0.0395  0.0476
11107W        W26916   6.395  14.290   4.117  0.0852  0.0881  0.1083
11108W        W26917  13.927  16.895   5.427  0.2221  0.0932  0.0116
11109W        W26918   0.091  15.487   4.426  0.2127  0.0316 -0.0186
11110W        W26919   5.173   2.154  12.894 -0.1774  0.2930 -0.1107
11111W        W26920   8.077   7.031   2.453 -0.0874 -0.0161 -0.0148
11112W        W26921   7.386   0.788  16.529  0.0978  0.0869 -0.0529
11113W        W26922  15.262  12.917  15.675 -0.1648 -0.0081  0.1238
11114W        W26923   1.629  17.193  12.533 -0.0225  0.0116  0.0209
11115W        W26924   0.730  16.049   0.204  0.0017 -0.1231  0.1137
11116W        W26925  12.050   0.540  12.325 -0.0048 -0.2670  0.0932
11117W        W26926   7.694  15.965  11.761 -0.1519  0.1616  0.0009
11118W        W26927   5.599  17.148  15.691 -0.0551  0.0754  0.0149
11119W        W26928   6.006   8.091  11.544  0.2243  0.0266 -0.1873
11120W        W26929   8.589   1.537   0.795 -0.0375  0.0098 -0.0644
11121W        W26930   4.267  15.204  14.438 -0.0450  0.0828  0.1231
11122W        W26931  13.928  16.701  13.807  0.0190 -0.0914 -0.0164
11123W        W26932  11.453   5.821  11.335  0.5573  0.0181  0.1805
11124W        W26933  13.936   1.024   5.920 -0.2619 -0.1692 -0.2092
11125W        W26934   0.058   9.930   1.297  0.1348  0.2075 -0.0766
11126W        W26935   6.058  16.691  11.066 -0.0118  0.1279  0.1759
11127W        W26936   6.206   7.357   2.095 -0.1278  0.1476  0.0262
11128W        W26937   7.837   1.651  13.087  0.0478  0.0490  0.0834
11129W        W26938   9.217   4.156   0.835  0.2387 -0.0064  0.2638
11130W        W26939  12.434   6.378   4.981  0.1595 -0.0185 -0.0220
11131W        W26940   9.697   2.296   5.725  0.0182 -0.1701  0.4040
11132W        W26941   6.036  16.224   0.776  0.4746  0.0444 -0.0248
11133W        W26942  16.342  11.691  11.863 -0.1722 -0.2236  0.0546
11134W        W26943   8.850  14.900  15.290 -0.3068 -0.2056  0.0861
11135W        W26944  15.070  16.421  11.972 -0.0687  0.0146  0.1747
11136W        W26945  11.448   8.708  12.973  0.1126 -0.0343  0.2747
11137W        W26946  10.755   3.490  11.937 -0.2520  0.1310  0.0883
11138W        W26947   5.235   6.434   3.148 -0.1441  0.0669  0.1330
11139W        W26948   7.455   4.700   3.467 -0.0274  0.0097  0.2381
11140W        W26949   1.039   3.760   5.867  0.0461  0.1758 -0.1818
11141W        W26950   5.877  12.996  16.362  0.0692 -0.2420 -0.2026
11142W        W26951   1.673   0.086  15.940 -0.1433 -0.1157  0.2825
11143W        W26952   9.216  13.881   3.248 -0.0199  0.2862  0.0018
11144W        W26953   8.627   1.945  12.624  0.1865  0.1864  0.0788
11145W        W26954   5.764  17.852   2.018 -0.0403  0.1216 -0.2885
11146W        W26955  14.311   7.662  13.381 -0.0960 -0.1667 -0.0880
11147W        W26956  15.253   4.031  11.964  0.1342 -0.1868  0.1609
11148W        W26957  12.901   1.017   3.678  0.0584  0.0418  0.0133
11149W        W26958  11.613  12.130   0.076 -0.2582 -0.0161 -0.1307
11150W        W26959   7.764  12.986   5.306  0.1932  0.1326 -0.4150
11151W        W26960  11.092   5.424  11.446  0.0774  0.1232 -0.1556
11152W        W26961   0.196   4.891  10.570 -0.1059  0.0663  0.2751
11153W        W26962   4.390   9.555  14.263  0.0249 -0.0408  0.1414
11154W        W26963  16.320  16.787   4.056  0.0811 -0.0455 -0.2272
11155W        W26964   2.349   8.853  14.857  0.1237 -0.0675  0.0619
11156W        W26965   1.278   0.592   6.454  0.0478 -0.0040  0.2083
11157W        W26966  14.197  12.044  13.376 -0.0975 -0.0842 -0.1778
11158W        W26967  11.521  14.177  12.185 -0.0335 -0.3375  0.0470
11159W        W26968   6.630  15.120  16.345 -0.1340 -0.0814  0.3507
11160W        W26969  14.109  15.984  13.528 -0.2147  0.1844  0.0853
11161W        W26970   9.970   0.674   5.207 -0.1315  0.1007 -0.0597
11162W        W26971   4.373  14.135  15.268 -0.1679 -0.1321  0.3979
11163W        W26972   8.422   3.010   3.823  0.0281  0.2806  0.3373
11164W        W26973   4.435   6.312   0.107 -0.1607 -0.2246 -0.2619
11165W        W26974  17.726   2.449  14.105  0.1404  0.2344 -0.1835
11166W        W26975   4.787  10.356  14.074  0.1210 -0.0510 -0.0302
11167W        W26976   9.084   4.512  16.635 -0.0948  0.0361  0.0556
11168W        W26977   0.910   3.201   1.730  0.2290 -0.0086 -0.1884
11169W        W26978   6.023  17.800   5.099 -0.1013  0.1080 -0.2161
11170W        W26979   7.395   8.147   4.562 -0.0885  0.1935 -0.2439
11171W        W26980   2.908  15.204  12.292 -0.2054  0.1550  0.2607
11172W        W26981   4.417  16.987   0.924 -0.0804  0.1677 -0.1390
11173W        W26982  16.994   6.220   4.488  0.2107 -0.0054 -0.0656
11174W        W26983  16.736  10.545  11.270 -0.0420 -0.1344  0.1217
11175W        W26984  15.408   4.618   4.610 -0.3522 -0.0310 -0.5265
11176W        W26985   3.968   9.861  12.800  0.0729  0.2586 -0.3264
11177W        W26986   9.928  12.560  15.543 -0.0124 -0.1220  0.1219
11178W        W26987  14.910   3.675  14.731 -0.1303  0.2182  0.0029
11179W        W26988   2.362   5.268   2.060 -0.0610  0.2079  0.1230
11180W        W26989   6.628   4.010  12.900  0.0031  0.2644  0.1409
11181W        W26990   5.672   2.908   4.750  0.2562  0.2085  0.4053
11182W        W26991  12.979   5.653  11.240  0.1096 -0.1520  0.1718
11183W        W26992  12.686  11.438  16.189  0.0289  0.0833  0.0737
11184W        W26993  12.842   0.842  14.533 -0.2462  0.1059  0.3928
11185W        W26994   4.342  16.605   1.168 -0.3072 -0.0436  0.0100
11186W        W26995  10.256   0.518   1.329  0.1337 -0.0706 -0.0328
11187W        W26996  13.606   8.943   0.849 -0.1915 -0.1684 -0.2914
11188W        W26997   2.644   4.294   0.667 -0.4489  0.0911 -0.3167
11189W        W26998   6.690  14.949   5.259  0.0610 -0.3798  0.2234
11190W        W26999  12.042  17.288  15.073  0.0356  0.2471 -0.0950
11191W        W27000   1.027   0.810  16.426 -0.0830 -0.1304  0.1029
11192W        W27001   0.331   4.224   4.200 -0.0797 -0.5066 -0.0750
11193W        W27002  17.640  10.729   2.350 -0.0393  0.3512 -0.2270
11194W        W27003   4.641   9.521  16.063  0.1162  0.3324  0.3300
11195W        W27004  14.174   5.036   5.242  0.4432  0.0819 -0.1223
11196W        W27005   8.271  13.511  11.791  0.1755 -0.3410  0.4363
11197W        W27006   4.873   8.365  16.013  0.2245  0.0878 -0.1559
11198W        W27007  13.890  15.433   2.838  0.0716 -0.2567  0.1000
11199W        W27008   1.027   5.081   4.153 -0.0589  0.1583 -0.0895
11200W        W27009   2.746  17.738  12.322 -0.1236  0.2506  0.0321
11201W        W27010   4.295  15.989   0.696 -0.2249 -0.3629 -0.0053
11202W        W27011  12.490   1.626   1.598  0.3299 -0.0215 -0.0224
11203W        W27012   4.146  11.158  11.141 -0.0974 -0.1773 -0.0628
11204W        W27013   1.244  15.672   0.881 -0.4389 -0.0307 -0.0288
11205W        W27014   3.775   9.122   4.504  0.1277  0.1037  0.2241
11206W        W27015  14.463   5.055  12.355  0.1022 -0.1187 -0.1657
11207W        W27016   4.211   8.679  15.342  0.1359 -0.2758 -0.1917
11208W        W27017  15.985   4.864  15.579  0.1318  0.0416  0.0795
11209W        W27018  12.573   2.008   5.778 -0.0851 -0.1813 -0.1495
11210W        W27019  14.955  11.706  14.744  0.0440  0.1194  0.1334
11211W        W27020   2.743   5.385  14.339  0.0692  0.0581 -0.0443
11212W        W27021  15.049  16.459   4.845  0.1921 -0.2200 -0.0772
11213W        W27022  17.229   1.280   1.312 -0.1971 -0.0913  0.0151
11214W        W27023   2.057   3.785   2.926  0.2078 -0.0233 -0.2090
11215W        W27024  17.160  17.668  11.748 -0.0001 -0.0967  0.5557
11216W        W27025  14.782   9.026  12.960  0.2034  0.1207 -0.0949
11217W        W27026   4.612  10.242  12.341 -0.1398 -0.2437 -0.3783
11218W        W27027   5.775   7.575   4.822  0.2830 -0.3584 -0.0864
11219W        W27028  15.310  12.759   4.419 -0.2124 -0.2517 -0.0884
11220W        W27029   9.620   7.081  12.090 -0.0834  0.1743  0.0239
11221W        W27030   6.379  17.277  13.044  0.3290  0.0318  0.0301
11222W        W27031   3.566  14.410   3.384  0.2082  0.2295  0.1014
11223W        W27032   8.565   0.713   5.577 -0.0232  0.3124  0.0930
11224W        W27033  15.039   5.013   5.470 -0.0254  0.1153 -0.0541
11225W        W27034   5.573   8.028  13.181  0.3198  0.1306  0.3568
11226W        W27035  15.718   8.383  15.809  0.0080  0.1232 -0.4674
11227W        W27036  13.070  12.478   5.172  0.4061 -0.1768  0.2366
11228W        W27037   4.134  12.801  10.922 -0.1021 -0.0051  0.4888
11229W        W27038   5.715   1.168   0.216  0.1447  0.3300 -0.0698
11230W        W27039   1.942  13.266  13.856 -0.0764 -0.2083 -0.0756
11231W        W27040  14.405   3.713  14.686  0.3320  0.0128 -0.1334
11232W        W27041   9.407   9.770   5.491 -0.1078  0.3572  0.0657
11233W        W27042   7.606   1.930  16.654  0.0298  0.2354  0.0474
11234W        W27043  11.680   0.970  14.488  0.0807  0.0508  0.0085
11235W        W27044   4.611  12.614  11.109 -0.0610  0.0050 -0.1191
11236W        W27045   7.255   6.648   0.142  0.2948  0.0116  0.1474
11237W        W27046   2.951   1.808  12.529  0.3397  0.1484  0.1016
11238W        W27047   4.406   4.051  12.129  0.0125  0.4659  0.0418
11239W        W27048  12.297   6.584   4.141 -0.4203 -0.0045  0.1202
11240W        W27049   7.328   8.523   2.763  0.0874 -0.3140  0.0880
11241W        W27050   2.470   7.137   1.376  0.1771 -0.2644 -0.1830
11242W        W27051  11.881   6.378  13.334  0.1842 -0.0838 -0.2326
11243W        W27052   6.491   4.012  15.919 -0.0188  0.0752  0.1246
11244W        W27053  14.196   4.241   4.847  0.0663  0.2264  0.0744
11245W        W27054   3.874   4.121  14.669  0.0408 -0.0550  0.0410
11246W        W27055  11.700   6.416   3.496  0.0971 -0.1734 -0.0933
11247W        W27056   4.785   7.711  14.141 -0.0885  0.3030  0.3924
11248W        W27057  13.970   0.926  15.505 -0.5001  0.1616  0.0655
11249W        W27058  13.199   3.258   4.798 -0.0051  0.1664 -0.3003
11250W        W27059   9.613  12.314  14.702  0.1141  0.1461 -0.0289
11251W        W27060   2.531  16.924   1.074 -0.0495  0.0452  0.0696
11252W        W27061  10.101   1.661   1.873 -0.0777  0.6139  0.3949
11253W        W27062   5.272   9.805   2.415 -0.1794 -0.2354  0.1838
11254W        W27063  14.025   1.919   2.483 -0.1173 -0.0394  0.2065
11255W        W27064  13.369  11.090  16.515 -0.2619  0.1905  0.3512
11256W        W27065   0.763   9.256   5.147 -0.0307 -0.0814  0.1809
11257W        W27066   0.738   0.026  15.025  0.1258 -0.0108  0.1225
11258W        W27067  16.874   0.942  16.237 -0.3471  0.1147 -0.2822
11259W        W27068  14.161  16.021   5.474 -0.0736  0.2298  0.1442
11260W        W27069  13.193  12.673   5.626 -0.2203  0.1793 -0.2317
11261W        W27070  12.940   4.761   6.160  0.0949 -0.0009  0.1193
11262W        W27071  14.754   6.945   3.213  0.0027 -0.3397 -0.1088
11263W        W27072   8.666   6.234   2.439  0.0618  0.0916 -0.2968
11264W        W27073  10.201   8.967  15.793  0.0996 -0.3583  0.0261
11265W        W27074   0.376   7.324  15.135 -0.1005  0.2329  0.1013
11266W        W27075  13.247   3.748  15.525  0.0728 -0.1138 -0.2070
11267W        W27076  14.353   5.040  14.027 -0.1449  0.2990  0.0115
11268W        W27077  13.850   4.576   5.143 -0.0526  0.0622 -0.0501
11269W        W27078  15.570   7.142  14.228  0.2248 -0.0223 -0.0302
11270W        W27079   3.800   0.232  12.357  0.0127 -0.2563 -0.1525
11271W        W27080  12.156  13.003   2.885  0.1754 -0.1194 -0.2272
11272W        W27081  16.133   5.641   1.743  0.0783 -0.1531  0.3806
11273W        W27082   0.274   0.895   3.455 -0.2628 -0.0258  0.1692
11274W        W27083   5.043   5.615  16.095  0.1622  0.2353 -0.1285
11275W        W27084  11.033  17.141  12.327 -0.2386 -0.0125 -0.1642
11276W        W27085   8.794  16.549   0.343 -0.1256  0.0811 -0.0502
11277W        W27086  12.239   7.732   2.816  0.3840 -0.1884 -0.1806
11278W        W27087  16.273  13.483  15.182 -0.1659 -0.1195 -0.1259
11279W        W27088   6.107   8.910  12.099 -0.1301 -0.3302  0.0970
11280W        W27089   0.517   0.691  11.467 -0.1070  0.1051 -0.0351
11281W        W27090   3.736   2.898   1.488  0.2278  0.2976 -0.0992
11282W        W27091  14.419   6.976   5.502  0.0700 -0.1569  0.0185
11283W        W27092   9.677   6.358   5.156 -0.1717 -0.1924  0.0262
11284W        W27093  13.615   8.213  13.190 -0.1312 -0.2973  0.0687
11285W        W27094   6.454   9.231  15.649 -0.0407 -0.0606  0.4011
11286W        W27095   1.227  15.489   5.339 -0.0241  0.2148 -0.1940
11287W        W27096   3.034  17.064  12.792 -0.3286  0.0320  0.3004
11288W        W27097   4.554  13.296   4.268 -0.0990  0.0828 -0.0335
11289W        W27098   7.635   7.114   2.733  0.2831  0.0917  0.3170
11290W        W27099  11.932  12.685   2.117 -0.1989  0.0646 -0.0247
11291W        W27100   9.795  14.976   1.911 -0.1283 -0.2615  0.3799
11292W        W27101  10.356  15.507  12.372  0.3167 -0.5775 -0.0511
11293W        W27102  16.745  16.615   1.514 -0.2402 -0.0140 -0.1418
11294W        W27103  14.305   9.381   0.793 -0.4115  0.4022 -0.1593
11295W        W27104   7.607   9.026   4.996 -0.0549  0.2238  0.2600
11296W        W27105   7.102   6.804   2.343 -0.1379 -0.0096  0.1841
11297W        W27106   4.866   4.853   2.638  0.2717  0.3431  0.3221
11298W        W27107   9.029  15.555  15.652  0.3127 -0.1147  0.0295
11299W        W27108   6.134  13.809  12.690 -0.2129 -0.3014 -0.0928
11300W        W27109  14.124   1.682   6.132 -0.2613 -0.0764  0.2981
11301W        W27110  10.314   6.554  13.871 -0.1562  0.1234 -0.0597
11302W        W27111  12.225  12.623  15.583 -0.3120 -0.1529 -0.1071
11303W        W27112   4.821   8.263   2.530  0.2592 -0.0702 -0.2277
11304W        W27113  16.525  10.956  15.564  0.3019 -0.2352  0.1372
11305W        W27114   6.330   4.961  14.848 -0.0144 -0.0384 -0.2417
11306W        W27115  16.529   5.528   3.323  0.0464 -0.0586 -0.0998
11307W        W27116   4.506   7.900   5.186 -0.2083 -0.0854  0.1894
11308W        W27117  17.027  13.428   2.307 -0.2523 -0.2510  0.0462
11309W        W27118  15.819  13.151  11.642  0.1384 -0.1449 -0.1299
11310W        W27119   6.083   1.094  13.687  0.0081  0.0513 -0.0243
11311W        W27120  10.139   8.996   0.375 -0.3623 -0.1022 -0.0909
11312W        W27121   6.363   2.919   3.566 -0.1253 -0.2811 -0.2136
11313W        W27122  15.287   5.016  10.476 -0.1841 -0.0118 -0.1557
11314W        W27123   2.981   9.699  15.646  0.3963 -0.0470  0.1185
11315W        W27124   3.880  15.646   4.505 -0.2112  0.0456  0.2293
11316W        W27125   1.399  13.494  12.606 -0.2288  0.1425 -0.0152
11317W        W27126   8.764  10.788   3.419  0.1748 -0.0674  0.2619
11318W        W27127  16.978  13.733  14.566  0.0200 -0.0794  0.1889
11319W        W27128  13.479  12.758   1.534 -0.1252 -0.2366  0.3981
11320W        W27129  10.618   4.793   2.848  0.2324 -0.2060 -0.2878
11321W        W27130  12.233   6.704  12.684 -0.2824 -0.1113 -0.2225
11322W        W27131   8.735  17.773  13.890  0.2237  0.1648 -0.0555
11323W        W27132   2.391   9.093  12.700  0.0750 -0.4704 -0.3944
11324W        W27133   3.000   6.946  15.855  0.3627  0.0976 -0.2852
11325W        W27134   1.200  12.877  14.259  0.1381 -0.0022 -0.2121
11326W        W27135  10.702  14.299   5.821  0.2713  0.1910  0.1506
11327W        W27136   7.789   7.400   5.639  0.1936 -0.0448 -0.1220
11328W        W27137   6.312   1.520   1.331  0.4184 -0.1475 -0.1160
11329W        W27138   9.078   4.642  15.160 -0.0083 -0.3345 -0.1103
11330W        W27139  12.848   7.980   5.380 -0.2489  0.0124 -0.0635
11331W        W27140   3.022  11.377   1.947 -0.1593  0.1268  0.2438
11332W        W27141   9.971   4.029  14.521  0.0400 -0.0228 -0.1634
11333W        W27142   2.366  15.699   0.671  0.1221 -0.1040 -0.4046
11334W        W27143  12.118  10.345   1.868 -0.1184  0.1897 -0.1585
11335W        W27144   4.098   2.953  15.327 -0.1070  0.1332  0.0165
11336W        W27145  13.619   2.941   3.490  0.2472 -0.1180 -0.0830
11337W        W27146  13.772  15.233   4.766  0.0054 -0.2296  0.1624
11338W        W27147  14.001   5.186   5.893  0.2800 -0.0019  0.0770
11339W        W27148   8.291  11.630  13.493  0.3512 -0.1474  0.1592
11340W        W27149   0.455  11.925   1.477  0.0302  0.1514 -0.0062
11341W        W27150   9.843  15.296   4.870  0.0487 -0.1797  0.2746
11342W        W27151   4.047   2.380   5.776  0.0067  0.1802  0.1700
11343W        W27152   5.534   0.055  16.556  0.1483 -0.2349  0.0825
11344W        W27153  12.880  12.551   5.987  0.3709  0.2098 -0.2388
11345W        W27154   0.941   3.013  12.473  0.0333 -0.0211  0.2415
11346W        W27155  15.098  14.074   4.197  0.0663 -0.2042 -0.0368
11347W        W27156  15.112  13.601   2.688  0.1360 -0.0769 -0.0074
11348W        W27157   3.425  16.357   4.952 -0.2011  0.1697  0.0831
11349W        W27158  14.950   7.036  12.616 -0.1157  0.1487  0.0845
11350W        W27159   6.818  15.444  15.413  0.2261  0.0052 -0.1252
11351W        W27160   0.435   8.594   2.301  0.0340  0.1885 -0.1818
11352W        W27161  13.112  11.336   1.305 -0.1248  0.0154 -0.0627
11353W        W27162  10.395   5.414   3.571 -0.2326  0.0744  0.0974
11354W        W27163   2.442   1.998  15.880 -0.1477  0.3359 -0.0104
11355W        W27164  13.627   6.571  13.931  0.0748  0.0720  0.2838
11356W        W27165  10.649  14.144  14.266 -0.4506  0.3003 -0.1741
11357W        W27166   4.672   9.406  12.272  0.1593  0.1678 -0.2961
11358W        W27167  12.323  11.347  11.945  0.0794  0.1496  0.1250
11359W        W27168   2.033   8.507  15.736  0.0482  0.3508  0.0426
11360W        W27169  15.411   1.720   0.620 -0.0550 -0.0845 -0.2753
11361W        W27170   9.485   9.559   3.303  0.1656 -0.0728 -0.3067
11362W        W27171   7.018  10.594  16.676  0.0037  0.1009  0.2539
11363W        W27172  13.546  12.518   4.402 -0.0255 -0.1291 -0.0691
11364W        W27173   0.559   4.394  14.098  0.0353 -0.1394  0.2574
11365W        W27174   3.229   2.696  12.931  0.2103 -0.2213 -0.0222
11366W        W27175  15.815   9.378  15.167  0.0208 -0.2221  0.0132
11367W        W27176   4.300   3.641  16.481 -0.1039  0.1207  0.2862
11368W        W27177  14.222  17.594   4.972  0.0795  0.1660  0.2306
11369W        W27178  17.045  15.200   1.637 -0.1380  0.1269  0.0373
11370W        W27179   4.714   4.392  13.606 -0.3027  0.1475  0.1017
11371W        W27180   2.129  13.735  12.523  0.0595 -0.0859  0.4807
11372W        W27181  16.019   3.946  15.521 -0.0330  0.0141  0.2059
11373W        W27182   9.544  10.386   2.189  0.1622 -0.2212  0.0412
11374W        W27183  11.546  10.420   3.136  0.0787 -0.1706  0.1885
11375W        W27184  12.412   5.680  13.798 -0.2532  0.0174 -0.1315
11376W        W27185  16.468  12.206   3.112  0.0209  0.2499  0.1699
11377W        W27186   6.153   7.931   1.234 -0.0335  0.1298  0.3534
11378W        W27187  11.217   2.584   4.869  0.2352  0.3531  0.1463
11379W        W27188  14.757   6.453   0.698  0.0532  0.0027 -0.1195
11380W        W27189   3.799  14.063   2.307  0.2752  0.2032  0.0368
11381W        W27190  10.470  17.459   4.470 -0.0001  0.0426 -0.3072
11382W        W27191   4.016  10.549   1.658 -0.0722 -0.2768 -0.0842
11383W        W27192  13.395   6.770  14.912 -0.3535 -0.1821 -0.0791
11384W        W27193   9.640   1.217  13.217  0.3492 -0.3512  0.0515
11385W        W27194   5.698  14.782   5.069 -0.1768 -0.3045 -0.1270
11386W        W27195  11.110   8.628  16.129  0.1015 -0.0687 -0.0792
11387W        W27196   1.419   7.214  13.412  0.2087 -0.3166  0.2023
11388W        W27197   6.742   5.745  13.050  0.3647  0.1252  0.3408
11389W        W27198   7.060   2.957   4.333 -0.1052 -0.1231  0.0948
11390W        W27199  10.172   1.655   6.229  0.1346 -0.0223 -0.1366
11391W        W27200   4.004   4.589  12.337 -0.1539 -0.0066 -0.0028
11392W        W27201  15.165   2.158   2.877  0.0211  0.0282  0.1134
11393W        W27202  10.841  15.152  14.791 -0.1525 -0.2066 -0.1580
11394W        W27203  14.969   1.661   2.808 -0.2243 -0.1243  0.1778
11395W        W27204  11.964  13.349   0.361  0.1805 -0.1108 -0.2946
11396W        W27205   9.945   8.668  13.950  0.2053  0.1890 -0.2860
11397W        W27206  15.818  14.778   1.990  0.0879 -0.3612 -0.1652
11398W        W27207   0.034   4.868   3.467 -0.0518  0.2809  0.1089
11399W        W27208   3.006  17.865   3.095 -0.0165  0.0237  0.2702
11400W        W27209  17.189  16.245  15.889 -0.0924  0.0700  0.3073
11401W        W27210   7.407  12.766  15.395 -0.1003  0.2137  0.2486
11402W        W27211   2.877   3.742  15.117 -0.0775 -0.0341 -0.0695
11403W        W27212  11.206  13.949  16.271  0.3331 -0.1525 -0.1842
11404W        W27213   3.834  13.466   0.046 -0.0436 -0.2389  0.2464
11405W        W27214   4.420   8.935   3.893 -0.0198  0.0247  0.0976
11406W        W27215   2.952  17.780   4.722  0.0430 -0.4465  0.3181
11407W        W27216   1.752  17.953   2.571 -0.0489 -0.1942  0.1880
11408W        W27217  15.186   8.472   5.212 -0.2705  0.1030 -0.1054
11409W        W27218  17.636   9.153  14.317  0.3281 -0.1686  0.2269
11410W        W27219  10.361  14.749  16.556  0.0648 -0.0099  0.0178
11411W        W27220   1.920  11.743   3.309 -0.0426  0.1698 -0.0272
11412W        W27221  13.892  13.934  15.892  0.2246 -0.2800  0.0739
11413W        W27222   1.523   5.471  12.332  0.3201  0.2381 -0.0906
11414W        W27223   1.692  16.895   1.535  0.0784 -0.1142 -0.0574
11415W        W27224  16.624   0.579   4.090  0.1922 -0.1502  0.0637
11416W        W27225  16.868   5.968   6.346  0.0543 -0.0088  0.4995
11417W        W27226  12.970   1.780   3.913  0.1035  0.1530 -0.2498
11418W        W27227   7.058  12.159   0.860 -0.1381  0.1340  0.0410
11419W        W27228   4.378   4.143  14.557  0.3336  0.1757  0.0485
11420W        W27229   2.894  16.746   3.860 -0.0501  0.0727 -0.1907
11421W        W27230   0.609   0.128   4.408  0.1661 -0.1043 -0.2282
11422W        W27231   6.588   4.536  16.392 -0.0916 -0.1774 -0.2674
11423W        W27232  11.453   8.549  11.703 -0.2370  0.0945 -0.2412
11424W        W27233  16.133  11.687   4.746  0.0566  0.1182 -0.0496
11425W        W27234  11.552   3.431   0.313  0.1742 -0.0122 -0.0179
11426W        W27235  13.124   3.471  11.765 -0.0892  0.0750 -0.3411
11427W        W27236  14.870  10.360   5.228  0.0519 -0.2258  0.3184
11428W        W27237   9.424  17.925   0.378  0.2055 -0.0680  0.3203
11429W        W27238  17.744  11.877   5.955 -0.0005 -0.0151 -0.2802
11430W        W27239   1.530  12.024   0.829  0.0392  0.0476  0.2885
11431W        W27240   3.888  12.296   0.383 -0.3576  0.0035 -0.1488
11432W        W27241   2.447  17.308  13.885  0.1892  0.2379 -0.5095
11433W        W27242  16.770   1.511   5.079 -0.1564 -0.2067 -0.1750
11434W        W27243  15.151  16.233   2.563  0.0998  0.0008  0.1427
11435W        W27244   0.448   2.071  11.152 -0.0700 -0.1880 -0.0661
11436W        W27245   6.693   3.714   6.397  0.1707 -0.2246  0.1892
11437W        W27246  12.908  10.518  13.433  0.1044  0.0431 -0.2712
11438W        W27247   3.713  15.820  11.397  0.1744  0.1111 -0.1325
11439W        W27248   2.188   9.122   1.872  0.2242  0.0213  0.2089
11440W        W27249   8.012   7.025   1.885 -0.0710 -0.0301  0.0440
11441W        W27250   8.345  10.966  16.391 -0.1892  0.1117 -0.2137
11442W        W27251  11.817   1.220  16.498  0.2042 -0.1438 -0.0549
11443W        W27252  16.022   8.538  16.263  0.0769 -0.1708 -0.1728
11444W        W27253   6.336  17.004   2.717  0.1180 -0.0224  0.1791
11445W        W27254   5.285   1.908  14.426  0.1321 -0.1838 -0.0511
11446W        W27255   2.744   4.584   2.419 -0.1122  0.3989  0.0896
11447W        W27256   7.961   9.403  13.463 -0.0073 -0.2347  0.2515
11448W        W27257   9.609  16.616  15.852  0.1497 -0.0790  0.0528
11449W        W27258   2.161  14.963   3.525 -0.0262 -0.0195 -0.0821
11450W        W27259   2.048  16.711   4.229 -0.3157  0.1781  0.1163
11451W        W27260   5.862   7.415  15.160  0.0218 -0.3407  0.0795
11452W        W27261  11.926   6.770  14.238  0.2611  0.0154  0.0428
11453W        W27262   7.867   4.856   0.865 -0.1929  0.2284  0.1487
11454W        W27263   8.475   9.307  15.806 -0.0103  0.0932  0.1192
11455W        W27264   1.876  13.964   3.977  0.0608  0.1059  0.0340
11456W        W27265   0.275   7.818  14.949 -0.2069  0.2482 -0.2820
11457W        W27266  10.416  10.765  14.435 -0.1418 -0.0991 -0.0347
11458W        W27267  10.709  14.026  16.120 -0.1192  0.1318  0.0822
11459W        W27268   0.281   2.278   1.143 -0.0812 -0.0316 -0.2447
11460W        W27269  10.499  16.473   5.356 -0.2151  0.3076  0.0292
11461W        W27270   2.648  17.249  15.218 -0.0718  0.1913  0.0750
11462W        W27271   2.227   0.519   1.582  0.1120  0.1174 -0.4067
11463W        W27272   7.505   1.694   1.557  0.0834 -0.1450 -0.0296
11464W        W27273  11.807   5.501   4.671  0.2400  0.1175 -0.3473
11465W        W27274  11.070  13.818   6.024  0.0363 -0.3699  0.0725
11466W        W27275   7.321  10.386   1.096  0.3782 -0.0295 -0.0435
11467W        W27276   4.837   8.771   2.491 -0.1343 -0.1166  0.1564
11468W        W27277   5.590   8.958  14.225  0.0065 -0.2465  0.0675
11469W        W27278  14.188   3.355  13.637 -0.2729 -0.1739 -0.1023
11470W        W27279   3.294  15.903  14.911 -0.2677 -0.5642  0.2100
11471W        W27280   2.326  12.972  16.167  0.0744  0.2911 -0.0461
11472W        W27281  11.222  17.339   1.769 -0.0911  0.0987  0.1486
11473W        W27282  16.634   9.072   5.209 -0.0816 -0.2376 -0.0822
11474W        W27283   7.260  17.251  13.154  0.1133 -0.1894  0.0153
11475W        W27284  11.985  15.932  12.379  0.0833 -0.0386 -0.2588
11476W        W27285   4.748   5.342   2.711 -0.4568 -0.3187 -0.1906
11477W        W27286  15.047   6.642  14.736  0.4988 -0.0251 -0.2016
11478W        W27287   3.591   7.087   5.101  0.2696 -0.2406  0.1162
11479W        W27288   3.984   4.156   0.944 -0.0960 -0.0988 -0.1170
11480W        W27289   5.221  15.046   2.966  0.2998  0.2358  0.0658
11481W        W27290  11.046   7.389   1.953 -0.0588 -0.0273  0.0190
11482W        W27291  10.381  16.276  12.568 -0.0060  0.0534  0.0666
11483W        W27292  16.773  14.517  16.402 -0.2448  0.2739 -0.0082
11484W        W27293   4.365   1.869  16.174 -0.0577 -0.2189 -0.1247
11485W        W27294   0.265  17.587  13.939  0.0121  0.0325 -0.3342
11486W        W27295   3.889   3.593   2.642 -0.0922  0.1366  0.2272
11487W        W27296  17.241   2.322  14.846  0.1033  0.0776  0.1453
11488W        W27297   6.781  16.581   3.419 -0.0246 -0.1983  0.1421
11489W        W27298   9.155  17.851   2.907 -0.0420 -0.0952 -0.0161
11490W        W27299   4.559   0.195   0.812  0.1105 -0.2613 -0.0078
11491W        W27300  14.173  17.768  16.134 -0.0529 -0.0402  0.2134
11492W        W27301  12.863  13.254   1.605  0.1202  0.1283 -0.1041
11493W        W27302  17.141   7.121   1.675  0.0673 -0.0360  0.1381
11494W        W27303   6.250  13.642  15.182  0.1855  0.1243 -0.2402
11495W        W27304   0.694  15.384  12.143  0.0539  0.2407 -0.1321
11496W        W27305   8.259  14.729  16.018 -0.1026 -0.1537  0.0566
11497W        W27306   2.480  12.268   1.751 -0.2473 -0.2360 -0.2103
11498W        W27307  14.672  11.165  13.693 -0.1116 -0.1745 -0.0858
11499W        W27308  17.490  14.877   3.452  0.1777 -0.2922 -0.1975
11500W        W27309  11.616   3.308   2.744 -0.1331  0.0249 -0.0618
11501W        W27310  11.952   8.629  11.705  0.1309 -0.0146 -0.1423
11502W        W27311  10.569   7.456   6.324  0.1239 -0.1613 -0.0306
11503W        W27312   6.117  16.709   0.983  0.0255  0.1182 -0.2557
11504W        W27313  17.658  12.179  15.618  0.2086  0.1636 -0.0229
11505W        W27314  14.751  14.192   5.238 -0.0446  0.1892 -0.0905
11506W        W27315   8.748   0.204   2.296  0.1258 -0.1483  0.2016
11507W        W27316  12.782  10.496   5.850  0.0393  0.1828 -0.4435
11508W        W27317   0.009   9.601  14.202 -0.0227  0.2570  0.3425
11509W        W27318   6.862   2.285   5.188  0.0346  0.1004 -0.1149
11510W        W27319   3.844  16.677   5.078 -0.0757 -0.0437  0.5052
11511W        W27320   0.656  10.303   0.647 -0.1918 -0.2372  0.0907
11512W        W27321  14.562  16.509   3.892 -0.1111  0.1562 -0.3925
11513W        W27322  15.001   1.377  11.698  0.0149  0.0951  0.2427
11514W        W27323   7.811   0.331  14.873  0.1432 -0.3580  0.0507
11515W        W27324  13.329  11.565  14.232  0.0749 -0.1077  0.4882
11516W        W27325  12.794   5.393   2.697  0.3665 -0.4025 -0.2491
11517W        W27326  11.340  12.677  16.453  0.0955 -0.1199 -0.0961
11518W        W27327   9.878  10.694   2.706 -0.1619 -0.1216 -0.0697
11519W        W27328   9.726   4.192   2.121  0.0501  0.4288  0.4559
11520W        W27329   6.032   9.093  15.422  0.0521  0.0147 -0.0281
11521W        W27330  15.088  12.742  11.977  0.0826 -0.1755  0.0674
11522W        W27331  10.031   5.132  12.588  0.0324  0.0541  0.2065
11523W        W27332   1.108   5.976  16.127  0.0521  0.0887  0.1864
11524W        W27333   5.585  15.544  12.992  0.0717  0.0808  0.0978
11525W        W27334   1.051  11.499  13.809 -0.1447  0.1095 -0.1400
11526W        W27335   9.883   4.503  13.832 -0.1377 -0.2246 -0.0127
11527W        W27336   0.855  14.021  12.208  0.0868 -0.3133 -0.1620
11528W        W27337  17.304   2.220  11.806 -0.1643  0.0202  0.0706
11529W        W27338  15.327  12.950  11.267  0.0047 -0.1594  0.0220
11530W        W27339   2.901  17.224  12.294 -0.2014  0.4254 -0.1134
11531W        W27340  10.774   0.943  11.867 -0.0506  0.1146 -0.1522
11532W        W27341  12.118  10.581  15.406  0.2916  0.0144 -0.0264
11533W        W27342   6.170  17.236  14.329  0.1576 -0.0595  0.0293
11534W        W27343   0.132   9.385   1.116 -0.0662  0.1063  0.0430
11535W        W27344   2.066  13.010  14.725 -0.0328  0.0910 -0.1862
11536W        W27345   0.254   0.921   4.656  0.1597  0.0023  0.0945
11537W        W27346  16.791  11.600  12.168  0.1000  0.0573 -0.4425
11538W        W27347   1.502   8.685   2.934 -0.1801 -0.3811  0.2330
11539W        W27348   0.358  10.501   4.501  0.1983 -0.1531  0.2963
11540W        W27349   7.803  15.723   0.563 -0.0529 -0.0135 -0.1263
11541W        W27350  12.652   4.012   2.002  0.0010  0.1569 -0.2151
11542W        W27351  12.705  14.510  12.511  0.0970  0.4089 -0.3050
11543W        W27352  14.559   0.388  12.868 -0.0884 -0.0743  0.0595
11544W        W27353   3.401  16.784   4.715 -0.3988  0.2114 -0.0195
11545W        W27354   1.137  15.875   4.699  0.3004  0.0596 -0.1405
11546W        W27355   5.288   0.368  13.928 -0.0424 -0.0118  0.0126
11547W        W27356   0.647   4.248   0.736 -0.0348  0.1918 -0.0709
11548W        W27357  15.901   3.435  15.454  0.1460  0.1606 -0.0102
11549W        W27358   2.707  11.549  14.920 -0.0537  0.1071  0.2730
11550W        W27359  14.838  11.676   1.390  0.0985 -0.2363 -0.2673
11551W        W27360  15.066   5.574   2.553 -0.2934  0.1185  0.0117
11552W        W27361  12.027  12.115   3.062 -0.0481  0.4158  0.0109
11553W        W27362  14.692  17.160  13.589 -0.2000 -0.0183 -0.1090
11554W        W27363   0.428   0.143  16.030  0.0880 -0.1109 -0.1000
11555W        W27364   3.274   3.762   1.619 -0.3162  0.0607 -0.1245
11556W        W27365   5.564   0.951   5.273  0.0294 -0.0334 -0.2155
11557W        W27366   7.721  13.499   5.188 -0.3480  0.2523 -0.2213
11558W        W27367  14.447   2.783   2.433  0.0952 -0.2747  0.2342
11559W        W27368   2.781  13.808  12.739  0.1209 -0.0546 -0.1276
11560W        W27369  12.910  11.914   4.441 -0.0254  0.1406  0.0289
11561W        W27370   9.804   8.930   3.611  0.1444 -0.1716 -0.0684
11562W        W27371   0.601   7.128   5.399 -0.0995 -0.1806  0.0717
11563W        W27372   8.958  13.429   0.480 -0.0073 -0.1293 -0.0085
11564W        W27373  11.989   4.926  13.812 -0.3449  0.1272  0.1826
11565W        W27374  17.431  12.203  14.265 -0.0268 -0.0652  0.0670
11566W        W27375  16.645   5.190  14.661 -0.2053  0.1589 -0.4244
11567W        W27376   1.658  11.977   0.285 -0.1806 -0.0071  0.1014
11568W        W27377   8.444   2.257  13.969 -0.0625  0.1480 -0.2196
11569W        W27378   5.004  16.379   4.070  0.0232 -0.2197  0.2262
11570W        W27379  13.881  14.301   2.850  0.1881 -0.0260 -0.1369
11571W        W27380  12.446  13.144   4.182  0.0131 -0.1651  0.1050
11572W        W27381  12.272   3.403   5.507  0.0465 -0.0536  0.3643
11573W        W27382  14.098   5.835   2.040 -0.2489  0.1610  0.1049
11574W        W27383   8.245   3.061   0.793  0.1795 -0.3986  0.1241
11575W        W27384   0.331   9.644   4.007 -0.0968  0.0128 -0.0810
11576W        W27385  13.317   2.741  15.333 -0.2271  0.0740  0.1904
11577W        W27386  16.023   3.416   3.189  0.0112 -0.1058 -0.3291
11578W        W27387   0.638  17.126  15.265  0.1327 -0.1115 -0.0261
11579W        W27388   1.915  15.822   2.411 -0.1925  0.2514 -0.1122
11580W        W27389   7.534   9.533   0.965 -0.2675  0.0963  0.2254
11581W        W27390  13.413   5.645   6.941 -0.0237  0.4611  0.1612
11582W        W27391   8.433   4.331   4.386 -0.2082 -0.0788  0.1009
11583W        W27392  10.561  16.842   0.051 -0.1055 -0.0194 -0.1656
11584W        W27393   1.670   8.349   1.650  0.1511 -0.4328 -0.1696
11585W        W27394  10.715  11.358   4.519  0.1592  0.0110  0.1887
11586W        W27395   6.031  12.553   4.116  0.1095 -0.0266 -0.0573
11587W        W27396   8.702   2.806   0.665  0.3801 -0.2419  0.4392
11588W        W27397   5.823   3.206   4.310 -0.1897 -0.0012 -0.1713
11589W        W27398  12.036   2.410  13.030  0.0683  0.1374 -0.2612
11590W        W27399  10.211   9.634   1.594  0.1729 -0.2389  0.0493
11591W        W27400   1.688   0.522   3.957  0.2700  0.4117 -0.0795
11592W        W27401   3.745  10.161  13.577  0.1710 -0.0141 -0.0151
11593W        W27402   1.573   4.930   1.670 -0.0469 -0.0612 -0.2691
11594W        W27403   3.996   6.154  16.573 -0.2067  0.1591 -0.0728
11595W        W27404  11.101   7.919   2.529  0.0607  0.1497 -0.0786
11596W        W27405   4.040  13.732  10.331 -0.0852 -0.2525  0.2950
11597W        W27406   5.228   3.028  14.470 -0.0519  0.0094 -0.0851
11598W        W27407  15.977   4.771   2.967  0.3118  0.0494 -0.0188
11599W        W27408  12.338   4.125  13.671  0.1980  0.0317 -0.0355
11600W        W27409  11.237   8.967  11.579 -0.2353 -0.2419  0.0659
11601W        W27410  14.531   9.959   2.879 -0.0770 -0.3193  0.0424
11602W        W27411   5.417   5.841   1.491 -0.1343 -0.3339 -0.0046
11603W        W27412  13.477   9.677  15.074 -0.2415 -0.2119  0.0970
11604W        W27413   9.826  10.958  15.766 -0.3347 -0.2316  0.0226
11605W        W27414  10.099  16.235  13.006  0.0940 -0.3906 -0.3558
11606W        W27415  12.947   1.954   3.027 -0.3350 -0.0716  0.0854
11607W        W27416  15.047  15.694   3.561 -0.0838  0.0715  0.1065
11608W        W27417   9.303  10.427  11.288  0.0556 -0.0964  0.2141
11609W        W27418   8.734  16.120  16.093 -0.1055  0.1641 -0.2780
11610W        W27419   5.895  10.841   0.283  0.2069 -0.1308 -0.2352
11611W        W27420   6.567  15.433   5.163 -0.1241 -0.2045  0.0861
11612W        W27421   5.190  13.459  12.275  0.1895 -0.0295 -0.2278
11613W        W27422  17.196   5.341   0.419  0.2611  0.2271 -0.1687
11614W        W27423   2.571  15.347   0.971 -0.1339 -0.0647 -0.0483
11615W        W27424  17.009  10.740  13.294  0.5184 -0.0931  0.0748
11616W        W27425  16.322  15.096   3.164 -0.0868 -0.0041  0.1000
11617W        W27426   5.408  12.168   3.603  0.1079 -0.0419  0.0537
11618W        W27427  12.909   5.509  12.697 -0.1517  0.2806  0.4077
11619W        W27428  14.720  13.244   1.423 -0.1819 -0.1283  0.1840
11620W        W27429  14.931   9.776   2.620  0.2632  0.2601  0.1387
11621W        W27430   2.017  15.598   5.964  0.2975 -0.2980 -0.0418
11622W        W27431   3.686   7.769  12.182  0.2740  0.1276  0.1678
11623W        W27432  16.800   6.862   2.167 -0.1023  0.1780 -0.2017
11624W        W27433   0.484   0.088  13.002  0.1005 -0.1173  0.1039
11625W        W27434  11.282   8.934   1.397 -0.0994  0.1735 -0.3666
11626W        W27435   2.990  10.530   5.005 -0.1306  0.1778 -0.3311
11627W        W27436  10.147  15.270   1.753 -0.2539  0.1736 -0.0353
11628W        W27437  11.583  15.630   1.715  0.0342 -0.0120  0.2460
11629W        W27438   1.909   3.209   1.364  0.2777  0.0198 -0.3064
11630W        W27439  13.618   2.491  12.351 -0.3291  0.0071 -0.3140
11631W        W27440   4.878  11.544   1.007 -0.2108  0.1998 -0.0364
11632W        W27441  13.317   1.950  13.220 -0.1704  0.1174  0.0060
11633W        W27442  14.022   8.773  12.787 -0.1280 -0.1356 -0.2034
11634W        W27443   5.998   2.696  12.240 -0.3321  0.1684  0.1128
11635W        W27444   3.179   2.100  11.491  0.2548  0.2194  0.1745
11636W        W27445   7.427   6.774   3.636  0.4426 -0.1566 -0.1200
11637W        W27446   2.039  17.694  14.545 -0.3224  0.0282  0.2386
11638W        W27447   7.169   1.371  14.565 -0.0973  0.3353  0.0048
11639W        W27448  15.757  15.004   5.595 -0.1779  0.0516  0.1950
11640W        W27449  15.618   0.681  14.858 -0.0725 -0.1187  0.2084
11641W        W27450   2.542   8.434  13.177  0.1188  0.0852  0.0622
11642W        W27451   9.059  13.737  13.612  0.2546 -0.0333  0.0418
11643W        W27452   1.804  16.852   2.152 -0.0255  0.0895 -0.2636
11644W        W27453   2.827  12.589   4.116  0.0409  0.1606  0.1149
11645W        W27454   2.446  10.417  13.753  0.3139  0.3667  0.0210
11646W        W27455  16.827   3.236  16.368 -0.2556 -0.0250 -0.0969
11647W        W27456  11.046  16.813   1.907  0.0481 -0.0900  0.0166
11648W        W27457   9.452  16.337   2.531  0.0187 -0.0992 -0.0528
11649W        W27458   9.220   8.802   5.337 -0.2497 -0.1333 -0.0785
11650W        W27459   3.467   9.007   3.442  0.1274  0.0483  0.0719
11651W        W27460  12.142  16.278   4.800 -0.2553 -0.0462 -0.0481
11652W        W27461   2.930  11.308   0.190  0.0169 -0.0557  0.1489
11653W        W27462   9.926   4.588  14.347  0.0178  0.1055 -0.0951
11654W        W27463   7.491   1.577  11.976  0.2654  0.1774 -0.1443
11655W        W27464   7.984  13.739   2.540 -0.1956  0.0267  0.1950
11656W        W27465  10.357   2.584  16.556 -0.0478  0.1172 -0.1184
11657W        W27466   6.897   1.330   5.386  0.0903 -0.0249  0.2067
11658W        W27467   7.291   7.801   3.486 -0.1327 -0.0764 -0.0249
11659W        W27468  10.187   4.319   6.093  0.1632  0.0996 -0.1201
11660W        W27469   0.976  11.901  11.353  0.1348 -0.0534 -0.1489
11661W        W27470  15.786   3.102   1.961 -0.1277  0.0157  0.1421
11662W        W27471   6.642   8.515  14.938  0.0009  0.1531  0.0568
11663W        W27472   3.642   1.356   4.648 -0.0136  0.0505 -0.0478
11664W        W27473  16.676   0.022  16.137 -0.2124 -0.1489 -0.0297
11665W        W27474   8.009  16.216  12.182  0.1612  0.2188 -0.0364
11666W        W27475  14.936   0.608   5.681 -0.4023  0.1455 -0.1294
11667W        W27476   7.171   4.788   1.237 -0.0187  0.0278 -0.0023
11668W        W27477  15.402  16.935  14.816 -0.2502  0.0512  0.2626
11669W        W27478  15.339  14.050  16.700 -0.2079  0.1698  0.2322
11670W        W27479   5.113  13.860   3.046  0.3196 -0.0397  0.0369
11671W        W27480  14.388   6.072   0.871 -0.2517 -0.0975 -0.0956
11672W        W27481   4.563  14.893  13.629  0.1491 -0.1575  0.1292
11673W        W27482  14.260   7.334  15.556  0.0994  0.0817 -0.0992
11674W        W27483  14.899   3.398   2.468 -0.0687 -0.2713  0.2444
11675W        W27484   2.909   2.536  13.733  0.0044 -0.0647  0.0203
11676W        W27485  16.849   4.448   0.494 -0.0565 -0.0313  0.3170
11677W        W27486   0.061   9.267  13.067  0.1478  0.0692 -0.0648
11678W        W27487   6.178  12.152  16.605 -0.1833 -0.1484 -0.3095
11679W        W27488   3.124   6.951  14.890  0.0035  0.2306  0.1079
11680W        W27489   7.295  16.464  12.878 -0.0767 -0.3259 -0.0091
11681W        W27490  17.323   0.243   1.015 -0.2087  0.0467 -0.3629
11682W        W27491  14.595  16.496  12.820 -0.0570 -0.0601 -0.0662
11683W        W27492  12.323  11.873   6.517 -0.0995  0.2578  0.0162
11684W        W27493  14.427   6.069  14.049 -0.0170 -0.0666 -0.1836
11685W        W27494  13.259   0.506  16.360 -0.1401  0.0327  0.1083
11686W        W27495   0.241  17.847   5.073  0.0641  0.2613  0.1614
11687W        W27496  15.432   1.677  11.497 -0.2463 -0.3301 -0.1782
11688W        W27497  13.654   2.863  10.577  0.1943 -0.0652  0.2493
11689W        W27498   6.284   1.956   3.492 -0.1911 -0.0016  0.1936
11690W        W27499  11.113  12.201  13.056 -0.1055 -0.1449 -0.2979
11691W        W27500   3.648   8.265   0.083  0.0108 -0.1890 -0.0618
11692W        W27501  15.531   0.108   0.537 -0.0179  0.0726 -0.0470
11693W        W27502   6.946   6.570  13.420 -0.2287 -0.2889 -0.0332
11694W        W27503   1.981   1.598  14.915 -0.0689 -0.0948  0.1703
11695W        W27504   7.726   9.271  14.392 -0.1137 -0.0644  0.0522
11696W        W27505  17.883   6.021  12.638 -0.1100 -0.1989 -0.2379
11697W        W27506   1.304  16.717   5.347  0.0067 -0.1761  0.0025
11698W        W27507   1.371  12.084   3.786 -0.0073 -0.0343 -0.1961
11699W        W27508  12.835   2.911  16.589 -0.0408 -0.1598 -0.0656
11700W        W27509   1.607   3.127  11.675  0.2067 -0.0410  0.1927
11701W        W27510  13.279   1.802   4.660  0.2192 -0.2435  0.0465
11702W        W27511  14.786   4.578   5.704 -0.1482  0.0643  0.1096
11703W        W27512  14.952   0.403   0.293 -0.0690 -0.1238  0.1096
11704W        W27513   9.178  10.307   4.810 -0.0519  0.1478 -0.0644
11705W        W27514  12.285  14.439   1.525 -0.0403  0.2396 -0.2238
11706W        W27515  15.200   8.748  11.619  0.1987  0.1208  0.0307
11707W        W27516   2.899   2.001  13.426 -0.0277 -0.1676  0.1884
11708W        W27517   3.198   6.439  14.125 -0.1200  0.0185 -0.1164
11709W        W27518   5.541   6.319   1.431 -0.1010  0.0712  0.2095
11710W        W27519  16.064  11.172  11.996 -0.3474 -0.0036 -0.3531
11711W        W27520  12.041   5.166   4.916 -0.0668 -0.1436 -0.0604
11712W        W27521   2.597   3.581  14.671  0.1809  0.0463  0.0583
11713W        W27522   4.398   5.560   0.604  0.4130 -0.0232 -0.1169
11714W        W27523   2.327  16.550   2.835 -0.0645 -0.1767 -0.3433
11715W        W27524   1.684   2.771   1.347 -0.1961 -0.0873 -0.3838
11716W        W27525   2.300   3.158  16.545 -0.2583 -0.1669 -0.2379
11717W        W27526   6.902   8.651  12.474  0.2874  0.1778 -0.1841
11718W        W27527   1.722  13.478   3.680 -0.0431  0.1459 -0.0141
11719W        W27528   3.979  12.553  11.952  0.1688  0.2027  0.0942
11720W        W27529   9.098  14.593  13.312  0.0339 -0.0153  0.3143
11721W        W27530  14.017   5.732   2.525 -0.4125  0.0076  0.1561
11722W        W27531  15.345   1.414   3.768  0.0794  0.0815 -0.2571
11723W        W27532   4.906   7.205  13.568 -0.1947  0.1659 -0.3999
11724W        W27533  12.581  11.757   3.450  0.0491  0.1821  0.1265
11725W        W27534   1.770  13.314  15.837  0.0603  0.2437 -0.0729
11726W        W27535  14.342   8.621   0.303  0.2399 -0.2016 -0.0068
11727W        W27536   3.488  16.000   2.068  0.0453 -0.0840 -0.0422
11728W        W27537   2.458   5.161   0.976 -0.1419  0.0918  0.0982
11729W        W27538   2.472   2.359  15.417  0.1432 -0.2263 -0.0402
11730W        W27539   5.005   5.596  10.540 -0.1976 -0.2268 -0.1458
11731W        W27540   9.705   5.902  14.714 -0.2955  0.0377 -0.1250
11732W        W27541  12.767  16.932  12.821 -0.0305 -0.2775  0.1905
11733W        W27542  12.876   6.866  12.746  0.1081 -0.1132 -0.1009
11734W        W27543  12.629   9.387  15.801  0.1705 -0.0429  0.2072
11735W        W27544  11.023   9.965  13.690 -0.0395  0.1650  0.4495
11736W        W27545  17.567  17.381  14.354 -0.1228 -0.0740  0.2306
11737W        W27546   9.540   7.580   0.874 -0.1325  0.0739  0.2474
11738W        W27547   8.121   7.815  12.363 -0.0347 -0.1416  0.1239
11739W        W27548   7.758   3.476  11.789  0.4640  0.0055 -0.3842
11740W        W27549  15.541  16.813   0.897  0.4381 -0.1446  0.0406
11741W        W27550  10.640  17.926   4.479 -0.0196 -0.3148  0.2329
11742W        W27551  10.626  16.159   2.771  0.0209 -0.0191 -0.2633
11743W        W27552  14.487  10.776   1.827 -0.1907  0.1097  0.0850
11744W        W27553   9.603  13.695  14.331 -0.2071 -0.3212 -0.0322
11745W        W27554   4.481   1.143  12.756  0.0385 -0.1257 -0.1674
11746W        W27555   5.231  13.884  11.178 -0.1577  0.0966  0.0359
11747W        W27556   6.779   0.067  15.958  0.1571 -0.0856  0.1873
11748W        W27557  17.271   9.461  13.062  0.0044  0.2402 -0.2055
11749W        W27558   5.986   5.742   2.354 -0.0012 -0.1130 -0.2236
11750W        W27559  11.631  10.635  14.981 -0.1787 -0.0047  0.1312
11751W        W27560  10.953   8.114   0.739  0.3640 -0.1335  0.0116
11752W        W27561   1.167  14.909   3.693 -0.1876  0.0210  0.0859
11753W        W27562   7.407   0.471  13.153 -0.3294 -0.0486 -0.3459
11754W        W27563  10.354   9.570  11.493 -0.0567 -0.2152 -0.1244
11755W        W27564   5.582  17.345  13.711 -0.1502  0.0653  0.1440
11756W        W27565   7.476  15.294  14.296  0.1536 -0.1655 -0.0291
11757W        W27566   5.896   4.394   5.131  0.1386  0.3326 -0.0195
11758W        W27567   5.923  10.085   2.959  0.0238 -0.0461 -0.1636
11759W        W27568   3.283   4.326  16.154  0.0639 -0.1213  0.0683
11760W        W27569   7.505  17.266   6.273  0.1973  0.1015  0.0065
11761W        W27570  11.593   8.916  11.964 -0.1699  0.2002 -0.1161
11762W        W27571   4.489   3.359  12.708  0.1223  0.0928  0.0893
11763W        W27572  13.990  17.298  16.270  0.0011  0.0666 -0.2157
11764W        W27573   5.923   8.130   3.083  0.0021  0.1553  0.1025
11765W        W27574  14.374   3.192  14.707  0.0626 -0.1153 -0.0287
11766W        W27575   3.948  15.156   5.446 -0.0202  0.3598 -0.2226
11767W        W27576   8.710  10.133   2.821  0.2887  0.0035  0.2601
11768W        W27577  10.303  10.494   5.506  0.0524 -0.1524  0.1287
11769W        W27578  14.598   7.598  15.282  0.1124 -0.1303  0.0196
11770W        W27579   6.603   3.222  13.229 -0.0417  0.0343  0.0317
11771W        W27580  13.717   4.562   2.046  0.0437  0.2066  0.0479
11772W        W27581   8.300   0.998  14.086 -0.1574  0.2541 -0.1251
11773W        W27582   1.719  17.641   3.688  0.1459 -0.1073  0.0603
11774W        W27583  11.188  14.615   4.039  0.1375  0.2693 -0.2849
11775W        W27584   2.460   7.618  13.374 -0.1516  0.1294  0.1771
11776W        W27585   9.463   0.857   6.172  0.0088 -0.2514  0.0121
11777W        W27586   8.214  10.598  16.015  0.0995  0.0728 -0.1273
11778W        W27587   8.302  15.394   2.674 -0.2305 -0.1966  0.0119
11779W        W27588   5.015  14.294   2.328  0.1680  0.2296 -0.2969
11780W        W27589  16.280  16.303   4.374  0.1677  0.2214  0.3484
11781W        W27590  13.367   2.874  13.050  0.2347  0.2409 -0.1694
11782W        W27591   4.938   3.932   3.627  0.1244 -0.1264  0.0107
11783W        W27592  11.393   3.240  14.458  0.0158  0.2380  0.0483
11784W        W27593  13.395  16.812  14.647 -0.1251 -0.5175 -0.1501
11785W        W27594   7.535   0.921   0.624  0.0022 -0.2615  0.1112
11786W        W27595   0.567   3.239   4.965  0.2073 -0.0221  0.0442
11787W        W27596  17.172   0.185   4.631 -0.0377  0.0484  0.3333
11788W        W27597  10.532   8.787   0.568 -0.1777  0.2773  0.2765
11789W        W27598   9.391  16.843   1.887 -0.2773  0.1355  0.0765
11790W        W27599   1.559   0.196   4.607 -0.0971 -0.1166 -0.0590
11791W        W27600   3.227   5.112  16.454 -0.0729 -0.0190  0.2591
11792W        W27601   6.761   6.378   5.375  0.2414 -0.2574 -0.0376
11793W        W27602   1.934   0.275   1.238  0.0229 -0.1116  0.1710
11794W        W27603  10.550  16.609  14.642 -0.1570 -0.2219 -0.1920
11795W        W27604  17.380  12.707   3.035  0.0363 -0.4939  0.0036
11796W        W27605  11.943  11.203  14.676 -0.0555  0.1873  0.1172
11797W        W27606   8.160   5.061  13.671 -0.1848 -0.0410  0.0440
11798W        W27607  14.037  10.861   2.176 -0.0056  0.0405  0.2785
11799W        W27608  17.121  17.232   2.753  0.3548  0.0424  0.1424
11800W        W27609  13.676   2.390   0.326  0.0535 -0.2462  0.3566
11801W        W27610  15.019   3.303   3.917 -0.1189  0.0578 -0.1791
11802W        W27611   6.657   7.374   4.302  0.2793  0.2703  0.0431
11803W        W27612   3.738  13.457  15.267  0.2101  0.0538 -0.3177
11804W        W27613   9.357   6.983  15.136  0.1035 -0.2163 -0.2804
11805W        W27614   2.887  12.991   1.118  0.2869 -0.0935  0.0227
11806W        W27615   9.721  16.883   5.686  0.0581  0.1736 -0.2622
11807W        W27616  11.916  14.054  14.393  0.3340 -0.4016  0.1225
11808W        W27617   7.778   8.337  16.229 -0.0349  0.1916  0.2685
11809W        W27618   6.132  16.009  16.612  0.0700 -0.0669 -0.2245
11810W        W27619   2.829   4.169  14.693 -0.2050  0.3923 -0.0473
11811W        W27620  13.867  17.269   5.066  0.0526 -0.2585 -0.1251
11812W        W27621  12.838  12.447   4.124  0.0166  0.1125  0.0739
11813W        W27622  12.957   4.845  10.861 -0.4161 -0.2197 -0.0098
11814W        W27623  10.436  12.466  11.273 -0.0869  0.2308  0.2002
11815W        W27624   1.489   6.603   4.472  0.1161  0.1734  0.0278
11816W        W27625   9.617   6.668  11.736 -0.2828  0.2610  0.2416
11817W        W27626   2.848   6.668  11.152  0.1506  0.0397  0.1280
11818W        W27627  14.459   5.503   3.840 -0.0157 -0.0876 -0.2709
11819W        W27628  14.294  15.632  13.268 -0.1978 -0.1938  0.2755
11820W        W27629  10.820  16.689  11.724  0.2206 -0.1137  0.1490
11821W        W27630   6.436  17.508   2.674  0.2727 -0.0499  0.1094
11822W        W27631  11.130   1.002   3.911  0.3414  0.1174  0.1041
11823W        W27632  12.336  16.619  15.249 -0.0511 -0.0707 -0.2257
11824W        W27633  17.924  10.282  12.176  0.2092  0.2376  0.2934
11825W        W27634  15.586  10.097   0.477 -0.0046 -0.4431 -0.1945
11826W        W27635   0.845  11.857   1.122  0.2220  0.6382  0.0770
11827W        W27636  16.484  14.851  15.369  0.0167 -0.1077  0.2257
11828W        W27637   8.392  12.748   2.550 -0.0269 -0.2279 -0.1801
11829W        W27638   0.132   5.347  14.885 -0.0416 -0.1524  0.0478
11830W        W27639  13.804   6.741   5.032 -0.0166 -0.0585 -0.0738
11831W        W27640  11.237  14.266  14.858 -0.0335  0.1722  0.2119
11832W        W27641  11.861  14.210   4.673  0.1158  0.0458 -0.0584
11833W        W27642  15.416  15.650   0.752 -0.1337 -0.1425 -0.0702
11834W        W27643  16.587   3.964  11.436  0.1881  0.2094  0.1534
11835W        W27644   2.229   9.055   3.068 -0.0758  0.0079  0.1328
11836W        W27645  15.499   7.928  11.841 -0.0001 -0.1862 -0.2316
11837W        W27646   2.588   8.995  10.955 -0.1511  0.1040 -0.3044
11838W        W27647  16.637  12.167   2.003 -0.1518  0.1395 -0.0482
11839W        W27648  11.868   4.456  13.965 -0.2071  0.1649 -0.0610
11840W        W27649  14.133  16.384  12.761 -0.0066  0.0190  0.2711
11841W        W27650  13.738   2.503  15.603 -0.0662  0.1429  0.2276
11842W        W27651  12.567   5.991  16.133 -0.0352  0.2162 -0.0950
11843W        W27652  12.149  17.617   5.905  0.0792 -0.1525 -0.0415
11844W        W27653   5.405   3.536  10.331  0.1156 -0.2631  0.0126
11845W        W27654   3.389   5.615  12.891 -0.2691 -0.0178  0.0704
11846W        W27655  17.057   4.057   4.147 -0.1639  0.1328  0.0812
11847W        W27656   7.423   5.400   5.432  0.0845  0.2430  0.1257
11848W        W27657   3.365   4.721  11.757  0.0713  0.1505  0.2027
11849W        W27658   7.202   6.056  13.331  0.0478  0.2356  0.1239
11850W        W27659  10.113  10.512  13.695  0.2436 -0.0835  0.2405
11851W        W27660  15.835   3.329   2.422  0.1353 -0.1797 -0.2190
11852W        W27661   7.105   1.674  10.937 -0.0811 -0.0643 -0.1292
11853W        W27662   9.355  14.719   2.870 -0.2789  0.0842 -0.2808
11854W        W27663  13.194  12.967  16.492  0.0187  0.0261 -0.0382
11855W        W27664  17.372  10.099   4.380  0.3604 -0.0683  0.1023
11856W        W27665  16.370  10.931   1.589 -0.2095  0.1196 -0.2807
11857W        W27666   7.026  13.766  13.009  0.0091  0.2033 -0.0874
11858W        W27667   8.236   3.791   0.796  0.0319 -0.2179 -0.0131
11859W        W27668  15.451  10.581   1.532 -0.1854  0.3972  0.0140
11860W        W27669   2.624   6.180   0.064 -0.1794  0.0617  0.1935
11861W        W27670   9.846   9.003   2.069 -0.3452  0.1136 -0.0679
11862W        W27671   1.625  17.713  15.509  0.1317 -0.0168  0.0296
11863W        W27672   3.302   7.946   3.989  0.0638  0.0975  0.0114
11864W        W27673   3.821   0.476   3.490 -0.3779 -0.0068  0.2469
11865W        W27674   4.641  12.496   4.130 -0.0623  0.2680  0.3256
11866W        W27675   0.036  14.984  16.401  0.1060  0.1321 -0.3022
11867W        W27676  15.001  17.117  12.410 -0.2189 -0.0461  0.1680
11868W        W27677  15.956   3.599   5.628  0.0198  0.1496  0.0202
11869W        W27678  10.255  13.479   4.189 -0.3055 -0.2848 -0.0207
11870W        W27679  10.396  10.105   1.070 -0.0798 -0.2260  0.4307
11871W        W27680  10.535   3.779  13.877 -0.0402  0.2789 -0.0888
11872W        W27681   5.712   7.879   5.791 -0.0125 -0.1210  0.0856
11873W        W27682   5.734   6.710  12.992 -0.2971 -0.1879  0.1066
11874W        W27683   8.892   6.682  11.221 -0.0445 -0.0714  0.0653
11875W        W27684   7.496   2.938  12.445  0.1301  0.2449  0.1619
11876W        W27685   7.802  14.160  13.030 -0.0668  0.1115 -0.2859
11877W        W27686  16.809   3.065   3.961  0.0208  0.1469  0.0310
11878W        W27687  11.055   3.084  12.044  0.0197  0.1270 -0.1827
11879W        W27688   9.316   8.612   0.879  0.1389 -0.1735 -0.3788
11880W        W27689   7.854  10.213   4.344 -0.2316  0.1495 -0.1496
11881W        W27690   5.917  12.960   1.351 -0.0552 -0.1330  0.0738
11882W        W27691   6.773  17.073  14.766  0.0425 -0.1801  0.0395
11883W        W27692   9.838  16.555   4.175  0.0760  0.2106 -0.1508
11884W        W27693   3.491   3.705  11.751 -0.0387 -0.3210 -0.0215
11885W        W27694   9.941  15.405  11.837 -0.4978  0.1911  0.0237
11886W        W27695  16.903  12.776  14.955  0.3582 -0.0634  0.1245
11887W        W27696   6.741  15.473   4.278  0.0363 -0.1478 -0.0505
11888W        W27697  15.771  12.683   2.923 -0.1781  0.1431  0.0271
11889W        W27698   8.657   1.256   1.269 -0.2103 -0.1458 -0.3535
11890W        W27699   2.190   0.635  16.086 -0.0202  0.1655 -0.2038
11891W        W27700  10.789  11.357  16.036  0.0237  0.1342  0.0388
11892W        W27701  10.950   4.711   3.212  0.1076  0.2397 -0.0438
11893W        W27702   3.230  17.155  10.332 -0.0156 -0.0375 -0.0736
11894W        W27703  11.651   5.974   1.181 -0.2987 -0.1546 -0.2355
11895W        W27704  12.785   4.080   0.907 -0.3202  0.0749  0.0584
11896W        W27705  13.416   6.908  12.667  0.3472 -0.2044  0.0158
11897W        W27706   3.502  12.812  15.481  0.2450  0.1880 -0.3340
11898W        W27707   4.620   5.295   5.005  0.0790 -0.1458  0.0305
11899W        W27708  15.270   3.277   0.640 -0.1645 -0.0344 -0.3444
11900W        W27709  11.217   2.873  14.234  0.1256  0.0623 -0.1358
11901W        W27710   0.611   3.880   2.516 -0.0014  0.1568  0.0296
11902W        W27711   8.006   9.061  13.038  0.0678 -0.1233 -0.1098
11903W        W27712  14.426  13.541   1.647 -0.0193 -0.3396 -0.1229
11904W        W27713  10.020   2.928  14.919  0.0207  0.1591  0.2535
11905W        W27714   5.668  16.359  15.189 -0.2317 -0.1097 -0.0622
11906W        W27715  13.643  12.661  14.473 -0.0017 -0.4067 -0.1259
11907W        W27716  15.120  16.351   3.634 -0.3102  0.1754 -0.0554
11908W        W27717  17.745   8.463  15.495 -0.0596 -0.2871 -0.0165
11909W        W27718  17.766  10.896   3.132 -0.2059  0.2041 -0.1148
11910W        W27719  11.932  16.460   2.870 -0.3169  0.0396  0.0227
11911W        W27720  10.482  17.158   0.887 -0.0722  0.0191  0.1743
11912W        W27721   9.335   0.023   3.477 -0.0719  0.1334 -0.2566
11913W        W27722  10.568   2.430   5.977  0.0178 -0.0350  0.0071
11914W        W27723   3.232   6.328  10.880  0.2226  0.0140  0.0161
11915W        W27724   3.292  10.793   4.028 -0.2053  0.1188  0.0459
11916W        W27725   4.198  10.241   3.052 -0.2910  0.1364 -0.0403
11917W        W27726  12.081   7.242   3.605  0.3959  0.0618  0.2745
11918W        W27727   1.925  14.864   4.694 -0.0175  0.1586 -0.1301
11919W        W27728   0.270  10.081   4.756 -0.3205 -0.1582  0.0169
11920W        W27729  12.897   7.357  12.831  0.3767 -0.2223 -0.0115
11921W        W27730   9.463  15.646   3.175  0.0529 -0.1823  0.0284
11922W        W27731   5.863  15.607   4.560 -0.0073 -0.3511 -0.3234
11923W        W27732  15.348   2.036   0.156 -0.1204  0.0352  0.0792
11924W        W27733   1.360   2.969  12.110  0.2607 -0.1986 -0.1573
11925W        W27734   2.783   5.215   3.484 -0.1126 -0.0033 -0.1216
11926W        W27735   1.519  10.623   0.855  0.0972 -0.1541 -0.0946
11927W        W27736   8.902   8.446   0.441  0.0375 -0.0721 -0.0815
11928W        W27737   1.223   7.656   5.635 -0.0069  0.0968 -0.1241
11929W        W27738   9.731   7.263   1.277 -0.3010  0.1992 -0.1346
11930W        W27739   1.354   1.096  16.051 -0.0672  0.3032  0.0516
11931W        W27740  11.509   5.038  13.155 -0.1484 -0.0671 -0.2626
11932W        W27741   3.527   2.279  12.440  0.2298 -0.1209 -0.0574
11933W        W27742   4.376  17.311  16.250 -0.4595  0.0070  0.0370
11934W        W27743   0.515   5.475   2.480 -0.0290  0.0385  0.1093
11935W        W27744   2.416  11.042   5.622  0.0528  0.1885 -0.1353
11936W        W27745   1.655   8.630  10.687  0.1159  0.0691 -0.1534
11937W        W27746  13.195  12.549   0.565 -0.1145 -0.0428  0.0916
11938W        W27747  10.921  16.306   1.939  0.3747  0.0130  0.1163
11939W        W27748  12.370  17.906   5.089  0.1469  0.1736 -0.3113
11940W        W27749  10.086   5.662   3.928 -0.0035  0.0866  0.0926
11941W        W27750  17.759  10.880  13.800  0.0312  0.0700  0.1634
11942W        W27751  11.031  14.422   2.081  0.0980 -0.0858 -0.3340
11943W        W27752   5.996   1.212   2.283 -0.1813  0.5368 -0.3489
11944W        W27753   5.553   9.016   4.733  0.0446  0.1019  0.1874
11945W        W27754   5.490  15.849   5.727 -0.2035  0.0396  0.0271
11946W        W27755   5.032  10.229  11.060 -0.3770  0.0783  0.2289
11947W        W27756  13.373  14.730  14.287 -0.2950 -0.1902 -0.0944
11948W        W27757  17.460   4.626  13.733 -0.3744  0.2088  0.2937
11949W        W27758  10.352   5.291   1.464  0.1319 -0.0264 -0.0280
11950W        W27759   6.418  15.875  15.171 -0.0909 -0.0697 -0.0076
11951W        W27760   2.464  12.221   4.493 -0.0274  0.0304 -0.1054
11952W        W27761   8.895  10.824   1.107  0.0228 -0.2941 -0.0640
11953W        W27762   7.507  14.629   2.381 -0.0201 -0.0361 -0.0239
11954W        W27763   8.830   3.320   4.050  0.0251 -0.0953  0.5491
11955W        W27764   6.199  13.386  16.387 -0.0118  0.0446 -0.0556
11956W        W27765   8.399   8.217   5.378  0.0344  0.0277 -0.0092
11957W        W27766   7.570  11.422   2.657 -0.0783  0.1200  0.1657
11958W        W27767  16.313   3.679   2.024  0.1176  0.0499 -0.3489
11959W        W27768  10.944  10.788  14.550  0.0789 -0.0211 -0.2774
11960W        W27769   1.179  16.822   0.039  0.0230 -0.2874  0.1420
11961W        W27770  10.537   2.865   4.429  0.1349 -0.2643 -0.1041
11962W        W27771  14.885   6.777  16.478 -0.2053  0.0527 -0.0836
11963W        W27772  13.098   0.817  13.396  0.0751 -0.3118 -0.1386
11964W        W27773  15.497   9.996   2.105 -0.0359 -0.2633 -0.2271
11965W        W27774  12.077   4.103   0.074 -0.2809 -0.1490 -0.0777
11966W        W27775   8.523   9.728   3.876 -0.1132  0.4392 -0.3622
11967W        W27776  12.510  12.434   0.116 -0.2309  0.0829  0.0974
11968W        W27777  15.412  12.841  15.039  0.1468  0.1353 -0.0336
11969W        W27778   6.786   9.113  12.056  0.0926 -0.0714  0.3960
11970W        W27779  12.039   3.212   4.478  0.2626  0.0649 -0.0361
11971W        W27780   8.228   0.348  14.562 -0.2056  0.3016  0.4407
11972W        W27781   3.042   0.320   4.647 -0.1856 -0.0174 -0.0729
11973W        W27782  13.515   5.007  16.010 -0.0645 -0.1054  0.4871
11974W        W27783   8.249  11.869   3.194 -0.1927 -0.1592 -0.0762
11975W        W27784   0.958  15.931  13.316  0.1308 -0.0114  0.0843
11976W        W27785   1.831   8.484  15.252 -0.1584 -0.1612 -0.2154
11977W        W27786  14.008   8.212   5.251  0.1156  0.1275 -0.1347
11978W        W27787   0.696  14.122  11.730  0.1703 -0.0239 -0.0681
11979W        W27788   5.041   0.050  11.569  0.0556  0.1776 -0.0941
11980W        W27789   9.199  15.616   5.101 -0.1176  0.1404  0.0496
11981W        W27790  11.803   0.979   2.933 -0.1809  0.1738  0.2471
11982W        W27791  15.866   6.849  11.641  0.0853 -0.0779  0.0709
11983W        W27792  10.337  11.157   0.699 -0.0122 -0.2286  0.2311
11984W        W27793  10.700   6.195  15.634  0.2182 -0.2491 -0.2364
11985W        W27794  13.023  10.215   4.387 -0.1224  0.2148  0.0933
11986W        W27795  15.669  16.482   2.649 -0.1079 -0.1731  0.0947
11987W        W27796   2.704  10.070  11.872  0.2389  0.1203 -0.1366
11988W        W27797   5.788   3.759  16.426  0.2232  0.0621 -0.0282
11989W        W27798   8.959  16.542   1.728  0.2048 -0.2666  0.0042
11990W        W27799   4.989   9.037   4.108  0.2742  0.0319 -0.1551
11991W        W27800  15.349  17.675   5.595  0.1197  0.2452 -0.5196
11992W        W27801  11.695  17.865   3.075 -0.1807 -0.0362 -0.1013
11993W        W27802   8.716   6.904  14.476  0.1541  0.1138  0.1924
11994W        W27803   6.919  15.502   1.813 -0.0583 -0.1023 -0.0501
11995W        W27804   1.862   4.199  16.691 -0.1822 -0.1992  0.1842
11996W        W27805   6.285   7.401  16.068  0.1149 -0.4411 -0.0532
11997W        W27806   5.888   0.741   2.413 -0.1133 -0.0792  0.1574
11998W        W27807   6.328  11.885  11.514  0.2616  0.1462 -0.0414
11999W        W27808   0.857  17.313  11.655 -0.0341  0.1943 -0.0506
12000W        W27809  14.392  10.748   4.429 -0.2308  0.0252 -0.0687
12001W        W27810  11.713  10.067   0.208 -0.0725  0.1516 -0.1152
12002W        W27811  16.357  10.042   3.414  0.0263 -0.1873 -0.0965
12003W        W27812  11.658  12.188   2.676  0.1591  0.0693 -0.1901
12004W        W27813  16.193  12.704   2.242 -0.0443 -0.0135  0.0224
12005W        W27814  12.238   1.628  15.719  0.0692  0.0076  0.1482
12006W        W27815  11.270   1.512  16.352 -0.0809  0.1040  0.1875
12007W        W27816  10.902   3.744  15.172  0.1482  0.3160  0.0576
12008W        W27817   9.340  15.201  15.853 -0.0316 -0.2106  0.3156
12009W        W27818   6.781  14.502   3.846 -0.0391  0.0189  0.2239
12010W        W27819  14.962   2.216   4.863  0.3139 -0.3028  0.2962
12011W        W27820   6.944  17.756  12.270  0.1157 -0.0439 -0.1340
12012W        W27821   4.675   0.961  13.661 -0.1853 -0.0512 -0.0668
12013W        W27822   8.403   8.427  12.922 -0.0755 -0.1233 -0.0471
12014W        W27823   5.934  13.562  14.669 -0.1454  0.5815 -0.1055
12015W        W27824   3.083  16.015   1.228  0.0501 -0.1824  0.1448
12016W        W27825   6.227  12.658   3.696  0.0041  0.0843  0.1423
12017W        W27826  15.086   0.075  16.468 -0.0988 -0.0860 -0.4565
12018W        W27827  11.433  11.792  16.281  0.0497  0.1080  0.4699
12019W        W27828  10.916   5.934  16.464 -0.2554  0.2027 -0.0400
12020W        W27829  10.201   7.236   2.145  0.2826 -0.1537 -0.1298
12021W        W27830   3.129   5.051   1.770 -0.0849  0.0342 -0.1108
12022W        W27831  15.956  15.588  15.813 -0.0513 -0.0775  0.1260
12023W        W27832   2.224   8.018  11.312 -0.2636 -0.4405 -0.0904
12024W        W27833  10.565   2.588  12.358 -0.0228  0.0017 -0.1414
12025W        W27834  14.354  17.580   2.049  0.0816  0.0872 -0.1164
12026W        W27835   2.377  13.761   2.091  0.1666  0.0204 -0.0732
12027W        W27836   3.041   6.574   3.368 -0.2682  0.1351 -0.1066
12028W        W27837   4.021   7.745  11.386  0.0984 -0.0248  0.1119
12029W        W27838  12.486  17.041  16.163 -0.0416  0.1113 -0.2321
12030W        W27839   3.545  16.348  16.375 -0.1022 -0.1616 -0.2452
12031W        W27840  11.092   2.947   1.492 -0.1095  0.3080 -0.0659
12032W        W27841  17.099   0.795  12.176  0.0030 -0.0777 -0.0380
12033W        W27842  16.899   9.950  15.284 -0.0995 -0.0892 -0.0247
12034W        W27843  15.473  14.391   0.846 -0.1993  0.0335  0.0759
12035W        W27844   9.695  13.305   6.040  0.1822 -0.0666 -0.1191
12036W        W27845  13.552   0.634  11.427 -0.0881  0.0750  0.0617
12037W        W27846  15.909   5.824   5.110 -0.3014  0.1941  0.1082
12038W        W27847   8.425   4.386   2.313 -0.0697 -0.1845 -0.1556
12039W        W27848   0.246  10.240  10.951  0.5098  0.3644  0.1481
12040W        W27849   6.945   8.837  14.121 -0.0418 -0.4051  0.2768
12041W        W27850  12.171  15.867   2.379  0.1055  0.0842 -0.0728
12042W        W27851   5.003   2.769   2.039  0.2366 -0.0806 -0.0797
12043W        W27852   6.573   6.875   2.640 -0.2248  0.2331  0.0130
12044W        W27853  16.335  10.680  16.372 -0.1180  0.0244  0.0218
12045W        W27854   0.948   1.713  12.528  0.1335 -0.0260  0.2669
12046W        W27855   9.695  15.498   1.954 -0.2512 -0.2773  0.2062
12047W        W27856  14.943  15.721  13.651 -0.0024 -0.0548 -0.0317
12048W        W27857   6.092  17.201  16.295 -0.0575  0.0437 -0.1219
12049W        W27858   6.788   6.120  11.794 -0.0535  0.0327 -0.0990
12050W        W27859  16.404   7.777  15.816 -0.2122 -0.1109  0.2089
12051W        W27860  13.952   2.869  14.206  0.1611  0.2185 -0.1743
12052W        W27861  11.262   9.085   0.934 -0.2325 -0.0614  0.2917
12053W        W27862  17.007   4.925  12.443  0.3337 -0.0582  0.1318
12054W        W27863  12.456  10.169  13.257 -0.1108  0.4144  0.4217
12055W        W27864   9.097  12.434  13.241  0.0837 -0.1745 -0.0470
12056W        W27865  15.763   8.630  14.719  0.1149  0.0484  0.0968
12057W        W27866  10.272  15.115   0.210  0.1422  0.1005  0.2022
12058W        W27867  10.303  16.450   4.308 -0.0424 -0.3817  0.0121
12059W        W27868  13.978   7.866   1.655  0.2364 -0.2872 -0.1392
12060W        W27869   6.897   5.865  11.391 -0.0834  0.1866  0.0820
12061W        W27870  16.773  12.745   3.855 -0.1999  0.3054 -0.0841
12062W        W27871  12.738  11.768   5.274  0.1167  0.2888  0.2584
12063W        W27872   0.815   2.077   3.736  0.2485  0.3364 -0.0468
12064W        W27873   5.178  14.609  13.974  0.3462 -0.2589 -0.0334
12065W        W27874   6.175   0.712   6.047 -0.0917  0.1222 -0.0698
12066W        W27875   3.852   8.904  11.295  0.1147  0.2073 -0.1612
12067W        W27876   8.218  16.523   3.400 -0.2324 -0.0774 -0.1571
12068W        W27877  16.013  12.264   3.959 -0.0793  0.3155 -0.1057
12069W        W27878  17.892   6.461   1.565 -0.0813  0.1563 -0.3044
12070W        W27879   6.479   8.298   1.079 -0.0645  0.0274 -0.2041
12071W        W27880  15.502  15.548   0.271  0.0073 -0.0258  0.1901
12072W        W27881   5.853  14.554  15.377 -0.0023 -0.2991 -0.0565
12073W        W27882   9.787  17.881   5.569  0.1111 -0.0633  0.0024
12074W        W27883   6.586  11.642   2.815  0.1635 -0.0532 -0.1739
12075W        W27884  16.005   8.037   5.602 -0.1680  0.1005  0.1026
12076W        W27885  10.157  14.942  14.228 -0.1461  0.1559 -0.0539
12077W        W27886   8.403  13.831   1.804  0.0011 -0.0153 -0.3065
12078W        W27887   3.506   4.112   6.185  0.0330  0.1236 -0.1212
12079W        W27888  15.832  17.406   5.772  0.0158  0.2327 -0.3098
12080W        W27889   4.887   3.640  12.517 -0.0708  0.1642 -0.1909
12081W        W27890   2.507  15.714   5.066 -0.0124  0.3266 -0.1087
12082W        W27891   6.219   6.375  16.442 -0.0017 -0.0058  0.0537
12083W        W27892  16.415  10.552   4.280 -0.3796  0.2624 -0.2167
12084W        W27893   2.412   9.801   4.969  0.0392 -0.0024  0.1504
12085W        W27894   6.932  11.778   4.232 -0.1416  0.0608 -0.1554
12086W        W27895   5.084   8.610  11.793 -0.2079  0.2719  0.0272
12087W        W27896  15.606   4.402  12.102 -0.1052  0.0531  0.2993
12088W        W27897   3.126  10.155  14.746  0.4050 -0.1315  0.3914
12089W        W27898  14.900  10.470   2.062  0.4174  0.1784  0.0242
12090W        W27899  12.759  10.759  11.617  0.0015  0.1043 -0.0235
12091W        W27900  17.501   4.311  14.146 -0.1309 -0.0864  0.0744
12092W        W27901   0.041   5.635  12.950 -0.1852 -0.0128  0.3758
12093W        W27902  16.181  10.736   2.151 -0.0114 -0.2761 -0.0783
12094W        W27903   1.347   6.231  15.667  0.0823 -0.1377  0.1849
12095W        W27904  12.431   2.074  13.035  0.0611  0.0653 -0.0258
12096W        W27905  15.183   0.031  12.212 -0.1747 -0.1815  0.0950
12097W        W27906  12.686  15.617   4.304 -0.0238 -0.0334 -0.4283
12098W        W27907  12.888   4.486   6.573 -0.0802 -0.0166  0.2470
12099W        W27908   7.272   2.592   5.162  0.2422 -0.0738 -0.1162
12100W        W27909  15.485   2.653  13.352 -0.1915 -0.3267 -0.1853
12101W        W27910   1.009   6.169  15.321  0.1433 -0.0841  0.0412
12102W        W27911   5.418   6.687   1.102 -0.2289  0.0277  0.0150
12103W        W27912   0.902   2.908  11.242  0.1516  0.1236 -0.1233
12104W        W27913   9.651   9.815   2.856 -0.1386  0.1489  0.1796
12105W        W27914   5.093   3.565  13.850  0.1431  0.0255 -0.1581
12106W        W27915  14.057  13.540  13.335  0.1262 -0.3236  0.1061
12107W        W27916   1.821  16.816   5.410 -0.0242  0.3514 -0.0328
12108W        W27917   6.361  12.535   1.070  0.0955 -0.1331  0.1279
12109W        W27918  13.859   5.383  14.950 -0.1283  0.2540  0.2821
12110W        W27919  14.432   1.793  15.944  0.0679  0.0992 -0.3443
12111W        W27920   3.514  10.889  15.809  0.1569  0.0138 -0.0360
12112W        W27921   5.820   0.671  11.890 -0.3011  0.2531 -0.0572
12113W        W27922  14.477   5.943  10.671  0.1112  0.1292  0.0231
12114W        W27923  15.937  17.346  12.256 -0.1275  0.1241  0.3924
12115W        W27924   8.122   2.437  14.309  0.0848  0.3535 -0.0245
12116W        W27925   5.267   3.442   4.596  0.2954  0.2191  0.3377
12117W        W27926  15.205   2.987   5.391  0.0796  0.3193 -0.3804
12118W        W27927  11.018   9.126   3.686 -0.2958 -0.1491 -0.1791
12119W        W27928  15.289   7.946  13.573 -0.2205 -0.0631  0.1842
12120W        W27929   5.477  13.319  13.890  0.0501  0.0988 -0.1288
12121W        W27930   8.135  13.268  15.053 -0.1707  0.0304 -0.1049
12122W        W27931  12.060   6.569  14.782 -0.0001  0.2084 -0.2463
12123W        W27932   5.189  11.052   1.246  0.0314 -0.4315 -0.1023
12124W        W27933   9.132  17.183   4.226  0.1900 -0.1331 -0.1772
12125W        W27934   4.170  11.973  15.297 -0.1505  0.2320 -0.3774
12126W        W27935  10.087   8.171   2.323 -0.1273  0.4461  0.0092
12127W        W27936  15.511  10.158   4.126  0.1151  0.0022 -0.0386
12128W        W27937  14.615  16.829   1.260  0.0309 -0.0769 -0.1630
12129W        W27938  12.088   9.255   3.906 -0.2616 -0.2985  0.1535
12130W        W27939  11.932   7.026   1.681  0.0827  0.0964 -0.0615
12131W        W27940   9.778   1.619  12.847 -0.1386 -0.0637 -0.0905
12132W        W27941   4.040  17.821   4.168  0.0593  0.0103  0.0293
12133W        W27942  15.741   8.729   6.278 -0.1222  0.0722  0.1770
12134W        W27943   3.619   5.775   1.090 -0.3194 -0.0400  0.0353
12135W        W27944   5.004   9.123   2.979 -0.1442  0.2395 -0.1856
12136W        W27945  16.543   8.940   1.839  0.2168  0.1966 -0.1227
12137W        W27946   6.583   2.225   2.056  0.4698  0.1710 -0.0216
12138W        W27947  15.178  13.285  14.037 -0.2775  0.0084 -0.2886
12139W        W27948  11.996   7.209   5.427  0.2528 -0.1986  0.4004
12140W        W27949   7.232  15.520  13.502 -0.0077  0.0362 -0.1446
12141W        W27950  15.124  10.222  11.453  0.2835  0.0109 -0.1925
12142W        W27951  12.442   8.662   1.928  0.0340 -0.1255 -0.1177
12143W        W27952  16.692   0.426  12.065  0.0351  0.2047  0.1548
12144W        W27953   4.980  11.495   1.948  0.0692  0.0123 -0.0758
12145W        W27954   4.751   4.555  14.569 -0.3145 -0.1623  0.2000
12146W        W27955  13.223  14.716   1.128 -0.0948 -0.0127  0.2742
12147W        W27956   6.458   4.569   6.267 -0.1074 -0.1699  0.0746
12148W        W27957   8.253  17.879  13.984 -0.0248 -0.1227  0.1342
12149W        W27958  10.271   7.789   2.068  0.2371  0.0171 -0.2165
12150W        W27959  17.096   8.747   4.249  0.2060  0.0713 -0.0906
12151W        W27960  13.466  13.503  12.630  0.3542 -0.1747 -0.2350
12152W        W27961   2.942   7.820  11.415 -0.1903  0.1036  0.0312
12153W        W27962  15.516  12.033   1.950 -0.1316  0.1301 -0.6970
12154W        W27963  16.168  12.597  16.140  0.2098 -0.0832 -0.1337
12155W        W27964   2.572  13.947   1.169 -0.3395 -0.3619  0.3444
12156W        W27965   9.330  12.987   2.472 -0.0696 -0.0690 -0.2790
12157W        W27966   7.236   4.247   5.368 -0.1289  0.2003 -0.2353
12158W        W27967   7.624   3.971   5.595 -0.1131 -0.2075  0.1738
12159W        W27968   0.880  11.307  14.278  0.1099 -0.1444 -0.0292
12160W        W27969   9.612  10.580  16.273  0.2286  0.0456  0.0054
12161W        W27970  10.473   2.070   4.997  0.0299  0.3112  0.0265
12162W        W27971   7.006   7.241   4.894 -0.1730 -0.0983  0.0761
12163W        W27972   9.509   5.708  15.538 -0.0307 -0.2557  0.0408
12164W        W27973  13.475  16.912  14.166  0.0105 -0.0011  0.4368
12165W        W27974   0.003  11.384  15.259  0.0826 -0.2367  0.0319
12166W        W27975   3.302   1.404  13.202  0.2097  0.3084 -0.1893
12167W        W27976  13.041   5.034  13.861 -0.0532 -0.1230  0.1255
12168W        W27977   7.885   4.979   1.339  0.0743 -0.4182  0.1309
12169W        W27978   7.356  13.980  15.977 -0.1567 -0.1055  0.0324
12170W        W27979  13.252  14.976  16.707 -0.2824 -0.2426  0.2845
12171W        W27980   9.932   7.992   5.339  0.1337  0.0054 -0.0484
12172W        W27981   0.548  16.512  14.016  0.2748 -0.1705  0.1172
12173W        W27982   3.442   1.425   1.252  0.0255  0.1765  0.0802
12174W        W27983   3.491  17.163   1.877 -0.1595 -0.3477 -0.1206
12175W        W27984   8.201   6.806  15.859  0.0425 -0.0494  0.1409
12176W        W27985  12.170   8.186  15.357  0.1720 -0.1856 -0.0557
12177W        W27986  12.524  16.391  15.755 -0.1043 -0.1471 -0.1741
12178W        W27987   2.312   6.979   0.268 -0.0050 -0.0252  0.0487
12179W        W27988   0.591  12.546   2.524 -0.3315  0.0448  0.2289
12180W        W27989  16.065  17.361   3.475  0.1339 -0.1241  0.0686
12181W        W27990  16.939  10.047  16.349 -0.1208  0.2510  0.0123
12182W        W27991   0.341  13.452  13.945 -0.0328 -0.1396  0.1125
12183W        W27992  15.648  10.208   2.947 -0.0139 -0.3161  0.0987
12184W        W27993   2.561   2.151   3.109  0.1834  0.1509 -0.3186
12185W        W27994   4.144   7.513  15.328  0.0108  0.0477  0.0192
12186W        W27995   4.976  11.852  13.693 -0.3951  0.3111  0.2304
12187W        W27996   1.246   6.549  15.079  0.2054 -0.2656 -0.2136
12188W        W27997  17.152   3.823  13.696 -0.0629  0.0168  0.1497
12189W        W27998  17.146   4.799  15.812 -0.1042  0.1770  0.0864
12190W        W27999  14.139   0.932   4.982 -0.2831 -0.2759 -0.0304
12191W        W28000  12.601  14.986   2.849 -0.0967 -0.0146  0.3063
12192W        W28001  10.053   9.836  14.294  0.0888 -0.3096 -0.2186
12193W        W28002   1.560   7.898   2.290  0.0477  0.1553  0.3703
12194W        W28003  14.116  10.883   5.853  0.1694  0.2307 -0.2447
12195W        W28004  14.985   1.243  13.172 -0.4090 -0.1672  0.1504
12196W        W28005  15.693   6.497  15.717 -0.3128 -0.0707 -0.1677
12197W        W28006  16.048  17.282  13.373 -0.1600 -0.2708  0.1191
12198W        W28007  12.114  17.439  13.440 -0.1454  0.4910  0.1070
12199W        W28008   9.448  12.192  14.192  0.1692  0.0367  0.3065
12200W        W28009  14.110   9.191   3.741 -0.0235  0.0539 -0.0003
12201W        W28010   5.353   3.046  13.219 -0.0419  0.3731  0.4587
12202W        W28011   7.474   8.099  13.023 -0.0464 -0.1186  0.0583
12203W        W28012  11.155  10.463  15.505 -0.0970  0.2828  0.2461
12204W        W28013   2.186   9.307  15.040 -0.3311 -0.1233 -0.1762
12205W        W28014   6.504   9.696  13.814 -0.0395  0.0122  0.2739
12206W        W28015   1.585  13.958   0.402 -0.3309  0.1791  0.1647
12207W        W28016   0.176  11.213  13.819  0.1287 -0.1733 -0.0538
12208W        W28017   3.875   4.184   4.555  0.0523 -0.0041  0.2492
12209W        W28018  10.399  10.517  11.663  0.2564 -0.0178 -0.2823
12210W        W28019   5.706   4.071   0.651 -0.0825  0.0028  0.0600
12211W        W28020  11.233  10.318  13.367 -0.0663  0.0589 -0.0625
12212W        W28021   2.474   4.300   2.069 -0.2024  0.0947  0.2391
12213W        W28022  12.826  14.178  15.419 -0.1266  0.2377  0.2357
12214W        W28023   7.078   7.714  15.940 -0.1543 -0.0357 -0.2089
12215W        W28024   3.146   6.214  11.945  0.3188 -0.0196 -0.0052
12216W        W28025   9.809  15.599  12.342 -0.0066 -0.1378  0.0683
12217W        W28026  10.939   8.215   1.598  0.0829  0.0747  0.0798
12218W        W28027  17.035  13.983   0.855  0.0917  0.0633  0.0728
12219W        W28028   5.471   2.936  16.360 -0.2516 -0.0479  0.2784
12220W        W28029  14.717   6.760   1.136 -0.0569  0.0712 -0.1156
12221W        W28030  16.873   5.738  15.950 -0.0590 -0.0136 -0.2763
12222W        W28031  17.226  14.265  15.759  0.4353  0.2422  0.1443
12223W        W28032  12.730   7.931   1.918 -0.3397 -0.0733 -0.0889
12224W        W28033   3.928   9.782   2.927 -0.0450  0.0359 -0.1868
12225W        W28034  17.572   4.138  13.494  0.0360  0.0452  0.1895
12226W        W28035  13.619  15.604   3.176  0.1875 -0.0271  0.1047
12227W        W28036   9.753   9.916  15.261  0.3198  0.2642  0.1611
12228W        W28037   2.124  14.004   3.560 -0.1410 -0.0733  0.1313
12229W        W28038   4.622   0.432   2.847 -0.0218 -0.1368  0.0365
12230W        W28039   7.214   8.393  15.029 -0.0070 -0.0533 -0.0358
12231W        W28040  16.331   4.435   1.482 -0.2138 -0.0312 -0.1476
12232W        W28041   6.185   8.009  10.986  0.0605  0.1637  0.2147
12233W        W28042  14.421  13.959  16.711  0.1819  0.0611 -0.0257
12234W        W28043   5.796  11.223   5.305  0.4248  0.1030 -0.0206
12235W        W28044   2.043   7.619  14.679  0.1733  0.0348 -0.1300
12236W        W28045  17.497   1.121  11.005 -0.0780  0.2574 -0.0922
12237W        W28046   9.299   7.950   0.699  0.3007  0.0389 -0.2235
12238W        W28047  10.649  10.959  12.429 -0.2355 -0.0344  0.1022
12239W        W28048  13.956   5.142  15.802 -0.0153  0.0394  0.0082
12240W        W28049   8.816   3.620  13.579 -0.0946  0.2037  0.2673
12241W        W28050   5.202  15.926  15.267  0.4740  0.2668  0.1798
12242W        W28051  15.050  12.677   4.860  0.0005  0.0157  0.0911
12243W        W28052  17.748  13.386  14.775 -0.0862  0.0516  0.4207
12244W        W28053  12.100   2.943   1.005 -0.1943  0.1061  0.1884
12245W        W28054  13.162  13.020  15.126 -0.1185 -0.1467  0.2570
12246W        W28055   8.466   9.706  14.844 -0.0155  0.1837  0.2676
12247W        W28056   7.920   4.539  12.953 -0.1825  0.0985  0.2405
12248W        W28057  17.827   9.430   3.986  0.2022  0.1456 -0.0386
12249W        W28058   7.335  10.726  16.256 -0.0146 -0.1149  0.2042
12250W        W28059   1.586   2.052  16.458  0.0881  0.1893 -0.3029
12251W        W28060  10.069  10.495  16.502  0.0049 -0.3818  0.1836
12252W        W28061  13.897  12.264  12.511  0.0520  0.1446  0.0056
12253W        W28062  15.266  14.339  13.426  0.3485 -0.2041 -0.3094
12254W        W28063   2.641   1.503  11.288  0.0390  0.1214 -0.3280
12255W        W28064   3.625   4.132  13.129 -0.0490  0.1380 -0.1819
12256W        W28065  16.769   6.111   3.985 -0.0844  0.0177  0.3077
12257W        W28066  15.082   3.514   1.401 -0.1326  0.3431 -0.0108
12258W        W28067  15.493   2.031   4.608  0.0550 -0.3178 -0.3157
12259W        W28068  14.482   0.478   2.793  0.2020 -0.2612 -0.1193
12260W        W28069  16.126  16.168   2.636 -0.1457 -0.0615  0.1459
12261W        W28070  16.857   1.770   0.782  0.1374  0.1130  0.2424
12262W        W28071   4.201   0.356  12.114 -0.1626 -0.1600 -0.0484
12263W        W28072   5.540  17.660  15.080 -0.1005 -0.1337  0.1219
12264W        W28073   7.447   8.368  14.564  0.2875  0.0893  0.1246
12265W        W28074   2.343  12.380   0.629 -0.2076  0.0333 -0.0951
12266W        W28075  13.459  11.531   0.355  0.2734  0.2471 -0.1445
12267W        W28076  16.811   6.768   0.078 -0.4811 -0.0909 -0.1289
12268W        W28077  17.120   1.227   5.897 -0.3029  0.1277  0.0666
12269W        W28078   2.106   8.053  16.435 -0.1859 -0.2291 -0.0069
12270W        W28079  10.152  17.423  13.132 -0.0806 -0.0778  0.1213
12271W        W28080   4.118   3.124   2.625  0.0350 -0.0154  0.1862
12272W        W28081   4.044  12.504   5.844  0.0441  0.0221  0.0249
12273W        W28082   8.681   4.281  13.214 -0.2157 -0.0484  0.1237
12274W        W28083   9.352  15.445  14.410  0.2492 -0.0366  0.1148
12275W        W28084   4.267   0.320  15.219 -0.0687  0.0114 -0.1806
12276W        W28085  14.301   8.011  16.329  0.1521 -0.0380 -0.0757
12277W        W28086  11.571   0.871   3.745  0.1615 -0.0029 -0.0756
12278W        W28087  14.170  17.062   2.158 -0.2473 -0.0946 -0.1739
12279W        W28088   7.354  10.028   4.790 -0.3676  0.2891  0.0175
12280W        W28089   2.041  16.157   0.944 -0.0315 -0.1733 -0.2171
12281W        W28090  12.477  11.690   2.955  0.2589  0.3630 -0.2348
12282W        W28091   5.866   2.251   1.199  0.0627 -0.2251 -0.0417
12283W        W28092   6.917  12.475   2.988  0.2483  0.3377  0.3219
12284W        W28093   5.863  12.726   0.880  0.2398 -0.1525  0.3526
12285W        W28094  10.756   9.126   4.657 -0.1204  0.2198  0.0405
12286W        W28095   2.250  17.268   0.872  0.1683  0.1728  0.2263
12287W        W28096   2.550  10.980   0.250  0.2219  0.2003 -0.1214
12288W        W28097  13.549   9.526  13.683 -0.0453  0.1636 -0.0646
12289W        W28098   4.088   5.868   5.286 -0.1113 -0.4343  0.1728
12290W        W28099  10.017   9.954   5.392 -0.0331 -0.1110 -0.5078
12291W        W28100   0.306   5.670  12.501 -0.1792 -0.1979 -0.0765
12292W        W28101   6.161  12.749  15.345  0.0352  0.1265 -0.0831
12293W        W28102   3.632  15.344   1.793  0.3245 -0.2217  0.2475
12294W        W28103  17.349  11.839  13.462  0.0192  0.1296  0.1683
12295W        W28104   6.231  14.883   5.405 -0.1744  0.2275 -0.0623
12296W        W28105  10.064   8.063   6.318 -0.1783 -0.1865 -0.0415
12297W        W28106   1.509  12.527  11.923  0.0852  0.0489 -0.1846
12298W        W28107   9.358  17.789   5.264  0.0016  0.0374 -0.0627
12299W        W28108  15.496   8.964   2.738 -0.1260  0.0604 -0.0758
12300W        W28109   1.778  10.775   2.041  0.1323 -0.0334 -0.1306
12301W        W28110   5.620   1.988   2.120  0.0491 -0.1951 -0.3542
12302W        W28111   6.799  11.259  11.537  0.1118  0.1660  0.0254
12303W        W28112   8.377   1.100  12.192  0.0595 -0.0628  0.0524
12304W        W28113   9.195   9.213  11.921 -0.0815  0.3811  0.0493
12305W        W28114   3.269   3.423  15.295 -0.2815 -0.1685  0.0878
12306W        W28115  14.382  10.367   5.054  0.2177 -0.2924  0.1034
12307W        W28116   6.924  16.299   2.609 -0.0509 -0.0830  0.4129
12308W        W28117   0.032  14.639  15.052  0.2751 -0.1581 -0.0131
12309W        W28118   0.053   3.286   1.459 -0.0277  0.1669  0.0803
12310W        W28119   6.453  15.608  12.845  0.0739  0.1104 -0.3821
12311W        W28120   8.094   2.283  12.814 -0.0273 -0.4687  0.0022
12312W        W28121   5.611  13.843   2.910  0.0344  0.1432 -0.0714
12313W        W28122  12.805   5.310   5.292  0.3375  0.3113 -0.1032
12314W        W28123   1.724   3.820   4.140 -0.1147 -0.4869  0.3610
12315W        W28124  12.528   2.691   1.333  0.3479  0.1185 -0.1851
12316W        W28125   9.898   5.187   1.803 -0.2042  0.0276  0.0092
12317W        W28126  17.133   9.047  14.117  0.0031  0.1130  0.0025
12318W        W28127  10.497  14.985   3.862  0.3662 -0.3215 -0.2177
12319W        W28128  17.866   7.464   3.440  0.3188  0.0514  0.0184
12320W        W28129  17.688   9.134  16.501 -0.2797  0.0011 -0.0516
12321W        W28130  14.556   4.494  12.119 -0.0298  0.0221  0.0966
12322W        W28131  16.947  14.905   5.594  0.0803 -0.1465  0.0082
12323W        W28132   2.167   5.253   4.529 -0.0391  0.0602 -0.1845
12324W        W28133   0.528   7.112   0.312  0.1988  0.0317 -0.2448
12325W        W28134  11.726   5.474   1.163  0.3763 -0.3986 -0.0757
12326W        W28135   9.985  10.298  13.045  0.0773 -0.0754 -0.3672
12327W        W28136   0.616   5.168  15.267 -0.2141 -0.1126  0.2355
12328W        W28137  12.414   4.374   5.938 -0.3793  0.1112  0.2141
12329W        W28138  13.336   3.986   1.249 -0.1440  0.3019 -0.2043
12330W        W28139  12.665   7.570  13.964 -0.0534 -0.0465  0.2017
12331W        W28140  16.988  12.308  14.430  0.2353  0.0210 -0.3527
12332W        W28141  13.476   7.756  15.207  0.1291  0.0260 -0.0136
12333W        W28142  10.281  17.002  13.237 -0.1203  0.0876 -0.0771
12334W        W28143  12.290   5.646   4.846  0.0344 -0.0513 -0.0674
12335W        W28144  17.925   5.034  11.745  0.0017  0.1235 -0.2413
12336W        W28145  11.713   5.843   3.634 -0.0131 -0.0237  0.0718
12337W        W28146  11.938  14.548  11.988 -0.1880 -0.0431  0.0102
12338W        W28147   5.890   2.976  12.953  0.2556 -0.2289  0.0183
12339W        W28148   4.324   1.302  13.222  0.0247 -0.1051  0.4019
12340W        W28149  16.142   4.857  12.927  0.0891  0.2208  0.0407
12341W        W28150  13.668  13.133  16.477 -0.0826 -0.1573  0.0362
12342W        W28151  14.493   3.873   4.779  0.0818  0.4210 -0.0218
12343W        W28152   9.627   3.150   5.944  0.0275  0.1046 -0.3188
12344W        W28153   0.237   4.316   2.070 -0.0723 -0.0056 -0.1187
12345W        W28154  14.003   7.742  14.597  0.4017  0.1462 -0.0590
12346W        W28155  17.895   0.101  12.996  0.2105 -0.0005  0.2761
12347W        W28156  13.954   2.187  12.609  0.4262  0.0050  0.0100
12348W        W28157   2.218   6.913  12.750  0.3242  0.2540 -0.0760
12349W        W28158   2.610  14.701   3.393 -0.1332  0.0411  0.1751
12350W        W28159   8.210  16.153  15.631 -0.0246  0.2610 -0.1723
12351W        W28160   6.919  15.789  15.073 -0.0297 -0.2162 -0.2085
12352W        W28161  13.044   7.915  14.024  0.0123  0.0246 -0.1840
12353W        W28162  17.839  15.616   5.225 -0.1420  0.0276  0.2053
12354W        W28163   3.469   9.162  11.180  0.0650  0.2749 -0.0622
12355W        W28164   7.308   2.365  15.215  0.0246 -0.0860 -0.1532
12356W        W28165  15.863   6.383  11.471 -0.0638  0.1060  0.2175
12357W        W28166   1.535   5.217  16.517 -0.0963  0.0311  0.2187
12358W        W28167  11.069   5.290  11.977  0.2600  0.1303 -0.0433
12359W        W28168  13.357   5.626  12.574 -0.2147 -0.1896  0.2379
12360W        W28169  14.875   3.554  12.162  0.2211  0.3452  0.0916
12361W        W28170  11.257  10.210  12.284  0.1584 -0.0062  0.2247
12362W        W28171  13.488   3.419  15.986  0.1642 -0.1987  0.2151
12363W        W28172   3.342   1.916   4.788  0.0766 -0.0525 -0.1015
12364W        W28173   5.137   0.199   2.851 -0.0354  0.2271  0.0472
12365W        W28174  12.426  13.239   3.728  0.0721 -0.2805 -0.0242
12366W        W28175   6.042  10.171  14.281 -0.2179  0.1601 -0.2895
12367W        W28176   5.680  10.863   1.676 -0.2341 -0.0466 -0.1604
12368W        W28177  14.041   7.728  15.996 -0.0860  0.0407  0.2539
12369W        W28178   1.841   3.390   3.905 -0.0664 -0.0432 -0.2712
12370W        W28179   2.073  13.593   3.337 -0.3864  0.0279  0.0552
12371W        W28180  14.901  10.312   3.908 -0.0287  0.2655 -0.1341
12372W        W28181   9.133   0.703  12.725  0.1177  0.1929 -0.0905
12373W        W28182  11.079   8.002  12.284  0.4453  0.0489  0.1630
12374W        W28183   4.349   8.851   4.830  0.3289  0.2719  0.2420
12375W        W28184  11.407   2.915   0.353 -0.2395 -0.4000  0.0564
12376W        W28185   3.635  14.893   3.316 -0.0382  0.2045  0.0374
12377W        W28186  16.524  17.864   2.865 -0.0730  0.0590  0.0270
12378W        W28187  16.488   5.400   1.461  0.0522  0.0837  0.0207
12379W        W28188   2.167  14.578  12.496  0.2763 -0.2198  0.3090
12380W        W28189   0.002  16.494   1.532  0.3031 -0.1258 -0.5109
12381W        W28190   8.951   1.000   6.456  0.2344  0.2429  0.0679
12382W        W28191  16.724   5.901  11.518  0.3181 -0.3179  0.2280
12383W        W28192  15.922  17.748   0.325 -0.0025  0.1077  0.0769
12384W        W28193  15.505   7.056   4.980 -0.0340 -0.4243  0.3727
12385W        W28194   0.167   2.084  16.005 -0.0108  0.1086  0.0271
12386W        W28195  17.576  17.662   5.858  0.2414  0.1191  0.2613
12387W        W28196   6.918  17.802   4.987 -0.1518  0.0512  0.0911
12388W        W28197  13.480  11.182   5.884 -0.0758  0.2159  0.1928
12389W        W28198  13.257   3.363  13.097 -0.1938 -0.3397 -0.3331
12390W        W28199   7.950  13.116  13.976 -0.0825 -0.1247  0.1411
12391W        W28200   0.773  14.464   3.117 -0.1267 -0.1823  0.0504
12392W        W28201  12.665  16.367  11.410 -0.0526  0.0553 -0.1179
12393W        W28202   9.086  16.018  12.602 -0.1487 -0.0756 -0.1303
12394W        W28203   0.257  14.486  12.758 -0.1586 -0.3933 -0.0690
12395W        W28204   9.474   1.619  15.069 -0.1168  0.0217 -0.0703
12396W        W28205   0.303   6.612  16.279 -0.3169  0.0152 -0.0116
12397W        W28206  12.013  12.129  14.965  0.0927 -0.1217 -0.3360
12398W        W28207  14.689   4.031  14.410 -0.0371  0.0587 -0.2010
12399W        W28208   7.105  10.693   2.875  0.0467  0.2496 -0.2169
12400W        W28209   5.138  14.106   4.744  0.1208 -0.0121  0.0540
12401W        W28210   1.831   4.039  14.902 -0.0414  0.1713 -0.0303
12402W        W28211  16.543   8.761  12.888 -0.2472 -0.0885  0.0754
12403W        W28212   3.835   9.999  11.398  0.2144 -0.0078 -0.0263
12404W        W28213   0.109   5.534  16.331 -0.3606  0.1453  0.0648
12405W        W28214   7.424   6.463  10.267  0.0244  0.1155  0.0523
12406W        W28215  16.793   0.660   3.087  0.2251 -0.1192  0.4671
12407W        W28216   8.418   0.980   5.178  0.2847  0.2052 -0.0548
12408W        W28217   2.193  17.266  14.302 -0.1350  0.0325  0.0380
12409W        W28218  16.658   7.265   1.932 -0.2375 -0.1802 -0.0825
12410W        W28219   9.664   4.496   3.469 -0.0977  0.2596  0.1224
12411W        W28220  17.229   9.208   2.734 -0.1130  0.0294 -0.0278
12412W        W28221   6.063  16.162   4.416 -0.0893  0.0371  0.0759
12413W        W28222   2.511  13.597  14.832 -0.0294  0.1199 -0.2774
12414W        W28223   3.457  13.314  14.399 -0.0923  0.3287 -0.1828
12415W        W28224   0.382  12.949  13.829  0.1914 -0.0276 -0.1615
12416W        W28225   0.185   1.240  14.774  0.1420  0.1223 -0.0263
12417W        W28226  12.861  16.328   3.138 -0.0790  0.0218 -0.1070
12418W        W28227   4.198   6.486   4.108  0.1583 -0.0807  0.0830
12419W        W28228   7.040  12.743  13.963 -0.1300  0.1159 -0.1547
12420W        W28229   8.426  11.098  11.924 -0.0705  0.3374 -0.0125
12421W        W28230   4.787  13.585  12.555  0.2041 -0.1026 -0.1151
12422W        W28231   6.551   0.772   3.937 -0.0185  0.0678  0.0919
12423W        W28232   5.277  16.364  12.613 -0.1380  0.1354  0.1413
12424W        W28233   6.075   8.638  13.715  0.0126 -0.0379 -0.1788
12425W        W28234  11.406  15.730   3.205  0.0594 -0.1508 -0.2676
12426W        W28235   2.416  16.891  15.503  0.1208 -0.2920  0.0693
12427W        W28236   5.851  12.052  11.359  0.4236 -0.0267  0.1373
12428W        W28237  11.492   7.833  13.603 -0.0150 -0.3482 -0.1610
12429W        W28238   7.990  12.119   5.432 -0.0021  0.0819  0.1976
12430W        W28239   0.102  12.286  12.215 -0.0560  0.5355  0.1113
12431W        W28240  16.854   8.517  16.623 -0.0762  0.2992  0.3432
12432W        W28241   3.681   7.504  11.762  0.1181  0.0025 -0.0965
12433W        W28242   1.491   5.023   2.948  0.3145 -0.1585 -0.4017
12434W        W28243   1.846  12.797  16.129  0.0390 -0.0811 -0.3332
12435W        W28244  11.219   5.098  14.377 -0.2956 -0.0480  0.1505
12436W        W28245  17.945   7.046   3.212  0.2132 -0.1444  0.0693
12437W        W28246   2.557  10.210  11.389  0.0934 -0.0157 -0.0173
12438W        W28247  12.054  14.615   6.134 -0.2728  0.1361 -0.1491
12439W        W28248  16.275  13.145   4.482 -0.0356  0.0962  0.1128
12440W        W28249  14.590  12.451  14.932 -0.2472  0.2647  0.1864
12441W        W28250   3.580   1.477  16.410 -0.0412  0.0593  0.0995
12442W        W28251  17.847   0.790   3.093  0.0727 -0.3755 -0.4528
12443W        W28252  15.101   6.458   1.224  0.0109  0.0029  0.2728
12444W        W28253   5.738   1.655  14.543  0.2417 -0.1757 -0.1241
12445W        W28254   5.477   0.202   2.220 -0.4401  0.1162 -0.0285
12446W        W28255  15.847   3.957  14.717  0.2627 -0.0018 -0.0791
12447W        W28256   5.113  16.449   0.206  0.3366 -0.0851 -0.4784
12448W        W28257   1.465   5.013  11.192  0.1821 -0.1296  0.2233
12449W        W28258  14.354  12.405   2.456  0.1261  0.3374  0.2284
12450W        W28259   7.946   0.853   3.128 -0.0360  0.0196 -0.3053
12451W        W28260  14.780   2.119  12.667  0.1121  0.0239  0.0027
12452W        W28261  13.702  10.714  14.471  0.0180  0.2636 -0.2087
12453W        W28262  16.415   2.375   1.993 -0.0669  0.2539  0.0066
12454W        W28263  10.475  11.898  13.642 -0.1543 -0.2462 -0.0897
12455W        W28264  17.166  11.957  11.983 -0.1742 -0.0667 -0.0927
12456W        W28265  12.851  12.166   5.565 -0.2304 -0.0093  0.1508
12457W        W28266   3.884  12.600   5.325  0.1154 -0.2189 -0.0631
12458W        W28267  11.445  16.604  16.563 -0.0075 -0.0255  0.1750
12459W        W28268   9.494  16.821   2.932 -0.2552 -0.3302  0.0769
12460W        W28269  17.741  10.575   1.121  0.1655 -0.0071 -0.0474
12461W        W28270   8.143  17.197   4.670  0.0710  0.1220  0.0123
12462W        W28271   6.149   1.984  14.470 -0.2280  0.0025 -0.3463
12463W        W28272  12.283   7.539  11.835  0.3366  0.1631  0.2340
12464W        W28273  17.498  16.133   3.454  0.1330 -0.0087 -0.3207
12465W        W28274  17.790   9.977  15.133  0.1714 -0.0222 -0.2177
12466W        W28275  17.841   0.529   0.220 -0.0381 -0.0324 -0.1895
12467W        W28276   0.654   7.131  11.480 -0.0634 -0.1024  0.0013
12468W        W28277   0.072   3.520  12.400  0.1003 -0.1226  0.1753
12469W        W28278  14.357  13.237  13.579  0.1536 -0.0654  0.0549
12470W        W28279   5.854   7.674  16.166 -0.0337  0.0914  0.1659
12471W        W28280   2.020   4.623  12.338 -0.6379  0.1541  0.1930
12472W        W28281   2.446   9.495  11.403 -0.3525  0.0898 -0.0727
12473W        W28282   7.119   8.029   1.350 -0.0384 -0.2140 -0.4364
12474W        W28283  17.521   3.936  11.132 -0.0977 -0.1375 -0.2601
12475W        W28284   8.796   2.559   2.434 -0.1413  0.0275  0.0904
12476W        W28285   7.480   1.416   2.114  0.0558 -0.0468 -0.0263
12477W        W28286  16.094   5.556   0.489  0.0128  0.1116 -0.3292
12478W        W28287   4.578  12.944  15.331 -0.2394 -0.1607  0.3523
12479W        W28288  17.093   5.388   1.954  0.0716  0.3426 -0.2043
12480W        W28289   2.647   9.600   4.581 -0.1322  0.0195 -0.2124
12481W        W28290   5.469   3.643   2.747  0.0040 -0.0395  0.2922
12482W        W28291   4.343   6.704  11.662 -0.1388  0.2190 -0.3296
12483W        W28292  12.982   9.823   2.509  0.2740 -0.2628 -0.2043
12484W        W28293   1.695  15.612  14.007  0.1977 -0.0892  0.2663
12485W        W28294   0.862   4.869  12.314 -0.1663  0.1394  0.0533
12486W        W28295  11.594   4.066  16.369 -0.0533  0.0389 -0.0419
12487W        W28296  16.473  17.156   4.817 -0.0261  0.1114  0.0383
12488W        W28297   9.995   1.950  12.545 -0.1172 -0.3453 -0.3337
12489W        W28298  10.891  17.920  10.799 -0.3015  0.1333 -0.0524
12490W        W28299   1.497   1.489  12.633  0.0922  0.1877 -0.1660
12491W        W28300  10.592  11.492  16.457 -0.2759  0.2801  0.1512
12492W        W28301  14.307   6.677   2.968 -0.0961  0.1994 -0.1536
12493W        W28302  15.717  14.124  14.283 -0.0100  0.0437 -0.1588
12494W        W28303   0.464   2.740  16.468 -0.1360  0.3372 -0.2156
12495W        W28304  11.426  16.403   0.337  0.1112 -0.2064 -0.0376
12496W        W28305  10.213  15.297  15.827 -0.2706 -0.1760 -0.5514
12497W        W28306   8.690  13.151  14.415  0.0143  0.1352  0.1370
12498W        W28307  12.439   8.527   6.349  0.0170  0.0283 -0.0974
12499W        W28308   1.562   8.863  13.588  0.0200  0.0676  0.2130
12500W        W28309  12.547   3.913   4.060  0.0759 -0.0231  0.3339
12501W        W28310  13.205   8.456   5.512 -0.2050 -0.0405 -0.0229
12502W        W28311   7.881   5.287  15.466  0.0069 -0.0413  0.1984
12503W        W28312  14.719  12.752   6.530  0.0858 -0.2506 -0.2776
12504W        W28313   7.545  14.201   2.067 -0.2000 -0.0715  0.3238
12505W        W28314   8.843  10.673   4.816 -0.1275 -0.0912 -0.1829
12506W        W28315  15.908   3.160   3.566 -0.2028  0.2520 -0.0083
12507W        W28316   1.074  10.824   4.220 -0.0207  0.0481 -0.1864
12508W        W28317   2.490  16.022   2.283  0.1653  0.0916 -0.0881
12509W        W28318   8.440  12.209   1.106 -0.3188 -0.1969 -0.1580
12510W        W28319  17.477  12.360   3.849 -0.1146  0.1199  0.1580
12511W        W28320   2.609  11.668  11.712 -0.0856 -0.1849 -0.2374
12512W        W28321  16.896  13.725   1.923 -0.0944  0.2209 -0.0365
12513W        W28322  13.210   4.216  13.245  0.3653 -0.1269  0.1667
12514W        W28323   5.362   9.999  12.657  0.1614 -0.0842 -0.2029
12515W        W28324   1.818   5.028  15.221  0.1592  0.1383  0.3456
12516W        W28325   5.567  12.614   3.871 -0.0972 -0.0710  0.1017
12517W        W28326  15.371   3.929   1.956 -0.1114 -0.0722  0.3108
12518W        W28327  11.734   6.082   0.694 -0.1301  0.1735 -0.2105
12519W        W28328  17.426   9.364  15.794  0.0554  0.1295  0.1020
12520W        W28329   4.254  13.139  14.287  0.2155 -0.1168  0.1104
12521W        W28330   8.655  17.611   0.704 -0.1493  0.2350  0.0956
12522W        W28331  12.749   8.227  15.990 -0.0973 -0.1122 -0.0705
12523W        W28332   5.138  10.717   3.897  0.0493 -0.2394 -0.2266
12524W        W28333   9.234   4.840   5.108  0.0700 -0.0169 -0.0315
12525W        W28334   1.722   3.884  12.837 -0.0144 -0.1734 -0.0057
12526W        W28335   1.833   4.119  15.820  0.2282  0.3026  0.3756
12527W        W28336  17.276   7.176   5.273 -0.0174  0.0609  0.1504
12528W        W28337  16.042   2.377  15.680 -0.2459  0.2394 -0.1460
12529W        W28338   2.535   8.825  13.497 -0.1075  0.5143 -0.0686
12530W        W28339  16.653   6.980  12.689  0.0790  0.2202  0.2356
12531W        W28340   1.138  11.330  13.378 -0.0661  0.1893 -0.2006
12532W        W28341   4.970   5.767   1.216 -0.1328 -0.0378 -0.1390
12533W        W28342   4.946   5.247  12.466  0.2287  0.2332  0.0383
12534W        W28343   3.182   0.048  12.989 -0.0914 -0.3377  0.2701
12535W        W28344  17.668   0.408  15.889  0.2295 -0.1084 -0.2138
12536W        W28345  15.657   8.874  15.109  0.3956 -0.1764  0.0541
12537W        W28346   7.643  16.653  12.343  0.1183  0.2223 -0.0260
12538W        W28347   1.270   7.619   5.169  0.2499 -0.1356  0.1494
12539W        W28348   8.187   5.764   5.680  0.1180 -0.0912 -0.2179
12540W        W28349   4.581  17.905  13.404  0.0585  0.2572  0.1279
12541W        W28350   9.835   0.037  12.787  0.0141  0.1553  0.0969
12542W        W28351  17.406   3.795  15.438  0.0598 -0.0008  0.0124
12543W        W28352  14.942   9.587  13.636 -0.0548 -0.1315  0.1682
12544W        W28353   9.217   7.857  12.590  0.0943 -0.0271 -0.4027
12545W        W28354   8.815   2.635  16.152 -0.0105  0.2331 -0.0448
12546W        W28355   7.160   3.702  15.569  0.1347 -0.2730 -0.1782
12547W        W28356   4.173   7.626  12.988 -0.0641 -0.0891 -0.1356
12548W        W28357   9.582  10.085  15.738 -0.4306  0.1241  0.1553
12549W        W28358   4.926   3.708   2.781 -0.0985  0.1724  0.0887
12550W        W28359   1.910  10.601  13.327 -0.2620  0.0362 -0.1392
12551W        W28360   8.502  17.322   3.361 -0.2238  0.0170  0.0817
12552W        W28361   9.092   5.568  14.059 -0.1313  0.1886  0.1564
12553W        W28362  11.898   5.628   5.225  0.0370 -0.0072  0.1502
12554W        W28363  16.614   3.953   4.397  0.1473  0.1060  0.0916
12555W        W28364  14.772   3.785  13.970 -0.2421 -0.0516  0.0255
12556W        W28365  11.976  17.629   5.337  0.0241  0.0661  0.1135
12557W        W28366   5.798  14.106  12.160 -0.1857 -0.1537 -0.2494
12558W        W28367   4.679   8.378  15.260  0.0790 -0.1091  0.1019
12559W        W28368  14.148   1.111   3.101 -0.0389 -0.0463 -0.1760
12560W        W28369  14.962   6.100   3.048 -0.0110  0.2169 -0.0761
12561W        W28370   3.891   6.632  16.707  0.4315  0.1186  0.0189
12562W        W28371  16.037   3.552  16.279  0.1036 -0.0466 -0.0631
12563W        W28372   2.803  12.414  11.570 -0.0082 -0.0401  0.0361
12564W        W28373   6.317  14.254   4.623 -0.2179  0.1768 -0.0407
12565W        W28374   9.313  10.360   0.455 -0.2267  0.0413  0.0842
12566W        W28375   7.814   6.354   3.619  0.3448 -0.0679  0.1654
12567W        W28376  14.504  16.300   1.587  0.1525 -0.1765  0.1402
12568W        W28377   8.544   6.276   0.492 -0.1790  0.0368 -0.1158
12569W        W28378   6.948  15.129   3.559 -0.0505 -0.1821  0.1092
12570W        W28379   8.740  13.311  13.335  0.4308  0.2918  0.1148
12571W        W28380   9.603  16.696   6.259 -0.0902  0.1759 -0.2181
12572W        W28381  15.035   2.549  13.106  0.0862 -0.1532  0.1568
12573W        W28382  13.433  16.194  15.539  0.3941  0.0989  0.4138
12574W        W28383   1.198   3.062   1.315 -0.0492 -0.0199 -0.1494
12575W        W28384  11.009  14.516  15.943 -0.0009  0.0732 -0.0277
12576W        W28385   1.148   7.580  13.607 -0.0532 -0.1477 -0.3804
12577W        W28386   3.999  13.684  15.902 -0.1913 -0.0915  0.0929
12578W        W28387  13.484  14.976  10.688  0.0514  0.0079  0.3005
12579W        W28388  16.021  12.404  14.434  0.0450 -0.1783  0.0087
12580W        W28389  16.631  17.341   2.651 -0.1641  0.3151  0.1691
12581W        W28390  11.713  16.730   2.419 -0.1369  0.1151  0.0491
12582W        W28391   2.956   8.070   0.686  0.0180 -0.2161 -0.2382
12583W        W28392  11.238   7.085  14.906 -0.2175  0.1555  0.1717
12584W        W28393  12.023   1.715  12.945  0.0820  0.0126  0.1032
12585W        W28394  13.464   5.616   0.821 -0.0903  0.1031  0.4713
12586W        W28395   6.509   7.021   4.728 -0.4634 -0.1739 -0.1355
12587W        W28396   5.639  10.940  14.942  0.0023 -0.3319 -0.2419
12588W        W28397   3.037  10.295  11.571 -0.2216  0.3234 -0.1290
12589W        W28398   3.472   2.387   4.791 -0.1126  0.2451 -0.0747
12590W        W28399  15.059   5.091  14.449  0.1384  0.1180 -0.0808
12591W        W28400  11.925   1.220  11.227  0.0887  0.3696  0.2864
12592W        W28401  11.086  13.235   6.157  0.1492  0.0142  0.1293
12593W        W28402   9.248   6.192   1.279  0.0135 -0.0840  0.2708
12594W        W28403   4.560   6.910   4.343  0.0349 -0.3040 -0.0314
12595W        W28404   4.691   2.648   3.971  0.3733  0.0082  0.3837
12596W        W28405   1.803  16.890  16.147  0.0068 -0.2308  0.2278
12597W        W28406   1.024  12.606   4.481  0.0754  0.1220  0.0479
12598W        W28407   4.187  16.809  16.201 -0.1584 -0.1687 -0.1886
12599W        W28408  10.627  10.282  11.272 -0.0366 -0.5504  0.1154
12600W        W28409   4.620  11.229   5.897  0.0440 -0.1189 -0.0296
12601W        W28410   7.977   1.127  13.074  0.0793 -0.2017  0.1108
12602W        W28411   0.411   2.154   1.746  0.1456 -0.3083 -0.2545
12603W        W28412   6.540   0.122   4.952 -0.2685 -0.2061  0.0811
12604W        W28413  17.460   3.165   2.234  0.3384 -0.0336  0.1904
12605W        W28414   4.438  13.005   0.523 -0.2339 -0.1586  0.0501
12606W        W28415   7.608  15.082  11.808 -0.1532  0.0452 -0.3067
12607W        W28416   5.333   6.673   3.803 -0.1568  0.1168 -0.0817
12608W        W28417   6.783  11.759   0.606 -0.0303  0.0100  0.1189
12609W        W28418   0.784  13.751  14.656 -0.1831 -0.0575 -0.2182
12610W        W28419   4.215  13.578   1.180 -0.0276  0.3123  0.1997
12611W        W28420   4.894  12.948   0.708 -0.0761  0.0348  0.1283
12612W        W28421  13.404  17.632  12.457  0.1069  0.1155 -0.1066
12613W        W28422   4.792  15.153  14.443 -0.1592  0.3013 -0.1232
12614W        W28423   4.113  12.462   2.956  0.4882  0.1583  0.3489
12615W        W28424   2.445   8.908   0.976  0.2211 -0.0281  0.0097
12616W        W28425   6.015   8.398   1.012 -0.1375  0.1114 -0.1982
12617W        W28426   9.675   8.149   3.134 -0.1777  0.4764 -0.3022
12618W        W28427  15.284  12.107  14.645  0.4538  0.1306  0.0078
12619W        W28428   0.259  17.041  12.676 -0.2922  0.1103 -0.2058
12620W        W28429  17.845   9.548  11.504  0.2203 -0.1820 -0.1197
12621W        W28430  15.264   8.670   1.769  0.0559  0.5158 -0.0593
12622W        W28431  11.484   8.365  13.469  0.2483 -0.2944 -0.2946
12623W        W28432   3.157   3.079   0.178  0.0411  0.1641 -0.2833
12624W        W28433   5.419   7.111   6.035  0.4780  0.2875 -0.1884
12625W        W28434  17.561   3.662  13.448 -0.0813  0.0716  0.0340
12626W        W28435   4.763  10.525  13.579 -0.1083  0.0116 -0.0695
12627W        W28436  17.601   8.239   1.833  0.0409  0.1219 -0.1608
12628W        W28437  10.371   6.216  13.493 -0.0119  0.0647  0.0605
12629W        W28438   8.833   7.640  16.317 -0.1128  0.0667 -0.1224
12630W        W28439  10.875   8.695   1.358  0.0104 -0.0180  0.1695
12631W        W28440   1.483  15.347  15.289  0.1343 -0.2371  0.1298
12632W        W28441   5.052   6.211  13.637  0.1425 -0.1858  0.0113
12633W        W28442   5.810  14.586  12.479  0.2162  0.3185 -0.1918
12634W        W28443   9.828   2.790   1.389  0.2367  0.1368 -0.2238
12635W        W28444  12.923   8.418  15.146 -0.1525  0.3418  0.2063
12636W        W28445  15.507   5.037   2.279 -0.0088 -0.0766 -0.1513
12637W        W28446   3.302   6.612   2.083 -0.2828 -0.0719  0.0626
12638W        W28447  12.286   7.865   3.684 -0.3235  0.0928  0.1863
12639W        W28448   8.032   4.676   5.134  0.1131  0.1329 -0.2423
12640W        W28449   9.237   8.802  15.700  0.1829 -0.1046  0.3334
12641W        W28450  17.583   4.661  14.923  0.1315  0.0601 -0.0392
12642W        W28451  11.940  10.030   2.325  0.2350 -0.0316  0.4333
12643W        W28452  11.336  14.019   1.115 -0.1353  0.2280 -0.2371
12644W        W28453  10.972   7.195   6.526  0.2437 -0.0032 -0.1297
12645W        W28454   2.473  13.570  15.301 -0.1359  0.1670  0.1285
12646W        W28455  10.425  17.894   2.373  0.0086  0.0464  0.2423
12647W        W28456   3.294  16.724  15.118 -0.1251 -0.2035  0.2808
12648W        W28457  10.174  14.592   5.180  0.0157 -0.0576  0.1657
12649W        W28458   7.455   6.482  13.456 -0.2001  0.2497  0.1886
12650W        W28459   7.282   8.875  13.639  0.0469 -0.2989  0.0445
12651W        W28460   8.588  14.000   1.028 -0.1280 -0.0711  0.1523
12652W        W28461  10.025   1.453   2.358 -0.2068 -0.2633  0.0004
12653W        W28462  15.388  12.768   1.597  0.2481  0.0581 -0.2562
12654W        W28463   5.825  15.502   1.580  0.0931 -0.4267 -0.1659
12655W        W28464   3.713   6.761   3.790  0.3500  0.2467 -0.0056
12656W        W28465  11.011  13.668  12.569 -0.0305 -0.0505 -0.0197
12657W        W28466   4.431   5.042  12.564  0.0046 -0.1422  0.1149
12658W        W28467  15.738   6.066   2.417  0.4326  0.1155 -0.2052
12659W        W28468   2.958  16.105  14.520  0.0660 -0.0076  0.2058
12660W        W28469  10.227   2.966   4.860  0.0907 -0.0187 -0.1017
12661W        W28470   4.891   9.312  11.336 -0.2371 -0.2760  0.0107
12662W        W28471   3.937   4.916  15.124 -0.3416  0.0653 -0.0842
12663W        W28472   6.862  12.514   5.441 -0.0068  0.1069 -0.2587
12664W        W28473   0.111   7.079  14.737  0.1116  0.1732 -0.2565
12665W        W28474   3.859   2.417   2.876 -0.0609 -0.0450 -0.0480
12666W        W28475  16.099  12.915   4.902 -0.1473  0.0454  0.2295
12667W        W28476   1.976   7.829  12.780  0.1546  0.0054  0.0692
12668W        W28477   6.732   0.930  15.224  0.1041  0.2929 -0.5170
12669W        W28478  17.822  12.462  14.941 -0.2071  0.0660  0.0392
12670W        W28479   8.938   9.292   4.126  0.0232  0.1749 -0.0124
12671W        W28480  15.513   1.796   1.115 -0.1610 -0.2923  0.0223
12672W        W28481  17.845  15.189   3.582  0.0092 -0.3181 -0.0292
12673W        W28482   4.585   5.307   0.180  0.3946 -0.1967 -0.1020
12674W        W28483  12.128   1.636  16.479 -0.0864 -0.4199 -0.1511
12675W        W28484   8.768   5.794   2.196  0.2972 -0.1595 -0.1447
12676W        W28485   7.326   8.833  15.378  0.1324  0.2031 -0.2413
12677W        W28486   0.210   6.222   5.223 -0.0936 -0.3049 -0.0566
12678W        W28487   2.949  10.840  12.493 -0.0637 -0.1081  0.1874
12679W        W28488   5.616  15.771   5.226 -0.1065 -0.1061  0.4576
12680W        W28489  16.369  15.308  15.834  0.1536  0.1306 -0.0034
12681W        W28490  11.977  14.755   1.212  0.1691 -0.0629 -0.0221
12682W        W28491  17.478  14.880   5.257 -0.1014  0.3308  0.2056
12683W        W28492   7.102   3.723   2.184  0.2060 -0.0592 -0.2468
12684W        W28493   5.607  12.232  16.570 -0.0047  0.1349  0.1779
12685W        W28494   7.043   5.773   3.564  0.0028  0.0543  0.3026
12686W        W28495   4.736   8.686   5.135  0.0351 -0.3298 -0.0771
12687W        W28496   5.670  11.326  13.652  0.0250  0.0944 -0.1437
12688W        W28497   2.121  13.919  15.186  0.3900  0.1254  0.0120
12689W        W28498  10.467   0.489   0.553  0.1661 -0.1748 -0.1608
12690W        W28499  15.188  13.468  15.587  0.1076 -0.2249  0.0724
12691W        W28500   4.287   4.211  11.622  0.0131  0.3887 -0.0635
12692W        W28501  11.197  16.329  14.443 -0.3808 -0.5036 -0.1891
12693W        W28502   1.497  14.424  11.498  0.0787  0.0279  0.0944
12694W        W28503  13.218  10.383   1.889  0.2311  0.1154  0.3299
12695W        W28504   3.910  12.851   1.580  0.0838  0.1520  0.0363
12696W        W28505  16.110   9.400   5.064  0.1979  0.0508  0.1555
12697W        W28506   0.225  17.483   1.272 -0.2076 -0.2564 -0.1858
12698W        W28507  12.371   1.028   0.540  0.2031  0.0205 -0.1112
12699W        W28508   4.658   5.042  15.043 -0.2648  0.0955 -0.1529
12700W        W28509  17.482  10.735  15.692 -0.0595  0.2521 -0.0947
12701W        W28510   1.210  10.531  14.068  0.0809 -0.3814 -0.0714
12702W        W28511   2.350   8.916  16.332 -0.1120 -0.1603  0.1436
12703W        W28512  12.089  13.450  13.877 -0.0553  0.2225 -0.0966
12704W        W28513   5.293  14.681   2.546  0.1729  0.1732  0.1488
12705W        W28514   5.121   5.559   5.016 -0.0964 -0.0031 -0.0496
12706W        W28515  12.344   6.168  13.490  0.4038 -0.2147 -0.1458
12707W        W28516   1.295  15.566  16.106 -0.1716  0.2479 -0.2470
12708W        W28517   3.551   3.749   4.850  0.3040 -0.0927 -0.1259
12709W        W28518   1.815  10.127   1.412  0.1983  0.5488 -0.2025
12710W        W28519   3.231   5.110  12.697  0.1633 -0.1565  0.2824
12711W        W28520  10.773   8.502  12.573 -0.0212 -0.0111  0.1726
12712W        W28521   6.950  12.252  14.191 -0.3505  0.0325 -0.0645
12713W        W28522   9.015   1.315   3.328 -0.0873 -0.0139  0.1438
12714W        W28523  15.881   2.466   0.880  0.3944  0.1401 -0.4246
12715W        W28524  17.521  11.613  11.758 -0.0274  0.1687  0.0946
12716W        W28525   2.015  16.364  12.440 -0.2862  0.1218  0.1410
12717W        W28526   7.540  10.156   6.153  0.0738  0.0881  0.2292
12718W        W28527  11.578   8.532  14.847 -0.5354 -0.1354 -0.1677
12719W        W28528   9.736  11.344   1.365 -0.1125  0.0447  0.1442
12720W        W28529   8.614  10.728   5.541  0.0656  0.0999 -0.2860
12721W        W28530   6.452  17.196  11.675 -0.1600 -0.0410 -0.2146
12722W        W28531  16.036   1.392  14.624  0.0219  0.0662  0.1223
12723W        W28532  10.866  16.861   0.948  0.0790  0.1236  0.0642
12724W        W28533   6.699   6.918   3.140  0.2447 -0.2103  0.0733
12725W        W28534   6.374  10.008   5.533 -0.1926 -0.0669 -0.0939
12726W        W28535   2.643  10.182  16.464  0.2990 -0.0584 -0.1295
12727W        W28536   2.742   4.108   4.252  0.0978  0.2823  0.0470
12728W        W28537   9.156   0.452   3.612 -0.1361 -0.1735  0.4824
12729W        W28538  17.810  11.989  11.783  0.1325 -0.0313  0.0455
12730W        W28539  13.779  10.461  12.819 -0.0595 -0.1155 -0.0631
12731W        W28540  15.650  10.448   4.767  0.1089 -0.1533  0.1817
12732W        W28541  11.040  13.369  14.885  0.0302  0.2400 -0.4857
12733W        W28542  12.548   0.834   4.000  0.0431  0.1997 -0.1783
12734W        W28543  16.618   7.851  13.281  0.0524  0.0118  0.2475
12735W        W28544   7.355   1.757   4.792 -0.2458 -0.1870 -0.0367
12736W        W28545  13.083   5.909  16.138 -0.4387  0.0678 -0.2479
12737W        W28546   4.144   4.093   6.198 -0.0024  0.2447 -0.0873
12738W        W28547   0.061   2.844  14.440  0.3171 -0.2383  0.0599
12739W        W28548   8.852  14.589   3.757 -0.0170 -0.1379 -0.1794
12740W        W28549  16.304   9.755  11.567  0.1734  0.0774 -0.1673
12741W        W28550  11.708   2.463  14.737  0.1076  0.0824 -0.1804
12742W        W28551   6.873   1.408  12.973 -0.0565 -0.1692 -0.1496
12743W        W28552  10.165   4.810   5.902 -0.2990  0.0766 -0.2737
12744W        W28553  10.614   4.240   3.326  0.0178 -0.2487 -0.0829
12745W        W28554  10.362   8.555   4.017 -0.0973  0.0790 -0.2446
12746W        W28555   5.809   3.198  14.434  0.1535 -0.2901 -0.2550
12747W        W28556   3.238  17.954  15.001 -0.0077 -0.1978  0.0841
12748W        W28557   2.482  17.956   4.881 -0.3938 -0.2362  0.0893
12749W        W28558  11.452   3.992   4.208  0.2660 -0.1405  0.0861
12750W        W28559   8.412  13.623  15.265 -0.1835  0.1196 -0.2463
12751W        W28560  14.303   5.472  12.648  0.0536  0.0007  0.1146
12752W        W28561  12.310   6.883   5.128 -0.2238  0.2273 -0.1099
12753W        W28562   3.823   8.521  14.894 -0.1095  0.1830  0.2356
12754W        W28563  14.763  15.963   2.353 -0.1979  0.1459  0.1665
12755W        W28564   1.428  11.616  12.251 -0.0543 -0.2006 -0.1499
12756W        W28565  15.518   0.676  11.731 -0.2278 -0.2405 -0.0024
12757W        W28566   1.965   1.141   1.493  0.3000  0.0453 -0.3500
12758W        W28567  12.166   0.681   1.385  0.0486 -0.1793 -0.1061
12759W        W28568   0.993   3.816   2.979 -0.3069  0.2130  0.1123
12760W        W28569   7.952   8.612   0.500  0.3578  0.0157 -0.4633
12761W        W28570  15.776   1.061   2.819  0.1223 -0.1882  0.2859
12762W        W28571   3.549  10.355  14.957  0.2466 -0.0553  0.3052
12763W        W28572   4.954   2.232   3.786 -0.1531 -0.2671 -0.2309
12764W        W28573   3.893   4.114  13.845 -0.1092  0.0042  0.0784
12765W        W28574  10.248   3.220  13.357  0.0483  0.0153  0.1867
12766W        W28575  16.427  16.968  10.817  0.0369  0.0304  0.0829
12767W        W28576  13.257  10.386   5.735 -0.0929  0.1937  0.1990
12768W        W28577  13.333   4.744   0.249  0.0685  0.1527  0.0502
12769W        W28578  11.993  15.384   2.775  0.1189  0.2032  0.1520
12770W        W28579  10.438   9.579  13.025 -0.1733 -0.2837 -0.2103
12771W        W28580  16.327   1.144  16.088  0.0098 -0.0700 -0.1361
12772W        W28581   8.649  16.835   3.565 -0.0241 -0.0435 -0.0360
12773W        W28582   2.159  14.224  12.168  0.0895  0.1770  0.1137
12774W        W28583  11.004   1.865   4.363 -0.2234  0.0801  0.0243
12775W        W28584   8.908   4.598  12.846  0.0689  0.2679  0.1213
12776W        W28585  10.326   4.291   5.140 -0.0532 -0.4072  0.0655
12777W        W28586   4.572  14.370  16.637 -0.1076  0.1083 -0.1186
12778W        W28587  13.667   6.407   5.403 -0.1990 -0.3366 -0.0872
12779W        W28588  10.012  10.621   3.813  0.0074  0.1167  0.1609
12780W        W28589  11.843   7.259  11.522 -0.3911  0.0262  0.4991
12781W        W28590  15.501   7.678   0.968 -0.0576 -0.0132 -0.0933
12782W        W28591   7.516   9.853   3.527 -0.0265  0.2658 -0.1710
12783W        W28592   3.204  11.222  14.903 -0.0250 -0.1160  0.0061
12784W        W28593   1.806  13.144   1.492 -0.0105  0.1419 -0.2613
12785W        W28594  12.269   4.357   3.918 -0.0018 -0.1125 -0.0135
12786W        W28595  17.703   3.785   4.547  0.1778 -0.3268 -0.0949
12787W        W28596  10.623  17.704   4.032  0.2413 -0.2368  0.2312
12788W        W28597  13.471   9.433   5.676  0.3039  0.3511  0.1459
12789W        W28598  11.797  11.543  14.236 -0.4966  0.0838  0.0104
12790W        W28599   6.286  13.369   4.475 -0.1283 -0.0003  0.0802
12791W        W28600  17.553  12.280  16.420 -0.3685 -0.0526 -0.1631
12792W        W28601   8.295  15.298  13.523 -0.0715  0.3810 -0.3157
12793W        W28602  11.875  12.740  12.569  0.0795 -0.1813  0.1788
12794W        W28603   4.195   3.392   0.195 -0.0652 -0.1310  0.0931
12795W        W28604   2.448   3.326   4.610 -0.2723  0.0162 -0.0644
12796W        W28605   6.931  10.453   9.882  0.1149  0.2479  0.1490
12797W        W28606  11.328  12.252  13.995 -0.1327  0.1764 -0.1777
12798W        W28607  14.988   1.973   3.719 -0.1038  0.0670  0.2371
12799W        W28608   2.284   7.556   0.278  0.1415  0.1619  0.0159
12800W        W28609  17.221  11.899   0.301  0.0852 -0.3474  0.1573
12801W        W28610   4.412   9.571   1.510  0.2802  0.4162  0.1894
12802W        W28611   4.632  12.358  13.166  0.1475  0.0478  0.0310
12803W        W28612  12.559   3.955  14.289  0.0755  0.2045 -0.1506
12804W        W28613  15.487   6.312  12.682 -0.1548  0.3237 -0.0981
12805W        W28614   1.378  15.308   1.742 -0.0265  0.0766 -0.1334
12806W        W28615  11.638   7.772  14.208 -0.3149 -0.3507  0.0788
12807W        W28616   3.130  14.869  15.051 -0.4231 -0.0945  0.3609
12808W        W28617  13.940   6.230   2.744 -0.0757 -0.0109 -0.2759
12809W        W28618   1.149   1.287  16.620  0.3371  0.1389  0.1185
12810W        W28619  16.875   0.877  14.286 -0.3724 -0.1983  0.2864
12811W        W28620  11.958   3.688   0.447 -0.3558  0.2775  0.0714
12812W        W28621   7.555   6.306  10.710  0.0490 -0.0075  0.1480
12813W        W28622  16.885  17.653  15.776  0.0453  0.0162  0.1040
12814W        W28623  13.692   6.679   0.819  0.0621 -0.1616 -0.2075
12815W        W28624   9.191   5.626   1.443 -0.0953 -0.0915  0.3712
12816W        W28625  13.370  14.395   2.921 -0.1281 -0.0627 -0.2213
12817W        W28626  12.215  17.004   0.442  0.2584 -0.0354  0.0165
12818W        W28627  15.932  17.134   0.061  0.1405  0.1834 -0.1030
12819W        W28628  13.586  13.555   2.181 -0.1086  0.0576 -0.3022
12820W        W28629   0.152  11.522  13.439  0.2313 -0.1751 -0.0184
12821W        W28630   4.481  14.514  15.600 -0.0360  0.0601 -0.0598
12822W        W28631  16.084   3.310   4.107  0.0204 -0.4205  0.0285
12823W        W28632   6.036   2.592  14.963  0.2145 -0.1331  0.0121
12824W        W28633   3.247  11.112   1.553 -0.2003  0.1602  0.0340
12825W        W28634  12.550  10.134  14.053 -0.1901  0.0649  0.2499
12826W        W28635   9.837  16.624   1.050 -0.0607 -0.5538 -0.1913
12827W        W28636  17.696   2.308  13.600  0.0074 -0.1718 -0.1567
12828W        W28637   3.518  14.172   1.053  0.3960 -0.0036 -0.0927
12829W        W28638   4.925   2.983  13.526  0.0504 -0.1428 -0.0890
12830W        W28639   9.214  17.361  15.728  0.2090  0.1672  0.1361
12831W        W28640   4.335  11.363  11.653 -0.0369 -0.2928  0.0102
12832W        W28641  13.052  11.614   3.616  0.1298  0.5431  0.1696
12833W        W28642  15.169  14.935   2.780 -0.1167 -0.0353 -0.2618
12834W        W28643   5.032   3.782   1.970 -0.0353  0.1899  0.2698
12835W        W28644  15.155  17.757  13.342  0.0882 -0.0188 -0.0568
12836W        W28645   3.446   5.374   0.901  0.0400  0.3492  0.1456
12837W        W28646   3.429  14.462   0.673 -0.2250 -0.1907  0.3573
12838W        W28647   7.259  16.041  16.493 -0.0294  0.0147 -0.0153
12839W        W28648  15.423   7.372   3.152  0.0988 -0.0575 -0.0733
12840W        W28649   5.435  17.543  11.192 -0.2912  0.1824 -0.1351
12841W        W28650  17.798  14.412  13.045 -0.0045 -0.2632  0.2504
12842W        W28651   3.230   9.351  15.991 -0.0946  0.0403 -0.1701
12843W        W28652  17.600  17.038  16.553 -0.1400  0.0290 -0.0461
12844W        W28653   7.825   5.381  13.339 -0.0414  0.0778  0.0054
12845W        W28654  12.993  10.073  15.932  0.0175 -0.0464  0.3498
12846W        W28655   2.693  11.164  16.422 -0.0554  0.1000  0.3042
12847W        W28656  17.707   3.035  14.806  0.1365  0.0183  0.1986
12848W        W28657  10.134   9.920   2.432 -0.3339 -0.0656 -0.0719
12849W        W28658  15.826  12.941  16.394  0.0824  0.1216  0.1858
12850W        W28659  17.346  12.480   0.127  0.0044  0.1319  0.1284
12851W        W28660   2.411  13.241   3.076 -0.0424  0.2782  0.0929
12852W        W28661   2.430  16.709   5.468 -0.2288 -0.0735 -0.0419
12853W        W28662   8.366   8.028  15.990  0.1804  0.0805 -0.0349
12854W        W28663   6.524  17.316  16.560  0.0561  0.0299 -0.0175
12855W        W28664   2.303  17.654  13.072  0.1624  0.0295  0.3802
12856W        W28665   7.540   1.335   0.001  0.1328  0.1292 -0.2923
12857W        W28666   5.595   1.588  15.893 -0.0785  0.1779 -0.4090
12858W        W28667   9.381   1.688   5.461  0.2533  0.1393 -0.0991
12859W        W28668   3.176   5.479   2.158  0.3915 -0.2514 -0.2923
12860W        W28669   7.507  11.497  14.384  0.0802  0.0482  0.1895
12861W        W28670  13.792   1.158  12.798  0.0664 -0.1170  0.0842
12862W        W28671  15.661   9.053  16.401 -0.0288 -0.0439 -0.0062
12863W        W28672   4.664  12.965  14.607  0.2622 -0.1564  0.0000
12864W        W28673   5.668  15.742   4.008 -0.0879 -0.0480  0.0694
12865W        W28674   4.439   9.107   0.927 -0.0275  0.0100  0.0921
12866W        W28675  10.855  15.958   5.666 -0.4094 -0.0439  0.1361
12867W        W28676  13.395  12.298  13.594 -0.2113  0.0288  0.2398
12868W        W28677   6.369  15.331   5.613  0.0633 -0.0562 -0.2950
12869W        W28678  16.510  13.662  14.791  0.5132  0.1341 -0.0835
12870W        W28679   9.455   8.318   1.688 -0.0739 -0.0201 -0.1134
12871W        W28680  11.446  11.932   5.580  0.0815  0.0016  0.0299
12872W        W28681   9.136   4.926   2.456 -0.0542 -0.0203 -0.0780
12873W        W28682  12.749   4.526  12.851  0.1795  0.1992 -0.2233
12874W        W28683   7.501  17.872   5.454  0.2219 -0.2820 -0.2417
12875W        W28684   3.803   9.223  16.611 -0.1511 -0.1028  0.0134
12876W        W28685   4.473  12.780  12.954  0.0401 -0.2945 -0.0123
12877W        W28686  16.041   2.024  13.094  0.2530 -0.2885  0.2559
12878W        W28687   4.406   6.159   0.555 -0.2458  0.2067 -0.1418
12879W        W28688  15.555  12.784   4.971  0.3020  0.0047 -0.0826
12880W        W28689  14.767  13.725   4.812 -0.0946 -0.0122  0.1590
12881W        W28690   3.722  16.232  13.732 -0.1501 -0.0249  0.0050
12882W        W28691   6.669   8.030  16.648 -0.1132 -0.3004 -0.1985
12883W        W28692  13.675  11.115   0.224 -0.0197  0.0314 -0.0484
12884W        W28693  11.054   8.271  11.689  0.0020 -0.1763  0.0529
12885W        W28694   4.517   7.140   0.390  0.0638  0.2302  0.1282
12886W        W28695   9.891   3.415  15.565 -0.1536  0.0431 -0.0618
12887W        W28696  12.489   5.916   3.338  0.1193  0.2096  0.0189
12888W        W28697   0.603   8.389  15.091  0.2363 -0.0419 -0.0984
12889W        W28698  11.126   5.786  10.974  0.0613 -0.0278  0.2164
12890W        W28699   4.361   9.425   3.711 -0.1427  0.0731  0.3398
12891W        W28700  14.586  12.289   3.343  0.0110  0.3207  0.2550
12892W        W28701   8.532  11.306  13.855 -0.0130  0.1289  0.4070
12893W        W28702  15.962   5.706  15.198  0.1319 -0.2076 -0.0204
12894W        W28703  10.106  16.028   5.975 -0.0186 -0.1081  0.2597
12895W        W28704   7.013   4.356  14.640  0.1965  0.0351  0.2646
12896W        W28705  11.425  14.495   1.184  0.0659  0.2595 -0.1246
12897W        W28706   1.393   8.545  16.439  0.0370 -0.2615 -0.1555
12898W        W28707  17.416   4.640  16.617  0.1595  0.1364 -0.1093
12899W        W28708   7.526   6.496  15.833  0.1199 -0.1337 -0.0692
12900W        W28709   1.566   6.583  13.394 -0.0952  0.1180  0.0956
12901W        W28710   7.165  13.581  13.453 -0.4050  0.1404  0.0221
12902W        W28711  15.029  17.239  10.757 -0.0563  0.1174 -0.3618
12903W        W28712   3.712  10.691   1.252 -0.0419  0.2342  0.0164
12904W        W28713  16.797   4.511   1.137 -0.0783 -0.1820  0.0173
12905W        W28714  11.210   2.993   0.973 -0.0225  0.4311  0.2974
12906W        W28715  12.909  15.421   4.694  0.0665  0.3639 -0.0901
12907W        W28716  13.191   4.443   3.054 -0.2329 -0.0044 -0.0521
12908W        W28717   1.886   7.042  12.402 -0.2459 -0.0285 -0.3009
12909W        W28718   9.912   0.021   3.527  0.0134 -0.1702 -0.4484
12910W        W28719  16.155  11.144   1.082  0.2180  0.2736 -0.1123
12911W        W28720   3.169  15.274  13.099  0.3474  0.0567 -0.1420
12912W        W28721   3.061   4.142  10.917 -0.0029 -0.1602  0.2245
12913W        W28722   0.898  17.951   5.404  0.1886 -0.1104  0.1697
12914W        W28723   1.669   1.714   3.361  0.3608  0.2461  0.2637
12915W        W28724  14.707   5.201   2.555 -0.1625  0.1105  0.1043
12916W        W28725   2.072  16.985   1.239 -0.0889  0.2227 -0.0045
12917W        W28726  17.621  14.928  14.152  0.1121  0.0273  0.2049
12918W        W28727   8.612  12.536  13.035  0.1281 -0.2092 -0.1088
12919W        W28728  14.789   5.744  13.830 -0.1783  0.1289  0.1835
12920W        W28729  15.138  16.671   3.256 -0.1062  0.1130 -0.2095
12921W        W28730   5.923   4.594  11.357  0.1312 -0.0481 -0.1629
12922W        W28731  16.139   2.724   1.821  0.0016  0.2728  0.0128
12923W        W28732  11.172   9.465  13.492 -0.0809  0.1002  0.2132
12924W        W28733  13.130   9.347  15.272  0.2504 -0.1058 -0.0592
12925W        W28734  13.017  13.932   5.819 -0.1021 -0.2446 -0.0224
12926W        W28735   8.111   6.319  16.386  0.0010 -0.2057 -0.3497
12927W        W28736  16.316   0.963  15.609  0.2306 -0.2346  0.5650
12928W        W28737   0.502  10.724  15.018  0.4335 -0.1333 -0.1595
12929W        W28738   5.588   1.846  12.028 -0.3728  0.5620  0.1043
12930W        W28739  13.559  15.124   3.004  0.0861 -0.1195 -0.1563
12931W        W28740  17.649  17.814   1.082  0.0945  0.1536 -0.1683
12932W        W28741   3.509   1.718   3.608  0.2518  0.1472 -0.4258
12933W        W28742  11.684  15.126  12.835 -0.0923  0.0021 -0.4700
12934W        W28743   4.671  17.728  16.262 -0.3413 -0.0433 -0.3315
12935W        W28744  10.010   0.601  12.847  0.1685 -0.1878 -0.0236
12936W        W28745  13.876   2.683  16.041  0.0720 -0.2475  0.1324
12937W        W28746   3.774  14.097   3.747 -0.0515 -0.0909  0.1102
12938W        W28747   7.379   8.868   5.786 -0.0902 -0.3575 -0.3195
12939W        W28748  15.008   8.692   2.528  0.0843 -0.0226  0.0456
12940W        W28749  15.703   8.356   1.797  0.5213 -0.3806 -0.2688
12941W        W28750  12.734   7.461   5.181  0.0304 -0.0060 -0.1036
12942W        W28751   5.415   3.863  16.078 -0.2950 -0.0363  0.0091
12943W        W28752  14.460   3.236   3.140  0.0353  0.0916  0.0161
12944W        W28753  11.061  10.042  14.532  0.1920 -0.3007 -0.1404
12945W        W28754   8.559   3.320  16.650 -0.0781  0.0335 -0.1739
12946W        W28755  11.868   7.289   2.772  0.0115 -0.2493  0.0026
12947W        W28756   0.772   5.684  12.624  0.1526 -0.2193  0.1865
12948W        W28757   5.227   3.158  15.262 -0.1157  0.0577 -0.0628
12949W        W28758  11.949  13.431   5.017  0.0570 -0.3120 -0.0343
12950W        W28759   9.323  11.050   1.355  0.0253 -0.5181  0.2079
12951W        W28760   1.508   7.622   4.328 -0.0155  0.2754  0.1646
12952W        W28761   4.658  11.605   2.350 -0.0642  0.1485  0.1425
12953W        W28762   5.497   4.883   2.562  0.2048 -0.0476  0.0964
12954W        W28763  12.903   4.377   3.531  0.1435 -0.1536  0.1572
12955W        W28764   0.581   2.639  14.470 -0.1563  0.2455 -0.1092
12956W        W28765  15.590   8.204   0.977 -0.2982 -0.2024  0.0749
12957W        W28766   4.479   4.675  11.781  0.0618 -0.0994  0.0776
12958W        W28767  16.632   9.001   4.398  0.0219 -0.1963 -0.0167
12959W        W28768   4.844   2.927  11.511  0.1018 -0.1102  0.0077
12960W        W28769   8.115   5.313  15.923 -0.2000  0.0157 -0.2329
12961W        W28770   0.761   9.763   2.183  0.0235  0.1594  0.0099
12962W        W28771   6.000   7.029  15.968  0.0632  0.0132  0.1782
12963W        W28772   7.964  10.759   4.847 -0.0104  0.3929  0.1371
12964W        W28773  13.686  16.214  15.050  0.1743 -0.3256  0.2419
12965W        W28774  10.051   6.065   2.758  0.0962 -0.1174  0.4166
12966W        W28775   2.269   7.973   5.471  0.0986  0.0435  0.1644
12967W        W28776   1.468  11.353  10.464  0.2231  0.2285 -0.0805
12968W        W28777   2.828   9.215   0.649 -0.3494 -0.2935 -0.0509
12969W        W28778  17.087   1.308   3.895  0.2812  0.0087  0.1107
12970W        W28779  13.714  11.545   1.136  0.2174  0.2023 -0.1050
12971W        W28780   4.392   0.602  13.889 -0.1484 -0.1826  0.4410
12972W        W28781   0.719  10.251  15.965  0.0574 -0.1456 -0.3091
12973W        W28782   1.225   7.780   3.427  0.1172  0.0182 -0.1315
12974W        W28783  17.361  16.164  12.806  0.0492 -0.0231 -0.0275
12975W        W28784  13.403   2.317   1.890 -0.1533  0.0021 -0.1687
12976W        W28785  14.325   1.938   1.748  0.3516 -0.1481 -0.1076
12977W        W28786   8.475   4.486  16.001 -0.1555 -0.0082  0.3432
12978W        W28787   1.391   5.875  12.609 -0.3063 -0.3309  0.2031
12979W        W28788   5.369   8.051   1.705  0.2371  0.0513  0.0421
12980W        W28789   7.988  12.000  12.823  0.1303  0.0105  0.1446
12981W        W28790  14.581   9.844   4.558  0.2288  0.0151 -0.1361
12982W        W28791   6.597  13.433  14.357  0.1108 -0.1043 -0.3247
12983W        W28792   1.368   7.858  11.216  0.0522  0.1553 -0.0945
12984W        W28793  15.073  17.697  14.459 -0.1120  0.0985 -0.4556
12985W        W28794  11.590  15.604  12.074  0.0358  0.0754 -0.1979
12986W        W28795   4.377   5.683   3.555 -0.0201 -0.2086 -0.0175
12987W        W28796   4.163  13.686   0.393 -0.2252  0.1543 -0.0799
12988W        W28797  14.279   6.965   5.027  0.1782 -0.1374 -0.1762
12989W        W28798   6.455  10.819   3.891 -0.1782  0.0855 -0.0086
12990W        W28799   4.604   6.129   1.458  0.0360  0.2810 -0.2464
12991W        W28800   0.989  16.372   3.980  0.1539 -0.3312  0.1559
12992W        W28801  14.151  10.861  12.907  0.2001 -0.1676 -0.2149
12993W        W28802   8.464  16.778  12.368 -0.2027  0.0485  0.0627
12994W        W28803  16.102   6.661  13.214 -0.1563 -0.1309 -0.0696
12995W        W28804   6.882   1.539   4.947  0.3051  0.0887 -0.4178
12996W        W28805   7.584   8.709  14.973  0.3203 -0.3121 -0.2721
12997W        W28806   6.514   9.952  14.287  0.1035 -0.4053  0.2141
12998W        W28807  12.929   1.096  12.976  0.2385 -0.1788 -0.1150
12999W        W28808  13.292  13.889  14.604  0.1719 -0.1137 -0.2321
13000W        W28809  13.751   3.710   1.657  0.0951 -0.1437  0.0256
13001W        W28810  13.497  16.862   2.906  0.0102  0.2085  0.1046
13002W        W28811   5.122   9.054  12.022  0.2203 -0.0446 -0.1710
13003W        W28812   4.711  16.051  10.660 -0.1654  0.0876  0.0526
13004W        W28813   6.728  10.493  13.539  0.0116 -0.2505 -0.0285
13005W        W28814   6.490  16.482  16.666  0.0782  0.0323  0.2872
13006W        W28815   8.053  14.596  14.029  0.1932  0.2277  0.0612
13007W        W28816  11.935  14.021  11.915 -0.0504 -0.1056 -0.2480
13008W        W28817  16.427  15.086  14.912  0.0067 -0.3303 -0.1775
13009W        W28818   3.731  16.733   4.031  0.3116  0.1783  0.2313
13010W        W28819   5.564  15.069   0.789 -0.0289 -0.1637  0.1083
13011W        W28820   3.743  15.834   1.681 -0.0182  0.1257  0.0661
13012W        W28821   9.506  10.383  12.423 -0.0106  0.3132  0.0717
13013W        W28822  12.835  11.513  11.985 -0.0514 -0.2024 -0.1135
13014W        W28823  16.957  14.628  14.409 -0.4129  0.5047 -0.1903
13015W        W28824   2.520  15.441  14.402  0.2554 -0.2353 -0.0177
13016W        W28825  13.576   9.125  15.328 -0.0675 -0.0542  0.3809
13017W        W28826   7.107  17.274  15.276  0.0820 -0.0745  0.1598
13018W        W28827   0.821   7.809  15.103 -0.1644  0.2223  0.2030
13019W        W28828  13.334   2.279  14.322  0.1110  0.1055  0.1120
13020W        W28829  15.911  16.415  13.799 -0.2041  0.1282  0.0022
13021W        W28830   7.356  13.589   3.271  0.0863  0.2012  0.1522
13022W        W28831   7.677   5.533  15.916 -0.2443  0.1100  0.3701
13023W        W28832   9.022   3.060  16.483  0.2749 -0.0405  0.3115
13024W        W28833   0.468  15.253  13.883  0.4691  0.1670  0.1688
13025W        W28834   1.346   3.366   0.016 -0.1075  0.2501  0.2037
13026W        W28835   1.705  12.018  14.044 -0.0265  0.1056 -0.3075
13027W        W28836   2.804   5.111  11.968  0.1053 -0.1381  0.4995
13028W        W28837   1.343  13.135  12.226  0.0108 -0.2285 -0.2197
13029W        W28838   1.411  15.847   1.725  0.0546  0.3227  0.0783
13030W        W28839   8.653   9.267   1.762  0.0963 -0.1690 -0.0671
13031W        W28840   7.864   0.528  15.572 -0.0061  0.1651  0.1011
13032W        W28841  13.678   9.965   3.782 -0.0072 -0.2636 -0.1741
13033W        W28842   8.964   7.352  15.084  0.1626 -0.0286  0.2457
13034W        W28843  11.861  11.874   0.473  0.4173 -0.1747  0.2392
13035W        W28844   1.399  13.257  11.313  0.4594 -0.1083 -0.1390
13036W        W28845   5.486   6.026   2.913  0.0703  0.0487  0.0694
13037W        W28846  12.149   6.034   5.319 -0.2054  0.1712 -0.0258
13038W        W28847   1.914   3.256  11.237 -0.1754  0.0827 -0.1852
13039W        W28848  11.510  10.050  15.753  0.0597 -0.1806  0.1538
13040W        W28849  15.562   6.570   1.120  0.2590  0.1068  0.0266
13041W        W28850   9.382  14.674  15.240 -0.0987 -0.1656  0.1633
13042W        W28851  16.788  14.855   5.124 -0.1100  0.1789  0.0538
13043W        W28852  10.677  14.686   2.266  0.1770 -0.4627 -0.0210
13044W        W28853   1.569   0.293   2.199 -0.1041 -0.0780  0.2806
13045W        W28854  14.413   2.089  14.910  0.2369 -0.0830  0.2733
13046W        W28855   1.172  10.440   2.333 -0.0966  0.1053 -0.2395
13047W        W28856  16.747   5.257   0.172  0.0174  0.0392 -0.2092
13048W        W28857   6.017   3.100  14.861  0.3591  0.1024  0.3234
13049W        W28858  13.357   9.179  14.828  0.1538 -0.2023  0.0065
13050W        W28859  11.948  16.846  16.394 -0.0965 -0.0856  0.1091
13051W        W28860  10.062   6.619   2.803  0.0485 -0.2670  0.1532
13052W        W28861   2.030  10.300   0.056 -0.1076  0.2375  0.1411
13053W        W28862   0.935   1.315   1.284  0.2514  0.0551  0.3883
13054W        W28863  16.875   8.192   4.169  0.1407  0.0099 -0.1352
13055W        W28864   3.018   2.247  12.191  0.0478 -0.1364 -0.2268
13056W        W28865   0.656   6.605   0.624 -0.2819 -0.0967  0.1465
13057W        W28866   5.466   4.514  15.704 -0.1360  0.1442  0.2090
13058W        W28867   5.063   8.029  13.491 -0.1403  0.1164 -0.1962
13059W        W28868   5.806   0.579  15.692 -0.0174 -0.0502 -0.2767
13060W        W28869   8.173   1.965   6.309 -0.0314 -0.1054 -0.1408
13061W        W28870  11.859   2.285  14.285  0.0458 -0.2960 -0.1161
13062W        W28871  17.614   9.036   2.454 -0.0853 -0.5209 -0.0262
13063W        W28872   0.299   1.997   2.539  0.0549  0.1033 -0.1513
13064W        W28873   5.054   9.549  12.714  0.0795 -0.3553 -0.1833
13065W        W28874   7.563   4.984  12.225 -0.0460 -0.0782  0.2382
13066W        W28875   4.926   0.604  11.425  0.0142  0.1325  0.1758
13067W        W28876   0.795  11.264   2.372  0.1646  0.0298 -0.1369
13068W        W28877   7.561  12.029  12.424 -0.1094 -0.0770 -0.0322
13069W        W28878  13.477  17.217  16.288 -0.0775 -0.2185 -0.2533
13070W        W28879   5.210   4.562  13.654  0.1906  0.2041  0.0956
13071W        W28880   1.595   5.627   2.336  0.1142  0.4037 -0.1376
13072W        W28881  11.460   9.555   1.016 -0.0013 -0.1250  0.0670
13073W        W28882   1.296   2.263   2.165 -0.0551  0.0314 -0.0243
13074W        W28883  11.643   4.544  15.972  0.1770 -0.1349  0.0786
13075W        W28884  15.824  11.584   5.220 -0.1570 -0.0199  0.0108
13076W        W28885  11.079   7.114  12.423  0.2548 -0.1565  0.0594
13077W        W28886  10.255   4.432  11.073 -0.0634 -0.1624 -0.2616
13078W        W28887   8.778   6.373  15.375  0.0134  0.0906 -0.2708
13079W        W28888   3.114  15.379   0.420  0.0554  0.0363 -0.1321
13080W        W28889  17.643  12.825   4.016  0.1077 -0.1020 -0.0997
13081W        W28890   5.125  12.856  15.347 -0.0691  0.1959 -0.1424
13082W        W28891   3.354  11.634   0.048  0.2134 -0.0541  0.1495
13083W        W28892   3.453   1.627   2.212  0.0258  0.2203 -0.1686
13084W        W28893  16.714  15.330   5.618  0.2449  0.2849  0.2539
13085W        W28894   5.783  14.620   2.702  0.0566  0.0759  0.0659
13086W        W28895   0.201  16.385  16.245 -0.1987 -0.3318 -0.1331
13087W        W28896   9.781   7.827   0.447 -0.2213  0.1468 -0.0805
13088W        W28897  10.962  15.584   0.756 -0.0288  0.3123 -0.2202
13089W        W28898   1.883  12.162   3.044  0.1230 -0.1046 -0.4187
13090W        W28899   6.167   2.626   4.973 -0.0060  0.0485  0.0614
13091W        W28900   9.492  12.677   1.812  0.1810 -0.2585  0.0366
13092W        W28901  13.751   3.806   0.531 -0.1139 -0.0193  0.1371
13093W        W28902   4.119  11.171   0.973 -0.0557 -0.0214 -0.0612
13094W        W28903   1.180   7.256  14.449  0.0021 -0.0144  0.0175
13095W        W28904  13.154   5.275   0.972  0.1479 -0.0312 -0.0007
13096W        W28905   9.308   5.325   3.184 -0.2193  0.0123  0.1257
13097W        W28906   5.632  14.974  15.136  0.0589 -0.1091 -0.1253
13098W        W28907   9.727   7.288   0.065 -0.0192 -0.3684 -0.1266
13099W        W28908   6.660   2.711   5.001 -0.1312  0.1109 -0.0073
13100W        W28909  11.147   2.985   2.880  0.0577 -0.2354  0.0132
13101W        W28910   2.808   7.301   0.831 -0.2689 -0.3636  0.0935
13102W        W28911   4.371   8.341   4.080  0.2241  0.0062  0.0048
13103W        W28912   0.963   3.537   3.552 -0.1569 -0.0209 -0.2607
13104W        W28913  11.298   0.930   6.074  0.0569  0.1309  0.1217
13105W        W28914  15.307   1.486   0.154 -0.0516  0.0383  0.2252
13106W        W28915   6.814  16.691   4.796 -0.1233  0.2241  0.2328
13107W        W28916  15.028   2.014   0.961  0.0646 -0.0132  0.2081
13108W        W28917   0.654  17.903  15.533  0.0034  0.2383  0.1375
13109W        W28918  15.767   1.989  14.018 -0.1266  0.1329 -0.1310
13110W        W28919  17.525   0.058   1.528  0.0673  0.0192 -0.2712
13111W        W28920  15.189  10.418  14.526  0.0488  0.1344 -0.0575
13112W        W28921  17.719   7.381  15.595 -0.1386 -0.2489 -0.1482
13113W        W28922  15.648   1.254   0.899  0.1613 -0.6279 -0.0171
13114W        W28923  16.579  15.059  14.052  0.1296 -0.1877 -0.0338
13115W        W28924  16.176  14.322  15.365  0.0616 -0.1328 -0.0127
13116W        W28925  16.093  15.137  14.265 -0.0286 -0.1628  0.0440
13117W        W28926   6.372   6.013   2.142 -0.0950  0.1629 -0.0565
13118W        W28927   4.384   1.396  16.176  0.0500 -0.0720  0.0433
13119W        W28928  17.232   2.518  16.083  0.0029  0.0283  0.1853
13120W        W28929  13.228  17.552  15.904  0.1191  0.1080  0.1217
13121W        W28930   2.902   8.204   3.621  0.2441  0.1263 -0.2001
13122W        W28931  16.229   8.140   1.418  0.1609 -0.0286 -0.2245
13123W        W28932  17.160   1.348  11.339  0.1026 -0.1061 -0.1903
13124W        W28933  13.607   5.936   3.923 -0.3770 -0.2699  0.0196
13125W        W28934  14.171   0.801  12.656 -0.1344  0.1573 -0.2484
13126W        W28935   4.743  13.389  15.593 -0.0825 -0.0864 -0.2495
13127W        W28936  15.375   5.175   4.569 -0.1361 -0.0320  0.3981
13128W        W28937   5.068   8.011   3.566 -0.1472 -0.0489  0.0965
13129W        W28938   9.187  15.080   2.578 -0.1135  0.0058 -0.0092
13130W        W28939   2.391   6.596  14.135  0.1579 -0.1811 -0.2085
13131W        W28940   6.823  14.198   3.429  0.2070 -0.2933 -0.0055
13132W        W28941   5.721   9.922  14.018  0.1748  0.3199 -0.0622
13133W        W28942   4.700  17.061   5.298  0.0626 -0.0019 -0.1403
13134W        W28943  12.349   7.650   2.231 -0.0280  0.0105 -0.1703
13135W        W28944   4.575   3.143   5.214  0.3406  0.1119 -0.1919
13136W        W28945   2.077  16.560  15.314  0.0731  0.1089 -0.1535
13137W        W28946   6.614   2.708  14.315 -0.0152  0.1146  0.1611
13138W        W28947   7.021   3.016  14.480  0.0532 -0.1677 -0.3355
13139W        W28948  15.800  13.086  14.819 -0.2208 -0.3169 -0.0628
13140W        W28949  15.195  10.957   5.387 -0.1415  0.0317 -0.0638
13141W        W28950   4.249  16.176   5.206  0.1505  0.2611  0.0419
13142W        W28951  14.668  15.072   0.688  0.0994 -0.1488  0.3829
13143W        W28952  10.125  17.545   1.086  0.3119 -0.4670 -0.2527
13144W        W28953   5.345   8.451   4.863 -0.2405 -0.0636  0.0260
13145W        W28954  12.438  13.363   2.567  0.0479 -0.0511  0.1765
13146W        W28955   2.804   5.414   4.706 -0.3359  0.1317  0.1435
13147W        W28956   3.625   7.203  16.538 -0.0802  0.2250  0.1454
13148W        W28957   2.112  12.078  12.558 -0.3397 -0.2741 -0.1961
13149W        W28958   5.862   4.159   4.084 -0.0368  0.0667 -0.1669
13150W        W28959   9.850   4.083   0.893 -0.1790  0.1656 -0.0947
13151W        W28960   1.995  16.286  13.209  0.3612  0.2440  0.0888
13152W        W28961  11.122  13.611  13.715  0.0146  0.0873  0.2307
13153W        W28962  16.726   3.804   4.835 -0.3251  0.2327  0.2765
13154W        W28963  17.279  16.936   3.718 -0.0181  0.1322  0.5200
13155W        W28964   0.254   5.451   4.107  0.1730  0.3609 -0.0301
13156W        W28965   8.878   3.333   2.851  0.0103  0.0183 -0.2493
13157W        W28966   1.795  14.389   5.286 -0.1795 -0.0519 -0.1777
13158W        W28967   8.029   5.518   3.258 -0.1488 -0.2413  0.1691
13159W        W28968   3.723   7.470   0.702 -0.1514 -0.1786  0.0803
13160W        W28969  16.493  12.190  12.679  0.0404  0.3484 -0.1962
13161W        W28970   2.048   0.351   2.336 -0.1160 -0.1812  0.0889
13162W        W28971  12.356   6.220  15.685  0.1232  0.1849  0.2533
13163W        W28972   2.080  14.394   0.283 -0.0773 -0.0802  0.1473
13164W        W28973   2.876  14.936   0.227  0.2894 -0.1058  0.0192
13165W        W28974   0.722  15.575   0.910 -0.0012  0.1095 -0.0062
13166W        W28975   2.379  16.222   0.591  0.1422 -0.0666 -0.1150
13167W        W28976   3.087   7.905   0.170 -0.1313 -0.0893  0.0401
13168W        W28977   4.861  10.570  12.025 -0.3554  0.2890 -0.0241
13169W        W28978  11.278  16.538  13.318  0.1229 -0.0450 -0.0325
13170W        W28979   3.201   9.858  10.828 -0.0887  0.1680 -0.1280
13171W        W28980   2.836   7.652  12.781  0.1077  0.2101 -0.0270
13172W        W28981   0.709  16.047   2.757  0.0197  0.1214 -0.2636
13173W        W28982  10.679  13.808  13.806 -0.0086 -0.0145  0.0357
13174W        W28983   9.260  13.848   4.046  0.1428  0.1296 -0.2875
13175W        W28984  13.128  13.898  16.688 -0.0097  0.2811  0.0397
13176W        W28985   0.101   4.854   1.266 -0.2050  0.1337 -0.1947
13177W        W28986   5.713  12.487  11.201 -0.1258  0.0049 -0.0310
13178W        W28987   1.096  13.026   0.513  0.2225  0.0886  0.0836
13179W        W28988   8.458  14.682  12.831  0.0970 -0.0773 -0.3108
13180W        W28989  15.543   4.478  13.877  0.2374  0.2528  0.0689
13181W        W28990  14.284   9.699   2.429  0.1604  0.0416  0.0355
13182W        W28991  15.811   3.720   5.173 -0.2539 -0.0943 -0.2284
13183W        W28992   6.595   5.977   0.277  0.1067  0.3357 -0.0623
13184W        W28993  15.268   1.052  12.085  0.0260 -0.3289 -0.2155
13185W        W28994   5.629   4.816  16.073 -0.1921 -0.1211  0.0068
13186W        W28995   3.388   0.241   3.193 -0.0715 -0.0499 -0.0362
13187W        W28996   5.873  14.416  14.881  0.1715 -0.0684 -0.0866
13188W        W28997   7.053   4.002   2.688 -0.0991 -0.0152 -0.0036
13189W        W28998  10.200  12.071  14.798 -0.0482  0.0384 -0.0800
13190W        W28999  12.621   8.483  13.090  0.1944 -0.0911 -0.1300
13191W        W29000   5.398   7.470   0.516 -0.2261  0.1149  0.0702
13192W        W29001   1.902   0.370   3.158  0.0973 -0.2447 -0.2252
13193W        W29002   3.209  11.184  11.166 -0.2339 -0.0749 -0.0540
13194W        W29003  10.578   4.299  16.479 -0.0587  0.0428  0.2025
13195W        W29004   2.699   2.417   1.455 -0.0258  0.2463  0.1639
13196W        W29005  16.711   8.906  14.346 -0.0590 -0.4847  0.5851
13197W        W29006  11.675  14.986   4.102  0.0464  0.1518  0.1316
13198W        W29007   5.913  13.299   3.175  0.0538  0.0478  0.0638
13199W        W29008  16.538   8.484  14.173 -0.0393  0.0480 -0.0578
13200W        W29009   8.757  12.685   3.933  0.0238 -0.1677  0.0459
13201W        W29010  13.680   8.330   5.662 -0.1528  0.0930  0.2388
13202W        W29011   0.014   9.757  12.398 -0.1397 -0.2144  0.0204
13203W        W29012   2.819   0.949  13.037 -0.0506 -0.1712 -0.1591
13204W        W29013   4.452  15.332  15.330  0.4504 -0.0066  0.0942
13205W        W29014   6.715  11.963   3.148  0.1500  0.0136 -0.1937
13206W        W29015   2.856   2.611   0.092  0.1227  0.0340  0.0685
13207W        W29016   1.777  17.874   1.617 -0.0128 -0.3963 -0.1576
13208W        W29017   2.173   8.762  10.813 -0.1345  0.0396 -0.1917
13209W        W29018   8.436  10.056   0.518 -0.0949  0.1288 -0.0957
13210W        W29019   8.705  10.611   2.600  0.1062 -0.0094 -0.3064
13211W        W29020   6.071  15.368  15.134 -0.0766 -0.1586 -0.0720
13212W        W29021   3.482  14.326  15.479 -0.1966 -0.1570 -0.0038
13213W        W29022   6.340   6.118   3.258  0.0114 -0.1277  0.0231
13214W        W29023   6.364  14.922  13.644  0.0405  0.1410  0.1609
13215W        W29024  11.034   4.405   2.390  0.1022 -0.3754 -0.3186
13216W        W29025  16.041   4.034  16.315  0.2519  0.1968  0.0788
13217W        W29026   4.029  14.218   0.130 -0.0058 -0.0624  0.2894
13218W        W29027   5.290  15.346   4.428 -0.0086  0.1570 -0.0699
13219W        W29028   8.193  10.217   5.285  0.3402 -0.0187 -0.1800
13220W        W29029   9.726   7.328  14.960  0.0193 -0.0714  0.1221
13221W        W29030  11.296   6.677   6.115 -0.1466 -0.2778  0.1214
13222W        W29031   8.477   3.867   2.200  0.0000  0.3188 -0.2561
13223W        W29032   9.906   3.073   1.940  0.1064 -0.1606 -0.1288
13224W        W29033   8.811   7.332  14.106 -0.1887 -0.0434  0.3629
13225W        W29034  17.693  12.964   5.782  0.0060 -0.2773 -0.0431
13226W        W29035  14.883   0.400   4.602  0.0961  0.1886 -0.1379
13227W        W29036   0.577  14.849   0.535  0.0335  0.1613  0.1561
13228W        W29037   1.702   5.113   4.229 -0.2303  0.0814  0.2677
13229W        W29038   8.995   8.323   5.330  0.1161  0.2612  0.0732
13230W        W29039   5.513  11.889   3.992  0.2126  0.0236 -0.1858
13231W        W29040   5.828  12.322  15.567 -0.0654  0.0022  0.1444
13232W        W29041  16.066  10.753  13.150 -0.2546 -0.2924 -0.1239
13233W        W29042   0.091   4.509  13.902  0.0208  0.2201 -0.0179
13234W        W29043   7.754  16.485   3.753  0.0195 -0.0040 -0.0524
13235W        W29044  13.691   6.534  12.438 -0.0144 -0.0136 -0.0492
13236W        W29045   9.675   3.751  13.716  0.1840 -0.0843  0.0600
13237W        W29046  10.983  12.414  13.612 -0.0251 -0.1219 -0.4370
13238W        W29047   8.285  15.818  11.985  0.0496  0.1027 -0.2505
13239W        W29048   5.108   2.688   6.364 -0.0831  0.4042 -0.1517
13240W        W29049   6.364   6.611   5.021 -0.1741 -0.0303  0.0056
13241W        W29050   6.288  14.008  14.719 -0.0561 -0.5481  0.2113
13242W        W29051   2.591   9.253   4.205 -0.0226  0.3508 -0.0672
13243W        W29052   7.627   2.103   0.796 -0.0055  0.0601 -0.0735
13244W        W29053   0.483   2.868   5.928 -0.2116  0.1707 -0.2986
13245W        W29054   9.251   7.570  16.025  0.0463  0.0237 -0.1269
13246W        W29055   1.651  12.108  12.274  0.1757 -0.2187 -0.1789
13247W        W29056  16.510   5.759  14.726 -0.0291  0.0092 -0.1062
13248W        W29057  10.633   5.245   1.906 -0.4813  0.0953 -0.1234
13249W        W29058   9.199   3.188   3.745 -0.0493 -0.0223  0.1624
13250W        W29059  17.798   9.659   2.250  0.0597 -0.1147 -0.0266
13251W        W29060   9.378   9.697   1.576 -0.1287 -0.1319  0.3274
13252W        W29061  15.534  14.924   6.057 -0.2642  0.0038  0.1834
13253W        W29062   3.761  15.086   3.790 -0.2821 -0.1895 -0.0814
13254W        W29063   9.245  16.933  12.101  0.0139 -0.1898 -0.1796
13255W        W29064  15.492  10.225  16.662  0.2371 -0.0172 -0.3843
13256W        W29065   4.566   2.483   1.187 -0.0096 -0.1334 -0.0663
13257W        W29066   8.431  17.735   4.571  0.2639 -0.0971 -0.1960
13258W        W29067   7.026   0.972  13.745 -0.3207 -0.0098 -0.2743
13259W        W29068  13.816   0.821  14.530  0.0914 -0.2307  0.0379
13260W        W29069   1.836  11.052   1.618 -0.1452 -0.2310  0.0422
13261W        W29070   2.118  17.549   1.864 -0.1403  0.0545  0.0454
13262W        W29071   7.829  17.318  15.124 -0.0920  0.0157 -0.1134
13263W        W29072  11.716   9.589   4.794 -0.0965 -0.0617 -0.0076
13264W        W29073   1.898  11.668   1.741 -0.3907 -0.1664  0.0648
13265W        W29074   5.752  11.151   2.536  0.2407  0.1043  0.1689
13266W        W29075  14.172  10.692   3.562  0.0230  0.1340  0.0985
13267W        W29076   2.853  16.680   1.800  0.2991  0.1890  0.1944
13268W        W29077   9.153   9.237   1.645  0.0974 -0.1096 -0.0928
13269W        W29078  16.878   3.862  15.706 -0.1231  0.0044  0.4706
13270W        W29079  14.898   3.279   5.068 -0.1928  0.1077 -0.2692
13271W        W29080   2.675   3.015   2.375  0.2100 -0.0635 -0.2438
13272W        W29081  11.139   3.483   2.905 -0.1760 -0.0493  0.1643
13273W        W29082  11.502   6.671  13.434  0.1282 -0.0911  0.0328
13274W        W29083  13.575   7.569   2.045  0.0854  0.0963 -0.2236
13275W        W29084   5.276   7.558  11.185  0.2104 -0.0867 -0.1106
13276W        W29085   7.130  10.758  14.919 -0.1647  0.0014 -0.2607
13277W        W29086   9.684   3.818   1.709 -0.0529 -0.2502  0.1237
13278W        W29087  17.270   1.885   3.836  0.1991 -0.0777  0.1344
13279W        W29088   0.522   4.205   1.621  0.3069 -0.1041  0.0527
13280W        W29089   3.096   0.513  13.363 -0.3283 -0.0955  0.1191
13281W        W29090   7.088   6.039   0.394  0.3951 -0.1730 -0.0033
13282W        W29091   1.897   6.450   3.742  0.3078 -0.1182 -0.0232
13283W        W29092  14.432  10.025   4.109  0.0045  0.1804 -0.1065
13284W        W29093  15.031  13.663   4.414 -0.0466  0.1904  0.0367
13285W        W29094  14.981   7.403   3.652  0.2125 -0.1883  0.0292
13286W        W29095   9.601  12.174  15.903 -0.2298  0.3976  0.0314
13287W        W29096   6.523   5.158  15.271  0.0512  0.1345  0.0469
13288W        W29097   8.371  11.147  14.367  0.0371 -0.2843  0.3828
13289W        W29098   1.585  10.841   4.346  0.1240 -0.2527 -0.1002
13290W        W29099  13.092  10.799  11.980  0.0445  0.1290 -0.0519
13291W        W29100   2.473   2.441   5.072 -0.2328 -0.2341  0.1146
13292W        W29101   0.157   0.391  14.372  0.1162  0.0648 -0.2603
13293W        W29102   3.296  10.087  15.314  0.3495  0.0309  0.3266
13294W        W29103   8.819  10.012   2.285  0.2575 -0.1880  0.1844
13295W        W29104   9.430  11.346   3.225 -0.0352  0.0605 -0.1699
13296W        W29105  15.011  17.343   4.545 -0.1654  0.0048 -0.0164
13297W        W29106  15.534  16.254  16.245 -0.1026 -0.0112 -0.0962
13298W        W29107  13.901   2.280   5.677 -0.1051  0.0124 -0.4415
13299W        W29108   9.970  10.133   3.453  0.0528  0.1303  0.2708
13300W        W29109  16.730   2.268   0.760 -0.3189  0.3013  0.2481
13301W        W29110   2.144  11.768   2.840  0.3028 -0.1427 -0.1948
13302W        W29111   5.449  12.453   0.951 -0.2141 -0.2607 -0.1705
13303W        W29112   3.516   7.120   2.824  0.1298 -0.2453 -0.1432
13304W        W29113  16.320   3.289   1.629  0.1692 -0.0978  0.0718
13305W        W29114  11.058   2.595   0.727 -0.0818  0.1728  0.2760
13306W        W29115   0.076  11.557   0.518 -0.4118 -0.0467  0.3262
13307W        W29116   6.468   9.200   4.694 -0.1929 -0.1939 -0.0884
13308W        W29117   4.993  13.897   3.757 -0.0238 -0.2242  0.1204
13309W        W29118   9.243   5.634  12.202 -0.2858  0.2385 -0.1568
13310W        W29119  12.823   0.775   5.646 -0.4335 -0.1326  0.0601
13311W        W29120   8.362  10.666   5.139 -0.3332  0.0099 -0.0174
13312W        W29121  14.773  13.858   3.594 -0.0297  0.0898 -0.0912
13313W        W29122   5.307   7.833   4.020  0.4128 -0.0185  0.0122
13314W        W29123  12.553   7.870  12.117  0.1906  0.0268 -0.2685
13315W        W29124  15.116   3.013   1.554  0.3071 -0.0855  0.1020
13316W        W29125  13.077   3.700  15.980 -0.0750 -0.1895 -0.1241
13317W        W29126  16.728  17.648   5.382  0.1468 -0.4341  0.1111
13318W        W29127   7.600   5.620   5.052 -0.0243 -0.2796  0.2974
13319W        W29128   7.545  14.754   3.167 -0.1908  0.0123 -0.0201
13320W        W29129  12.140   2.597   3.852 -0.0717  0.1180 -0.1071
13321W        W29130   4.513   7.135   1.275 -0.1055 -0.2074  0.0117
13322W        W29131  15.657   4.464  14.714 -0.3419  0.0578  0.1455
13323W        W29132  13.716  13.771  13.599  0.0056  0.0966  0.0177
13324W        W29133   7.113  10.358   1.568  0.0967 -0.1333 -0.2180
13325W        W29134  10.908   6.452  11.500  0.1968  0.0111  0.1369
13326W        W29135   9.813   4.364   2.873 -0.0992 -0.0546  0.0618
13327W        W29136   4.040  10.566  11.433 -0.1520 -0.2255 -0.0394
13328W        W29137  10.169   1.953   1.501 -0.0165  0.1630  0.1236
13329W        W29138  13.733  11.769   2.303 -0.4280  0.2055 -0.0598
13330W        W29139  10.088   2.589  12.365 -0.0768  0.0974 -0.2938
13331W        W29140   7.586   3.826   4.732 -0.0130 -0.0712  0.1621
13332W        W29141  16.750  16.807   5.811  0.2264 -0.0772 -0.1402
13333W        W29142  15.571   2.655  12.834 -0.0272  0.0033 -0.2077
13334W        W29143  14.335  14.650  14.428  0.2011  0.2296 -0.1372
13335W        W29144   6.666   9.818   1.527 -0.1644 -0.1339  0.0214
13336W        W29145  11.257   7.127   0.042 -0.0849  0.0628 -0.1693
13337W        W29146   6.306   0.792  11.727 -0.0551  0.2212 -0.1254
13338W        W29147  11.542  16.294  10.726 -0.1462  0.0153 -0.3338
13339W        W29148   0.573   5.032   0.490  0.2349  0.1150  0.1526
13340W        W29149  11.241  15.916   4.328 -0.3648 -0.0390 -0.1118
13341W        W29150   4.135   3.385   3.917  0.1246  0.0653  0.1773
13342W        W29151  16.215  11.721  15.297  0.2155  0.0982  0.0411
13343W        W29152  13.648   9.910  15.520 -0.1147 -0.0189  0.1463
13344W        W29153  17.055   2.855  11.272 -0.0975 -0.2086  0.0609
13345W        W29154   8.026   8.486   5.252 -0.1056  0.0647  0.0351
13346W        W29155   8.232   8.299   4.833  0.0489 -0.0646  0.1329
13347W        W29156  10.485  13.789   3.181 -0.1317 -0.0188 -0.1675
13348W        W29157   0.899   8.193   0.971 -0.3715 -0.2107 -0.3022
13349W        W29158   5.880   4.591  11.899  0.0696 -0.0409  0.0470
13350W        W29159   3.070  11.705   3.871 -0.0539 -0.0810  0.0453
13351W        W29160   3.861   5.158   0.740  0.3715  0.0997  0.1366
13352W        W29161   3.632   2.975   3.013 -0.2246  0.2227  0.3812
13353W        W29162  14.999   4.377  14.660  0.0480 -0.2727 -0.0998
13354W        W29163   7.519  17.188  13.657 -0.0426  0.0192 -0.1760
13355W        W29164  13.546  13.162  12.289  0.2898 -0.1900  0.0588
13356W        W29165   5.656   8.886   1.375 -0.1069 -0.0469  0.1988
13357W        W29166   9.410   3.987  14.589  0.0038 -0.1362  0.2573
13358W        W29167   0.644  14.761   1.360 -0.2153 -0.1310 -0.2381
13359W        W29168  13.078   2.019  11.992 -0.1604 -0.0372  0.1466
13360W        W29169   9.208   2.852  15.833  0.0108 -0.1076  0.0284
13361W        W29170   6.302  14.288   3.564  0.0923  0.0295 -0.1105
13362W        W29171   0.076   1.949  13.694  0.1483  0.1352  0.0775
13363W        W29172  17.289   5.019   2.781 -0.0860 -0.0667  0.1376
13364W        W29173   6.759   3.611   3.098 -0.1125  0.5336 -0.2944
13365W        W29174   1.577  15.117  16.276 -0.1872 -0.2423  0.0058
13366W        W29175   1.327   7.422   3.823 -0.1657  0.2587 -0.0288
13367W        W29176   4.780   0.935  15.580  0.0893 -0.0965 -0.3047
13368W        W29177   7.495   6.003   4.280  0.1554  0.1424  0.1850
13369W        W29178  14.472  11.518   3.715  0.0179  0.4242 -0.0485
13370W        W29179   5.886   5.698   0.812  0.0009  0.2364  0.2448
13371W        W29180  12.615   1.719   2.065 -0.0109 -0.1631  0.0863
13372W        W29181  16.826  13.546  15.492  0.2329  0.1618  0.0886
13373W        W29182  15.417  15.043  12.701  0.1642 -0.0181 -0.1814
13374W        W29183   4.289  12.207  14.831  0.0485 -0.0589  0.0823
13375W        W29184   7.870   3.445   2.746 -0.1864 -0.0061  0.0136
13376W        W29185   7.433  11.083   2.972  0.1487  0.0951 -0.0470
13377W        W29186  15.647  10.637   5.219  0.2561 -0.2179  0.1261
13378W        W29187  12.272   0.557  11.765  0.0528  0.3222 -0.2306
13379W        W29188  17.198   7.333   3.804 -0.0520  0.1302  0.1978
13380W        W29189   9.598   9.863   3.687 -0.2069 -0.1895 -0.0472
13381W        W29190   8.348   3.235   2.980  0.0214  0.0008 -0.2288
13382W        W29191   7.906   2.820  15.639  0.1446 -0.0298 -0.0348
13383W        W29192  16.277   5.855   3.698  0.0395  0.3160 -0.0136
13384W        W29193   6.741  11.260  15.586 -0.0165  0.1262  0.0795
13385W        W29194   6.621   2.492   1.507  0.1485  0.1421  0.0111
13386W        W29195   0.598  15.935  14.969 -0.2434 -0.0499 -0.1931
13387W        W29196  12.913  16.937  13.965  0.2384 -0.0252 -0.0918
13388W        W29197   9.853  17.819   0.153 -0.1093  0.1230 -0.1502
13389W        W29198   0.615   1.642  10.953 -0.0619  0.1873  0.0589
13390W        W29199  14.724   4.047  12.206 -0.3049  0.2361  0.0934
13391W        W29200   1.580  15.234  13.006 -0.0484 -0.1185 -0.2609
13392W        W29201   7.472   9.208   4.426  0.0013  0.1864 -0.4741
13393W        W29202  10.687  14.176   2.338  0.0826  0.0570 -0.2832
13394W        W29203   5.405   6.030   2.416 -0.0751 -0.1187 -0.2393
13395W        W29204   9.129  15.117  13.437  0.1119 -0.2267 -0.0118
13396W        W29205  14.291   4.627   3.944  0.1253 -0.2176  0.1623
13397W        W29206   7.244  17.662  12.819  0.0640  0.0582 -0.2239
13398W        W29207  11.163   1.908   1.472 -0.1572  0.2274 -0.1391
13399W        W29208   2.439   1.005   5.006  0.0751 -0.2686 -0.0601
13400W        W29209  12.251  11.057   5.615  0.1942 -0.0190 -0.0456
13401W        W29210   4.921   9.581  13.255 -0.0112  0.2193  0.2604
13402W        W29211   6.604   7.433   1.214  0.4076  0.1581  0.0302
13403W        W29212   9.260   7.175   5.005 -0.0447  0.1460  0.1985
13404W        W29213   0.646   3.321  10.828  0.1000 -0.0495 -0.1637
13405W        W29214   1.038   2.413   2.941 -0.0061  0.1908  0.2365
13406W        W29215   5.787  15.823   3.309 -0.1553 -0.2794  0.2197
13407W        W29216   9.683   6.444   4.580  0.0785  0.2076 -0.0681
13408W        W29217  15.452  14.550  15.348  0.2131 -0.1125  0.0978
13409W        W29218  17.421  13.735  16.090  0.1583  0.1098  0.0198
13410W        W29219   6.973  13.541   1.952 -0.0355 -0.1808 -0.1053
13411W        W29220   5.677   8.799   2.343  0.1371  0.0407  0.1273
13412W        W29221   2.384  14.425   4.175  0.1353 -0.1997 -0.0554
13413W        W29222   8.378  10.368  15.567  0.0251  0.1720  0.0529
13414W        W29223  16.686   3.112   0.286 -0.0573  0.3333  0.3629
13415W        W29224  15.382  11.188   0.468  0.3057 -0.0070  0.0021
13416W        W29225  14.298  10.213   3.614  0.2063 -0.2712  0.4285
13417W        W29226  14.409   7.727  14.279 -0.1133  0.1552  0.1527
13418W        W29227   9.231   2.551   4.006  0.1294  0.0669 -0.1430
13419W        W29228   7.787  15.929  16.660  0.0331  0.0407 -0.0904
13420W        W29229  15.250   8.026   5.279 -0.1945  0.0784  0.4952
13421W        W29230   1.143  11.217  12.353  0.2085  0.0107 -0.2885
13422W        W29231   8.575  13.670  12.621  0.0074  0.1132 -0.1253
13423W        W29232   1.941   9.558  13.428 -0.0777  0.0863  0.0447
13424W        W29233   1.974  11.673  14.341  0.1473 -0.0814  0.0737
13425W        W29234   2.564   9.628  15.361 -0.0253  0.1322  0.1019
13426W        W29235  13.399  13.673  14.006 -0.0449 -0.1085 -0.0559
13427W        W29236   7.132   4.973   2.545  0.1492 -0.0477  0.3849
13428W        W29237   8.414   1.930   2.496 -0.0184  0.0203  0.0215
13429W        W29238   3.980   5.855  12.149 -0.1094 -0.0902  0.2170
13430W        W29239  13.785  14.991  16.584  0.0483 -0.1100 -0.2679
13431W        W29240   6.769   6.574   1.626  0.2332  0.1173 -0.1101
13432W        W29241   2.387   3.015  14.242 -0.1187 -0.0076 -0.4121
13433W        W29242  13.389  16.392   3.061  0.0957 -0.2050  0.0173
13434W        W29243   6.437   3.507   3.741 -0.1192 -0.0545 -0.0933
13435W        W29244   1.542   7.802  13.511 -0.1597 -0.2285  0.2849
13436W        W29245   3.341   4.104  14.777 -0.0278  0.1101  0.0358
13437W        W29246   3.840  15.907  16.235  0.1077 -0.3550 -0.1112
13438W        W29247   0.230   5.793  15.840 -0.0387 -0.1351 -0.1866
13439W        W29248  12.838  14.118  13.805 -0.1940  0.3263 -0.1397
13440W        W29249   9.042  13.703   0.917  0.1405  0.0036 -0.1159
13441W        W29250   3.307  14.782   3.674 -0.3746  0.0722 -0.0163
13442W        W29251  14.433  13.141  16.174  0.1224  0.1567  0.0812
13443W        W29252   2.515  13.408  13.923  0.0961  0.3919 -0.2029
13444W        W29253   6.035   2.284   4.661  0.0879 -0.1034  0.1847
13445W        W29254  10.259  15.199  10.965 -0.0171  0.1324  0.2260
13446W        W29255  16.140   2.571  12.276 -0.2832  0.0784  0.2945
13447W        W29256   6.115  14.454   1.358  0.3331 -0.0154 -0.1535
13448W        W29257   8.848  11.734   0.752 -0.0239  0.0537  0.4997
13449W        W29258   1.195  17.821   4.193  0.1740  0.3028  0.2248
13450W        W29259   9.998  10.541   6.559  0.2418  0.0011  0.2986
13451W        W29260  14.284  10.827  13.749  0.0499  0.1047 -0.2604
13452W        W29261   3.179  17.171  15.509  0.1601  0.1102 -0.0120
13453W        W29262  11.177   8.664   1.854  0.0790  0.1701  0.0294
13454W        W29263  10.702   0.288   6.143  0.0799 -0.1251  0.0452
13455W        W29264  14.507  16.117   4.221  0.0754  0.1520 -0.2087
13456W        W29265   6.626  12.904  13.571 -0.0643  0.0463 -0.2099
13457W        W29266   8.279   8.042   3.109  0.1449  0.0270  0.0004
13458W        W29267  17.728   7.727  10.706 -0.3311  0.1571 -0.3575
13459W        W29268  17.038   6.125   2.001 -0.1550  0.1416  0.0146
13460W        W29269   2.674   8.059  15.216  0.0158  0.0804 -0.1397
13461W        W29270  16.266   4.689   5.218 -0.1343  0.1579  0.4544
13462W        W29271  14.073  16.480  13.301 -0.1339 -0.2309 -0.1996
13463W        W29272   4.352  14.496  13.234  0.1851  0.0521 -0.1674
13464W        W29273  10.378  12.623  13.843  0.1401 -0.0065 -0.1125
13465W        W29274  13.625  17.723   0.566 -0.4059  0.0629  0.1264
13466W        W29275  11.236  14.993   4.428  0.0499 -0.0534  0.2456
13467W        W29276   0.058   7.925   0.559 -0.1338  0.0055 -0.1540
13468W        W29277  13.736   2.530   1.070  0.2972 -0.2224  0.1112
13469W        W29278  17.793   8.896   0.729 -0.0551  0.2145 -0.0827
13470W        W29279  16.673   4.511  15.256  0.0370 -0.0552  0.4856
13471W        W29280  15.273   8.732   4.211  0.3245 -0.0209  0.1319
13472W        W29281  17.697   6.739  14.344  0.0967  0.2772 -0.1691
13473W        W29282  15.284   5.251   1.561  0.0109 -0.0519  0.0340
13474W        W29283  10.946  16.194  13.408 -0.0619 -0.1775  0.0272
13475W        W29284  14.603   2.312   1.134 -0.1117 -0.0875  0.1384
13476W        W29285   0.671   1.250  10.083 -0.1887 -0.0584  0.0333
13477W        W29286   6.659  14.329  12.265  0.1858 -0.0020  0.2453
13478W        W29287   2.280   2.270   1.297  0.1537  0.1606 -0.0990
13479W        W29288   4.718  12.695  13.496  0.2092 -0.0424 -0.1386
13480W        W29289   8.728  15.036   3.483  0.2819 -0.0159  0.1440
13481W        W29290   6.813   0.644  11.589 -0.0463  0.1240  0.0666
13482W        W29291   2.826   8.384   0.297  0.1149  0.0555  0.3019
13483W        W29292  10.783   3.049   1.912 -0.3537 -0.0381 -0.4898
13484W        W29293  15.755   1.773   2.525 -0.1680  0.0879  0.2137
13485W        W29294  13.816  15.878  11.023  0.0801  0.0207 -0.0015
13486W        W29295  12.261   0.373  13.885 -0.0695  0.3542  0.3158
13487W        W29296   8.267  17.122   0.708  0.0912  0.0900 -0.0301
13488W        W29297   1.414   7.515  15.893  0.1654 -0.1376  0.3245
13489W        W29298  13.437  10.975   1.225  0.0996  0.2418  0.0677
13490W        W29299   2.138   8.580   1.779  0.1616 -0.0271  0.1353
13491W        W29300   3.387  13.925   3.528  0.0727  0.2855 -0.0906
13492W        W29301  11.175   5.240   5.099  0.2174  0.1382 -0.1184
13493W        W29302   8.851   4.553   4.055 -0.0631 -0.1407 -0.2241
13494W        W29303  10.429  13.707   0.582 -0.3889  0.1845 -0.1124
13495W        W29304   2.803   9.272  16.378 -0.1847  0.0143 -0.1759
13496W        W29305  15.622   5.633  13.912 -0.2669 -0.0494  0.2089
13497W        W29306  17.240  13.773   4.184 -0.4260  0.1477 -0.0327
13498W        W29307  10.610   6.234   5.020 -0.2428 -0.1887  0.1843
13499W        W29308  15.641   9.140   4.870  0.2693  0.2876  0.0324
13500W        W29309  10.033   2.163  13.042  0.0821 -0.0726 -0.0434
13501W        W29310  13.166  16.294   2.558  0.0229  0.1676 -0.0166
13502W        W29311   8.130   9.444  16.161 -0.0279  0.2045  0.0065
13503W        W29312   6.252   5.404  16.621 -0.1464 -0.0876  0.0785
13504W        W29313   7.680   7.859  13.423 -0.0093  0.0388  0.0904
13505W        W29314   2.758   6.946   4.579  0.3675  0.1620 -0.2443
13506W        W29315   2.080   7.987   3.382 -0.2097  0.1479 -0.3665
13507W        W29316  16.614   0.586   2.308 -0.0633 -0.2858 -0.2199
13508W        W29317  12.377  15.136  12.270  0.2873 -0.2036  0.0561
13509W        W29318  11.225  15.937  12.286 -0.1986 -0.0499 -0.1195
13510W        W29319  11.538  14.267   2.203  0.1384  0.1646 -0.1211
13511W        W29320  17.048   9.390   4.516  0.2947 -0.1710  0.0604
13512W        W29321  17.519   1.587  15.452 -0.3993  0.0624 -0.0523
13513W        W29322   8.965  13.442  10.748  0.1386  0.2505 -0.0566
13514W        W29323   6.371  11.557  13.637  0.1514  0.1908  0.0396
13515W        W29324   2.473  16.994  14.727  0.2185  0.0650  0.2205
13516W        W29325   0.550   6.199   4.250  0.0209 -0.1848 -0.0092
13517W        W29326   2.276   7.574   4.026  0.4520  0.2276 -0.1049
13518W        W29327   8.590  16.428  15.676  0.0873 -0.2092 -0.1548
13519W        W29328   8.169   4.184  14.157 -0.1455  0.3972 -0.1357
13520W        W29329  16.251   1.042   2.062 -0.1853  0.0189  0.0036
13521W        W29330   3.708  14.275   4.234  0.0283 -0.1096  0.1743
13522W        W29331   1.545  17.720   0.296  0.0836 -0.1398 -0.1562
13523W        W29332  14.527  12.849  15.366  0.1856 -0.2697  0.0805
13524W        W29333  14.519   2.376   3.077  0.2640  0.1218 -0.1858
13525W        W29334  17.280  11.360   0.209  0.1644  0.2641 -0.0727
13526W        W29335  14.228  11.723  16.533  0.0105  0.0829  0.0941
13527W        W29336  12.600  13.195  16.372 -0.0394  0.1458  0.2282
13528W        W29337   4.306  10.512  14.107  0.0526  0.1051  0.1918
13529W        W29338   0.603   6.761  13.748 -0.0158  0.0610  0.2642
13530W        W29339  17.863   2.180   1.453 -0.0478 -0.0014  0.0052
13531W        W29340   2.408   0.497  14.085 -0.0294 -0.0976 -0.0643
13532W        W29341   7.887   7.161  11.517 -0.0870  0.2130  0.0576
13533W        W29342   9.679  17.065   4.407 -0.1215  0.1556  0.0585
13534W        W29343   3.352   0.226   0.808  0.0626  0.0270 -0.0848
13535W        W29344   7.768   2.673   5.441  0.2310 -0.2222  0.1160
13536W        W29345   8.923   4.777  14.295 -0.1110 -0.0308 -0.1176
13537W        W29346   6.613  17.647   4.607 -0.1611 -0.2729 -0.0524
13538W        W29347  16.766   1.341  15.821  0.1218  0.0283  0.2396
13539W        W29348  15.455   8.319  15.102 -0.2074  0.2361  0.0823
13540W        W29349   0.778  14.976   3.463 -0.0634 -0.2705  0.1987
13541W        W29350  17.721   5.247   3.339  0.1752 -0.0821  0.0526
13542W        W29351   3.526   4.180   0.794  0.0402  0.0787 -0.2163
13543W        W29352   1.653  12.517   2.317  0.1393 -0.2581  0.1745
13544W        W29353  17.632   6.413   1.997 -0.2351 -0.0068  0.1385
13545W        W29354   6.646   8.138   5.004  0.1117 -0.2880 -0.1273
13546W        W29355  17.103  15.602  14.270 -0.0191 -0.0579 -0.1171
13547W        W29356   0.700   2.578  12.571  0.0265  0.0756  0.1001
13548W        W29357   3.838   4.637  14.700 -0.1218  0.3299  0.0887
13549W        W29358   8.195  17.698  15.274  0.1276  0.1576  0.3235
13550W        W29359   5.381  12.210  13.800 -0.1884  0.2799 -0.2190
13551W        W29360  10.836   4.710   4.274 -0.3690  0.1474  0.0716
13552W        W29361  12.133  13.027  10.671 -0.2354  0.0322 -0.1511
13553W        W29362  15.733   5.889  11.568  0.0302 -0.0415  0.2542
13554W        W29363   6.467  10.969   1.508 -0.0411 -0.1333 -0.0650
13555W        W29364   8.011  16.654   0.664 -0.1346 -0.0105 -0.0784
13556W        W29365   4.733  12.268   0.189  0.0032 -0.0327  0.0129
13557W        W29366  12.523  15.596   0.057  0.2780  0.2557 -0.1415
13558W        W29367  12.702  11.750  15.673  0.2400 -0.0063  0.1449
13559W        W29368   0.125   7.984   3.076 -0.2144  0.1326 -0.0430
13560W        W29369   4.880  16.030  11.197  0.2304 -0.1257  0.1172
13561W        W29370   5.851   6.822   1.404  0.2617 -0.0456  0.0220
13562W        W29371   5.772   3.021  15.306  0.1470 -0.0058 -0.1364
13563W        W29372  15.861   5.997   5.582  0.0790 -0.0840  0.0257
13564W        W29373  16.253  15.490   0.452 -0.0378 -0.1189 -0.2249
13565W        W29374   4.494   4.174   3.619  0.1684 -0.1359 -0.2331
13566W        W29375   8.409  14.328   1.905 -0.2124  0.0335 -0.1459
13567W        W29376   1.361   0.026  12.567 -0.0119  0.0224  0.3647
13568W        W29377  13.445   3.273   4.315  0.0336 -0.3973  0.2059
13569W        W29378  15.384   9.271  14.863 -0.1677 -0.1044 -0.2326
13570W        W29379   0.123  12.772   6.116 -0.0556 -0.1458 -0.1317
13571W        W29380   2.852   2.095   5.000 -0.1894  0.2749  0.1872
13572W        W29381   2.880  10.244  13.250  0.1363 -0.1859  0.2132
13573W        W29382   2.815  12.584  11.014 -0.0088  0.0124  0.2633
13574W        W29383  12.104  15.068  16.040 -0.0083  0.2568 -0.0730
13575W        W29384   0.266   8.120  12.225 -0.1350  0.1986 -0.1171
13576W        W29385   3.660   9.445   2.695  0.0635 -0.1960  0.2419
13577W        W29386  15.761   5.968  15.599 -0.3344 -0.1254 -0.0180
13578W        W29387   8.924   3.932  14.289 -0.1712 -0.1677 -0.1658
13579W        W29388  15.586  14.871   2.542  0.3366 -0.1608  0.1169
13580W        W29389   2.627   1.031  13.951 -0.0849  0.3695 -0.0599
13581W        W29390  12.615  15.326  15.712 -0.1460  0.2121 -0.2300
13582W        W29391   2.547  17.148   2.800  0.1491 -0.1412  0.0418
13583W        W29392  10.321   2.128  15.070 -0.1163  0.1086 -0.0511
13584W        W29393   2.838  15.028  12.758 -0.2506 -0.0675 -0.1036
13585W        W29394  14.989  16.886   2.479  0.1409  0.3188  0.0495
13586W        W29395  10.926   1.806  16.316 -0.1454 -0.0922  0.1765
13587W        W29396  14.675  13.785   6.949 -0.0111 -0.1062 -0.4280
13588W        W29397   1.649   8.024  16.488  0.3020 -0.0011 -0.1293
13589W        W29398   1.362  17.556  12.365  0.1251 -0.0062 -0.0274
13590W        W29399   4.445  14.519   3.011  0.0741  0.0404 -0.0311
13591W        W29400   0.709   2.119   1.328 -0.1908  0.5022 -0.2298
13592W        W29401   5.411   6.243   5.395  0.3520  0.1415  0.3225
13593W        W29402   1.839   2.694   0.633  0.0992 -0.0412 -0.1135
13594W        W29403   2.480   2.260  13.518 -0.0287  0.0082  0.1286
13595W        W29404   6.457   6.603  15.358  0.1786 -0.0441 -0.1665
13596W        W29405  10.574   0.925  15.300  0.3049  0.1826 -0.1556
13597W        W29406   6.116  12.552  16.247 -0.2833 -0.0370  0.1637
13598W        W29407   4.143   6.697  10.127  0.2017 -0.0452 -0.1851
13599W        W29408  13.931   2.446   2.252 -0.1038 -0.0802  0.1349
13600W        W29409   8.894   5.995  14.354  0.1105  0.4208  0.0924
13601W        W29410   2.901  12.086   2.501  0.0160 -0.2298  0.1330
13602W        W29411   3.425   6.262  15.746  0.2083 -0.0375 -0.0208
13603W        W29412  12.619  12.112  13.178 -0.1837 -0.0819 -0.0195
13604W        W29413  16.142   9.702  12.053 -0.2759  0.0491  0.0494
13605W        W29414   3.589   9.141  13.192  0.2836  0.1304  0.0046
13606W        W29415   0.789   9.933   0.964 -0.2717 -0.3445  0.1697
13607W        W29416  16.286  13.425  13.078 -0.0386  0.1317  0.1801
13608W        W29417  16.121   8.079  16.081 -0.0756  0.0807  0.1688
13609W        W29418  14.226  13.657   6.709  0.1676 -0.2928 -0.1551
13610W        W29419   9.599   7.909   2.038 -0.2819  0.0039 -0.1518
13611W        W29420  17.426  13.651  14.452 -0.1667 -0.3801  0.2385
13612W        W29421  16.584  12.223  15.979 -0.0352  0.3306  0.0535
13613W        W29422  14.844   5.328  12.523  0.1502  0.0949 -0.0268
13614W        W29423  10.931   6.798  15.452  0.0571  0.2274 -0.0359
13615W        W29424  16.292  11.473   5.476  0.0759 -0.2983 -0.1932
13616W        W29425   7.314  10.064   4.205 -0.2306  0.1058 -0.0680
13617W        W29426   9.373   6.635  16.548  0.0018 -0.2993  0.0375
13618W        W29427   2.588   9.713  15.918  0.0340 -0.0250  0.1899
13619W        W29428   0.668  13.627   3.364 -0.0681 -0.0590 -0.2520
13620W        W29429  13.934   0.768  15.038 -0.0782 -0.1096  0.0134
13621W        W29430   3.639   1.714  14.501 -0.1793 -0.0472 -0.1865
13622W        W29431   1.085  16.791   4.349 -0.0594 -0.1274 -0.1274
13623W        W29432  14.237  12.257  15.651 -0.0553  0.1393  0.0760
13624W        W29433   1.660   8.847   4.134  0.0906 -0.0596 -0.1359
13625W        W29434   7.454  12.525  14.221  0.0166  0.0437  0.1637
13626W        W29435   9.535  13.536   1.714 -0.2790  0.2811  0.0988
13627W        W29436   5.453  14.434  12.181 -0.3252  0.2310  0.0019
13628W        W29437  11.846  16.933  12.534  0.1017 -0.1027  0.1370
13629W        W29438  10.880   6.077  13.461  0.0016 -0.1802  0.1229
13630W        W29439  17.307  13.461   5.465  0.0013 -0.0107 -0.2973
13631W        W29440  16.748  10.977  15.135  0.1400  0.0269 -0.0691
13632W        W29441   4.240  17.376  15.384 -0.7024  0.0497 -0.4431
13633W        W29442  14.960   6.015   1.032  0.0557  0.0121  0.0249
13634W        W29443  15.973   1.423  12.803  0.0767  0.1616  0.0599
13635W        W29444   2.957  17.677  15.339 -0.0023 -0.1074 -0.2435
13636W        W29445   0.259   3.269   3.382 -0.0273  0.5209  0.0566
13637W        W29446   3.282  13.878   2.296 -0.0029 -0.1456 -0.0232
13638W        W29447  15.478   8.482   2.668  0.3565 -0.0767  0.0080
13639W        W29448  16.120  16.756   6.372  0.1576  0.2571 -0.1508
13640W        W29449   5.977   6.037  13.708 -0.1587 -0.1123  0.4515
13641W        W29450  14.909   1.275   4.669 -0.1167 -0.0087 -0.0236
13642W        W29451  13.911  11.017   6.476 -0.2501  0.3637  0.0685
13643W        W29452  11.823   7.359   0.705  0.0785  0.1164 -0.0432
13644W        W29453   6.140  17.754   2.365 -0.0633 -0.4791 -0.0554
13645W        W29454   7.536   7.380   3.132  0.0867  0.0129 -0.2807
13646W        W29455   7.658  10.013   5.296 -0.0033  0.1187  0.1987
13647W        W29456   1.360   3.354   2.608 -0.1972  0.0937 -0.2189
13648W        W29457   8.234   4.073  11.132 -0.0652  0.1104 -0.4761
13649W        W29458  13.971  10.287   4.005 -0.2411  0.0085 -0.0398
13650W        W29459   8.934  12.548   5.526  0.2431  0.0573 -0.0001
13651W        W29460   3.290  10.543  12.042  0.0000  0.2080 -0.2898
13652W        W29461  10.829  10.367  14.135  0.1187  0.0692  0.4323
13653W        W29462  12.191  17.739  13.077  0.0729  0.1574  0.1219
13654W        W29463  12.857  17.816  14.909 -0.2038 -0.1618  0.0021
13655W        W29464   9.873  12.420  14.037  0.1522 -0.0988  0.2512
13656W        W29465   9.376  14.574   0.710  0.3924  0.1344 -0.0324
13657W        W29466  15.041   9.797   5.079  0.0952 -0.1359  0.2196
13658W        W29467   3.823  10.837   0.004 -0.2814 -0.1264  0.1053
13659W        W29468  10.164   4.183  16.711 -0.2216  0.0951  0.0452
13660W        W29469  14.684  12.042  14.002  0.0633  0.5379 -0.2529
13661W        W29470  11.583   5.217  13.616  0.2480  0.0113 -0.0115
13662W        W29471  13.366  15.104   6.132  0.2343  0.0248 -0.0600
13663W        W29472  12.690   6.341   6.508  0.2293 -0.1401 -0.0613
13664W        W29473   4.927   8.480   0.493 -0.0081 -0.2542  0.1086
13665W        W29474  14.215  10.209  16.475 -0.0597 -0.2252 -0.2933
13666W        W29475   4.788   4.840  16.681  0.3138 -0.1519  0.1617
13667W        W29476  11.525   3.090   3.241  0.5005  0.0157 -0.0820
13668W        W29477   5.058   7.219  15.095 -0.0007  0.0089  0.1572
13669W        W29478   7.902   0.251  12.294  0.0947 -0.2041 -0.1392
13670W        W29479   2.909   9.265  11.691 -0.0226 -0.0538  0.2517
13671W        W29480   0.517   9.488  12.010  0.3989  0.2615 -0.0604
13672W        W29481  14.432   7.135  15.134 -0.1556 -0.1368 -0.1411
13673W        W29482  13.247   1.995   0.479 -0.0346  0.0727 -0.1230
13674W        W29483   1.160   3.823   0.853  0.0077  0.0126  0.3284
13675W        W29484  13.993  14.275   1.975 -0.0847 -0.0592 -0.0934
13676W        W29485   1.038   0.253   4.648 -0.1211 -0.0626  0.0397
13677W        W29486   2.775  17.824  14.856 -0.2041  0.0621 -0.0935
13678W        W29487   3.426   0.604   2.401 -0.1381  0.1934  0.2154
13679W        W29488   6.262   8.617   3.755  0.1379  0.2082 -0.2988
13680W        W29489   9.482   0.255   1.724  0.0524 -0.1376  0.0773
13681W        W29490  14.431   4.984   4.330 -0.0557  0.0792 -0.0619
13682W        W29491  12.449   1.473   0.329 -0.0642  0.3024  0.1339
13683W        W29492   4.263  14.270   5.432 -0.0282  0.0137 -0.2906
13684W        W29493   9.537  12.237  16.383 -0.1845 -0.1897  0.1318
13685W        W29494  10.437  16.379   0.405 -0.1615  0.0020  0.1937
13686W        W29495  12.871   9.221   4.839  0.1237  0.1942 -0.2528
13687W        W29496   5.912  14.046   0.427  0.0088 -0.1668 -0.0403
13688W        W29497   3.589   3.883  14.320 -0.3397 -0.2204  0.0942
13689W        W29498   9.549   9.832  14.354  0.3423 -0.2408  0.0253
13690W        W29499   2.741   4.935  16.523 -0.1063 -0.1188  0.1340
13691W        W29500  10.256   1.637  13.834 -0.1199  0.1326 -0.1842
13692W        W29501   8.372   5.317   2.521 -0.1524 -0.0550  0.0828
13693W        W29502   5.598  15.301   4.872 -0.0465 -0.0060  0.2263
13694W        W29503   4.187   0.521   0.747  0.0773 -0.0042  0.0342
13695W        W29504  15.349   4.936  13.529  0.0319  0.5187 -0.5417
13696W        W29505  10.023   9.756   0.926 -0.0330 -0.1081 -0.0404
13697W        W29506  12.632  16.032   2.172 -0.3048  0.1684  0.1116
13698W        W29507   7.120  12.428  16.666  0.1128  0.1063 -0.4614
13699W        W29508  13.158   2.933   3.372  0.2980 -0.0877  0.0356
13700W        W29509   8.408   4.627  12.833 -0.1297  0.1059  0.1135
13701W        W29510   2.660  11.708  10.905 -0.0906  0.0572 -0.1224
13702W        W29511   5.158  14.378   0.610  0.0714  0.4200  0.2711
13703W        W29512  10.928   2.396   3.463 -0.0761 -0.0676  0.2467
13704W        W29513   1.503  15.913   0.204  0.2183  0.0614 -0.2130
13705W        W29514  11.539  17.720  14.311 -0.3185 -0.0402  0.1181
13706W        W29515  11.494   6.176   3.954 -0.1851 -0.0162  0.0637
13707W        W29516  15.337   7.643   4.809  0.1368 -0.0617 -0.0359
13708W        W29517   5.392   4.963  12.621 -0.2810 -0.2736  0.1370
13709W        W29518  10.347  15.710  11.726  0.0792 -0.1883  0.0093
13710W        W29519  12.403  12.499   5.675 -0.1913  0.0118 -0.2009
13711W        W29520   1.811   7.882   1.573  0.0006  0.0747  0.0425
13712W        W29521  17.005   0.630   4.432  0.0343 -0.0392 -0.1275
13713W        W29522  16.412  17.662  14.054  0.1039 -0.4442  0.0854
13714W        W29523   2.044  10.833   2.864 -0.1926  0.0598  0.1240
13715W        W29524   4.124  17.594   3.646 -0.1272 -0.1781 -0.2821
13716W        W29525  14.345  15.528  15.572  0.1112  0.0909  0.1922
13717W        W29526  14.988  15.370  12.779 -0.0793  0.0624  0.0986
13718W        W29527   1.421  14.793  11.892  0.1036  0.1493 -0.1580
13719W        W29528   4.846  12.232  11.675  0.0719 -0.0329 -0.1866
13720W        W29529   7.431   9.634  14.290  0.1777 -0.1128 -0.2295
13721W        W29530  14.183   8.395  13.817 -0.0894 -0.2148  0.0877
13722W        W29531   7.036   8.276   3.722 -0.2394 -0.1107  0.2274
13723W        W29532  16.752  14.389   0.309 -0.0945  0.1623  0.1106
13724W        W29533   6.330  16.588  12.442  0.0980  0.1668 -0.0859
13725W        W29534  11.256  17.773  12.607 -0.1881  0.2049  0.0800
13726W        W29535   2.400   5.649   4.746  0.1196 -0.0205 -0.2308
13727W        W29536  15.696   8.015  13.129 -0.1774  0.1758  0.1079
13728W        W29537   3.868  16.328   2.859 -0.1162  0.3196 -0.0044
13729W        W29538   3.940   6.977   4.182  0.0421 -0.2544  0.0626
13730W        W29539  17.251  14.994  13.187 -0.0087  0.1033  0.0271
13731W        W29540  12.401   5.476  12.223 -0.3154 -0.1666 -0.1585
13732W        W29541  10.417  11.912  12.695  0.0484 -0.1432  0.0225
13733W        W29542   3.817   5.780  13.137  0.0743 -0.0049  0.1194
13734W        W29543   3.389   0.495  12.191  0.0997 -0.0460 -0.1951
13735W        W29544  13.188   3.832  12.961  0.0643 -0.2151 -0.0038
13736W        W29545   7.306  15.527   0.752 -0.0821  0.0616 -0.0602
13737W        W29546   0.577   5.834   1.469 -0.0693 -0.0250  0.2619
13738W        W29547   2.693  16.034  13.586 -0.1511  0.1865  0.3280
13739W        W29548   1.388  10.229  11.422 -0.3724  0.0467 -0.0452
13740W        W29549   5.996  15.352   5.264 -0.1397 -0.1352  0.1038
13741W        W29550   3.461  11.479  11.565 -0.0122  0.1480 -0.0587
13742W        W29551  16.294   6.838   0.097 -0.0130 -0.0034  0.0767
13743W        W29552   2.269   1.523   1.450 -0.2058 -0.2715 -0.0536
13744W        W29553   5.525  14.092   0.683 -0.0885 -0.2496  0.3897
13745W        W29554  17.674   0.859  15.648 -0.2893  0.1011 -0.4310
13746W        W29555   2.329  12.683  11.168  0.1559 -0.0759  0.0137
13747W        W29556   9.530   0.760  13.018  0.1995  0.0128 -0.0495
13748W        W29557  16.690   4.296  11.778  0.0722  0.0259 -0.0369
13749W        W29558   4.244   3.759  15.516  0.2882  0.0976  0.0181
13750W        W29559  15.104   1.665  12.917 -0.0715 -0.0195 -0.0445
13751W        W29560  13.479   7.975   4.335 -0.1712 -0.0517 -0.0481
13752W        W29561   2.281   8.782  15.345  0.3496 -0.0389 -0.1712
13753W        W29562  10.810   5.937   0.343  0.3060  0.1159 -0.1548
13754W        W29563  13.884   1.524   3.442  0.0380  0.4420  0.0783
13755W        W29564   0.763  10.004  11.882 -0.1119  0.0967  0.2045
13756W        W29565   5.635  17.902  10.419  0.0453  0.3825  0.0705
13757W        W29566   8.788   3.114  16.030 -0.1250  0.3412  0.1840
13758W        W29567   6.470  15.458   0.487  0.0910 -0.2228  0.2536
13759W        W29568  13.526  12.220   1.334  0.1711 -0.1359  0.0308
13760W        W29569  14.515  17.578   3.548 -0.4007  0.2299 -0.0486
13761W        W29570  10.883  17.629   3.044 -0.3964 -0.2172  0.3375
13762W        W29571  12.396  11.886  14.616 -0.3514 -0.1713 -0.1571
13763W        W29572  14.098   9.726   1.196  0.0123 -0.0160  0.1826
13764W        W29573   5.292   9.317   4.472 -0.0611  0.1910 -0.0897
13765W        W29574  14.001   0.826  13.667  0.2802 -0.1337 -0.2438
13766W        W29575   4.263   0.718  13.027 -0.2815  0.0007 -0.1367
13767W        W29576   4.106   5.890  12.756 -0.1092 -0.1740  0.1115
13768W        W29577  17.266  16.803  13.601  0.2167 -0.3584  0.0739
13769W        W29578   0.451   7.990   2.220  0.0397  0.3857  0.1625
13770W        W29579   9.988   2.771  13.294 -0.0906 -0.1279  0.3736
13771W        W29580   1.062   4.264  15.302  0.1509  0.1103  0.0089
13772W        W29581   3.644   7.996   2.476 -0.0908  0.0891  0.4235
13773W        W29582  17.860   9.542  16.155 -0.1644  0.1293 -0.0578
13774W        W29583   3.412   9.895   1.936 -0.0872 -0.2510 -0.1436
13775W        W29584   2.173  17.202  13.434  0.3980 -0.0812  0.1145
13776W        W29585  10.127   0.885   1.616  0.1624 -0.2515 -0.0666
13777W        W29586  11.953   2.207   0.118  0.0750  0.4455  0.1711
13778W        W29587   4.281  17.544  11.710 -0.4268 -0.2396 -0.1557
13779W        W29588  11.111   7.800  14.634 -0.1524  0.0217 -0.4378
13780W        W29589   1.246  10.719  11.678 -0.2687 -0.0819 -0.2227
13781W        W29590  12.802   5.029   3.770  0.1265  0.2082 -0.2006
13782W        W29591  17.002   9.361   3.480  0.1561 -0.0098 -0.0960
13783W        W29592   1.127  14.315  13.054 -0.0074 -0.1208  0.1736
13784W        W29593   8.878  12.881  14.773 -0.1417 -0.1395 -0.1261
13785W        W29594  10.966   6.376   4.060 -0.1819 -0.3099 -0.3173
13786W        W29595  12.211   0.082   5.545 -0.0546 -0.0789 -0.0643
13787W        W29596   5.267  15.682  10.190  0.0871 -0.0432  0.1239
13788W        W29597  13.709  11.928   4.014  0.2841 -0.1409 -0.0917
13789W        W29598   2.435   9.105  14.442 -0.2234  0.2970  0.0464
13790W        W29599  16.250   7.075  12.970  0.0873 -0.0126  0.2310
13791W        W29600   0.864   0.102   3.944  0.1151 -0.0429  0.2548
13792W        W29601   7.547  12.683   4.441 -0.1065 -0.0134 -0.1358
13793W        W29602  10.675   5.976  14.384  0.0411  0.1368  0.4837
13794W        W29603   0.993  15.883   5.173  0.1899  0.2015 -0.1429
13795W        W29604  15.691   8.819  12.655 -0.0867  0.0807  0.1121
13796W        W29605   2.048   1.031  11.944  0.0193 -0.0931 -0.2646
13797W        W29606   2.874  15.938   5.726  0.0814  0.0045 -0.2750
13798W        W29607   3.110   2.245  12.780  0.1856 -0.2262  0.1698
13799W        W29608   3.660   4.165   4.068 -0.2756  0.0136 -0.1480
13800W        W29609  12.879   5.035  13.345 -0.1580  0.0235 -0.0766
13801W        W29610  14.245  13.680   6.185  0.1856 -0.0610  0.0174
13802W        W29611  15.577   8.045  16.681 -0.0875 -0.0124  0.2053
13803W        W29612  11.203   8.501  14.087 -0.1765 -0.0010 -0.1733
13804W        W29613   8.675  15.770   2.472  0.1483 -0.0934  0.3094
13805W        W29614   6.068   1.812   1.933 -0.1979 -0.0300 -0.0630
13806W        W29615   0.371   4.173   5.048  0.1157  0.0731 -0.1077
13807W        W29616   5.170   1.789   3.147 -0.0021 -0.0150  0.2479
13808W        W29617  17.459   7.299   3.230 -0.0664  0.0125 -0.1537
13809W        W29618  17.656  15.952  14.107 -0.1209  0.1213  0.2331
13810W        W29619   1.325   8.674  14.514 -0.0036 -0.1377  0.1957
13811W        W29620   2.351  14.924  14.547  0.0437 -0.0644  0.0691
13812W        W29621   5.498   2.454   6.013  0.0478 -0.3563  0.1085
13813W        W29622   1.653   3.077   0.944  0.1600  0.0559 -0.1446
13814W        W29623  11.419   9.428   5.176  0.0444 -0.0684 -0.1368
13815W        W29624   7.145   0.906  12.637  0.1368  0.0510  0.0972
13816W        W29625   1.859   6.389  15.066  0.1852  0.3265  0.0008
13817W        W29626   6.279   2.978   1.445 -0.1006  0.2609 -0.0161
13818W        W29627   1.167   2.865  16.629 -0.0732 -0.2605  0.2963
13819W        W29628   2.986   1.473  15.299 -0.2370 -0.0980  0.0250
13820W        W29629  12.637  14.668  13.552 -0.0932  0.1148  0.0019
13821W        W29630   0.797   0.959   3.749  0.1953  0.0437  0.0536
13822W        W29631   7.570   3.655  15.258 -0.3735  0.0246  0.0015
13823W        W29632  14.352   9.821  11.791 -0.2930 -0.0369 -0.3395
13824W        W29633  14.212   9.087  13.134 -0.1842 -0.2130  0.0924
13825W        W29634   4.801  15.408   4.338 -0.1981  0.0592  0.0375
13826W        W29635   9.670   8.413  15.489 -0.0794  0.0935  0.0372
13827W        W29636   9.291   4.166   1.832  0.2552  0.2682  0.2566
13828W        W29637  13.412   4.578   6.149  0.0117  0.0448  0.1302
13829W        W29638  15.586   4.243   0.935 -0.1001 -0.2860  0.0529
13830W        W29639   3.538   6.628  12.094  0.0608  0.1116 -0.0730
13831W        W29640   7.009   3.283   1.646  0.0864  0.0676  0.0040
13832W        W29641   7.852  12.495  12.674 -0.0630 -0.0970  0.2164
13833W        W29642  12.837   8.835  13.329  0.1594  0.0529  0.0228
13834W        W29643  10.033   8.068   1.749  0.3587 -0.0420 -0.1581
13835W        W29644   0.931   1.405  13.399 -0.0862 -0.4166 -0.0663
13836W        W29645  12.005  12.980   3.950  0.2368  0.0654  0.0161
13837W        W29646  13.695  14.622  14.589  0.0767  0.0792 -0.0772
13838W        W29647   1.320   2.705   5.622 -0.3418  0.0701  0.1026
13839W        W29648   5.614   1.441   0.969 -0.0565 -0.2099  0.2301
13840W        W29649  10.177  15.611   0.018  0.2143  0.1082  0.1189
13841W        W29650  16.182  13.111  15.984 -0.1407 -0.0183  0.0781
13842W        W29651  17.194   1.334   5.309  0.1204  0.0048  0.1229
13843W        W29652  16.055   6.544  11.997  0.2738 -0.4328 -0.3420
13844W        W29653   8.480   5.836  12.964  0.1667 -0.0144  0.2672
13845W        W29654  17.808   0.556  13.827 -0.0549 -0.0040 -0.2376
13846W        W29655  15.143   7.982   0.907 -0.0629 -0.2761  0.0923
13847W        W29656  14.732   3.433  14.362  0.2945  0.1706 -0.1450
13848W        W29657  17.730   7.989  12.191 -0.2057  0.2156  0.2673
13849W        W29658  17.837  12.057   1.476 -0.0081  0.1730  0.1196
13850W        W29659  10.523  16.938   6.240  0.4126 -0.0913 -0.0835
13851W        W29660   6.496   7.625  11.764  0.2710 -0.4495 -0.1545
13852W        W29661   4.156   0.670   6.002  0.0056 -0.1655  0.4953
13853W        W29662  11.546   8.020   5.153 -0.0983  0.0091  0.0933
13854W        W29663  15.246   4.793   5.078 -0.1530  0.1114  0.1266
13855W        W29664  14.499   9.916   5.057  0.0023  0.0907  0.4839
13856W        W29665  10.135  10.141   1.550 -0.2706  0.1093  0.0472
13857W        W29666   6.853  10.296  11.827  0.1555  0.0646  0.1497
13858W        W29667  13.647   8.670   2.725  0.1370 -0.0141  0.1164
13859W        W29668   8.933   4.533  12.192  0.0486 -0.1247  0.2862
13860W        W29669   7.527   3.064  14.451 -0.2902  0.0968  0.1186
13861W        W29670  17.748  13.079   2.662  0.1086  0.0156  0.2481
13862W        W29671   8.355  16.881  13.593 -0.0345 -0.0351  0.0382
13863W        W29672   4.977   5.674   0.238  0.2014 -0.2994  0.0084
13864W        W29673  13.142   2.015   2.543 -0.2534  0.0795  0.2138
13865W        W29674   1.220   9.084   1.871  0.0501 -0.2267 -0.0976
13866W        W29675  10.446   4.020  13.461  0.1690 -0.0303 -0.2764
13867W        W29676   5.602   8.815  15.113 -0.1699  0.3279 -0.2405
13868W        W29677  11.666   2.552   1.656 -0.0979  0.0676 -0.1012
13869W        W29678   1.113  13.291  14.574  0.2580  0.1054 -0.3325
13870W        W29679   8.239  12.226   6.095 -0.2227  0.1120 -0.1991
13871W        W29680  17.365   1.437  13.411  0.0462  0.1534 -0.0098
13872W        W29681  17.370   8.619  15.844  0.1858  0.0303 -0.0728
13873W        W29682   6.803  16.750   3.999 -0.0659 -0.3202 -0.1691
13874W        W29683  11.748  14.833   0.247 -0.0279  0.0798 -0.1157
13875W        W29684   4.272  11.405  16.171 -0.0712 -0.0160  0.4418
13876W        W29685  10.247   3.489   3.065 -0.0358  0.0769  0.0073
13877W        W29686   3.636  17.114  15.247 -0.1311  0.0523 -0.0556
13878W        W29687  15.527  14.577  13.793 -0.0063  0.4084  0.0541
13879W        W29688  13.027   4.939  16.322 -0.0466 -0.1831  0.4369
13880W        W29689   5.659   2.318  12.252 -0.0927 -0.0112 -0.1422
13881W        W29690   8.771   7.677  11.197 -0.0372 -0.0313 -0.1045
13882W        W29691   7.173   5.975   2.014 -0.2429 -0.0605 -0.3980
13883W        W29692  11.126  16.911  12.927 -0.0328  0.2920 -0.0971
13884W        W29693   3.893  11.440  13.638  0.1142 -0.1970 -0.0130
13885W        W29694   0.227  17.008   2.731 -0.0052 -0.0065  0.2469
13886W        W29695   5.276   7.393   2.035  0.0166  0.0459  0.2624
13887W        W29696   4.325   6.694   2.704  0.0875 -0.0611  0.3289
13888W        W29697   2.552  16.841   0.181  0.2954  0.2468  0.3500
13889W        W29698   5.540   4.496   6.376 -0.0131 -0.5223  0.0058
13890W        W29699  16.934  12.177   0.588 -0.0556 -0.0877 -0.1903
13891W        W29700  16.707  15.709   0.507  0.1800 -0.0168  0.1226
13892W        W29701  13.698  15.335   1.115 -0.0504  0.1401 -0.1204
13893W        W29702  16.762   7.648   5.020  0.2107  0.3700  0.1741
13894W        W29703  10.587   0.460   3.274  0.0458 -0.0146 -0.1453
13895W        W29704  11.997  17.600   4.329 -0.3973 -0.1702 -0.1551
13896W        W29705  13.066   5.684   2.411 -0.4445 -0.0383  0.1945
13897W        W29706  16.862  15.842  15.690  0.1166  0.1192  0.2815
13898W        W29707  15.309   5.631   1.076 -0.2087 -0.0039 -0.0427
13899W        W29708  12.657   6.316   5.973 -0.0049 -0.0824 -0.3773
13900W        W29709   0.810   9.976  12.897  0.1116 -0.0363 -0.0393
13901W        W29710   5.273  17.639   2.878  0.0403  0.0857 -0.1463
13902W        W29711   0.318  17.483   1.807 -0.2017  0.3281 -0.1201
13903W        W29712   9.579   3.121   3.364 -0.2247 -0.1359 -0.3611
13904W        W29713  12.527  12.939  13.300  0.1243  0.2841  0.0380
13905W        W29714   0.481  14.528  14.784  0.0679  0.0908 -0.0988
13906W        W29715  15.983   8.280  16.653 -0.2831 -0.4840  0.0246
13907W        W29716   6.335  13.537   3.129  0.1753 -0.3551  0.0153
13908W        W29717   6.739   2.470  16.659 -0.1990 -0.1004 -0.0768
13909W        W29718   4.474  14.305  14.197  0.0034  0.0348 -0.0430
13910W        W29719   9.281  16.489   0.403  0.4572  0.1423 -0.2022
13911W        W29720   4.622  12.444  15.086 -0.2404  0.1627  0.2831
13912W        W29721  16.735   1.580  12.422 -0.0584  0.0487  0.0252
13913W        W29722   9.449  14.227  15.587 -0.0500 -0.3652 -0.1610
13914W        W29723   0.031  17.166  14.056 -0.0193  0.0264  0.0546
13915W        W29724  10.633   7.754  12.318 -0.1706  0.0715 -0.2409
13916W        W29725   7.301   1.304  13.522  0.0824  0.0049 -0.2942
13917W        W29726  11.409  13.333   5.043 -0.0206 -0.1740  0.3132
13918W        W29727  17.946   8.856  12.723 -0.0938 -0.2020 -0.3873
13919W        W29728   6.033   7.020  14.849  0.3308 -0.0295  0.3031
13920W        W29729  13.732   0.516   0.835 -0.1528 -0.2031  0.0909
13921W        W29730  14.734  12.308   5.213  0.0606 -0.2117 -0.0163
13922W        W29731  14.557   1.383  14.169  0.1022  0.0223 -0.5407
13923W        W29732  13.625  12.336   0.752 -0.1428  0.1538  0.2113
13924W        W29733   9.062   0.522  11.909  0.0187  0.0580 -0.3988
13925W        W29734  10.474  17.313   2.449 -0.2034 -0.1462 -0.1344
13926W        W29735   1.018   7.978   2.961 -0.1788  0.0800 -0.2765
13927W        W29736   3.415  16.329   4.135 -0.0099 -0.0519 -0.1686
13928W        W29737  11.141   4.119  16.534  0.1089  0.0748 -0.0632
13929W        W29738  12.574  13.058   3.268  0.0245  0.1164 -0.2537
13930W        W29739   1.784   0.322  12.538 -0.1181 -0.0702  0.0395
13931W        W29740   2.439  15.028  14.083 -0.2442 -0.3242  0.0793
13932W        W29741   3.820   1.339  13.386 -0.2298 -0.0617 -0.0288
13933W        W29742   0.353   2.764   0.631  0.0551 -0.1752 -0.2004
13934W        W29743  12.065   2.213  15.126 -0.2531  0.2163 -0.1489
13935W        W29744   5.176   6.413   2.596 -0.0254  0.1623 -0.1952
13936W        W29745   1.949  16.585  15.795  0.0624 -0.1945 -0.1149
13937W        W29746  14.401   1.113   3.592 -0.3519  0.0657  0.0262
13938W        W29747  10.734   5.617   1.543  0.0100  0.5539 -0.2539
13939W        W29748  17.590  11.794   2.882 -0.1839  0.1402  0.2757
13940W        W29749   6.511  17.534  12.156  0.1722 -0.1701  0.1843
13941W        W29750   3.470  15.491  11.654 -0.3474  0.0560 -0.1764
13942W        W29751  16.594   6.872  14.887  0.3208 -0.1231  0.0041
13943W        W29752   6.696   9.417   0.750 -0.1356  0.2925  0.1366
13944W        W29753  10.444   6.160   1.142 -0.2482 -0.3434  0.2676
13945W        W29754   8.697   1.236  16.537 -0.1389 -0.0028  0.1665
13946W        W29755   1.871  11.249   3.624 -0.1900  0.2572 -0.1237
13947W        W29756   1.480  10.652   5.334  0.1325 -0.0373 -0.0571
13948W        W29757   6.142   2.165  12.249 -0.4447 -0.1525  0.0024
13949W        W29758  14.661  12.261  15.396  0.1446  0.1188 -0.1275
13950W        W29759  13.905  14.619  13.336 -0.0596  0.1757  0.0009
13951W        W29760   0.871  12.907  14.807  0.0465  0.0576  0.0659
13952W        W29761   5.776   5.969   4.033 -0.1207  0.1565  0.0448
13953W        W29762  16.749  16.468  14.060 -0.0984 -0.1710 -0.1526
13954W        W29763   9.564  11.457  16.556  0.1193  0.0741  0.0317
13955W        W29764  11.208   2.121   3.059  0.1223  0.0045  0.1580
13956W        W29765   2.215   9.242  10.722  0.1036  0.0573  0.0668
13957W        W29766   7.440   2.886   1.596 -0.3622 -0.1479 -0.1471
13958W        W29767   8.815   7.737   2.139  0.1821  0.1351 -0.4392
13959W        W29768   9.614   8.968  15.178 -0.0822 -0.0985 -0.0631
13960W        W29769  17.195  11.460   4.107 -0.1459  0.2740  0.2418
13961W        W29770  16.927   6.857  11.829 -0.0320 -0.1634  0.0772
13962W        W29771  14.615  15.804   0.826  0.0915  0.3822  0.1554
13963W        W29772  17.896   3.548   0.148 -0.0551 -0.1789 -0.4120
13964W        W29773  14.136  16.618   4.590  0.3679 -0.1775 -0.2445
13965W        W29774   1.629  12.390   1.191 -0.1773 -0.0865 -0.2682
13966W        W29775   9.638   8.777   0.407  0.1216  0.1391  0.1266
13967W        W29776   9.466   0.089  16.638 -0.1259 -0.2053  0.0083
13968W        W29777   4.089   7.225  12.695 -0.0933  0.0765  0.0069
13969W        W29778   9.592  15.202  12.048  0.3344  0.0722 -0.1029
13970W        W29779   9.429   9.196  16.058  0.0251  0.1142 -0.0032
13971W        W29780  16.591  10.467  15.374  0.3233  0.0853  0.3734
13972W        W29781   9.282   0.901  11.297 -0.0970  0.0589 -0.2186
13973W        W29782   8.668  12.135  15.698 -0.2031 -0.0574 -0.1210
13974W        W29783   0.121   5.910  13.755 -0.0982  0.1110  0.0204
13975W        W29784   4.454  11.803  14.500  0.0238 -0.0135  0.1074
13976W        W29785   3.548   3.721  14.933  0.0620  0.0364  0.1624
13977W        W29786   1.047   9.610  13.125 -0.1812 -0.0985  0.0997
13978W        W29787   4.392  13.904  12.437  0.0425  0.1950 -0.2126
13979W        W29788   9.482  12.954  13.902  0.0148 -0.0394  0.1654
13980W        W29789   5.383  16.346  13.131 -0.3099  0.1468  0.2465
13981W        W29790  17.234   1.526  15.925 -0.0621 -0.0813 -0.1668
13982W        W29791   5.431   0.438  13.435  0.0476 -0.2036  0.0627
13983W        W29792   1.794  14.002  11.437 -0.0107  0.0741  0.2624
13984W        W29793   1.360  17.648  11.128 -0.2456 -0.1302  0.1041
13985W        W29794   5.979  10.002  11.316  0.2393 -0.2321 -0.1956
13986W        W29795  10.396  11.253   4.101  0.1001 -0.3602  0.0471
13987W        W29796  14.594   7.038   6.001  0.3077  0.1687 -0.3672
13988W        W29797   8.510  14.416   4.209  0.3325 -0.3532 -0.2813
13989W        W29798   6.987   1.655   1.284  0.0379  0.0198  0.1599
13990W        W29799  13.668  15.859  13.299  0.2367 -0.1829  0.3209
13991W        W29800  16.725  14.988   2.307  0.0028 -0.4036  0.1778
13992W        W29801  15.992  11.632   2.789 -0.0179 -0.0284  0.1582
13993W        W29802   8.730   8.116  13.889 -0.2420 -0.2525  0.0752
13994W        W29803  11.593  12.893   0.637  0.0783 -0.0418  0.0514
13995W        W29804  12.974  15.256   2.517 -0.1239  0.2825 -0.1627
13996W        W29805   9.015  12.788   0.133  0.1693  0.1444  0.2212
13997W        W29806   1.402  12.618  12.400 -0.1911  0.1284 -0.1673
13998W        W29807   2.667   8.653   5.007  0.1210 -0.0708  0.4134
13999W        W29808   2.739   8.770   0.018 -0.1242  0.0889  0.0511
14000W        W29809  10.472   5.187  12.154 -0.3589  0.1744 -0.0133
14001W        W29810   8.179   3.381   1.278 -0.1706 -0.0688  0.0348
14002W        W29811   2.576   6.743  15.561 -0.1044  0.1311  0.1155
14003W        W29812   7.721   3.492  14.182 -0.1119  0.0507 -0.0757
14004W        W29813  12.090  15.451  16.537 -0.0530 -0.4122 -0.2503
14005W        W29814   4.000  11.027  10.510  0.0918  0.0831 -0.0658
14006W        W29815  16.798   9.287  15.395  0.0348 -0.1906  0.2787
14007W        W29816   9.827  17.929   0.707  0.0175  0.2220  0.1535
14008W        W29817  17.025  16.366   4.284 -0.0036 -0.1475 -0.1325
14009W        W29818   6.960  11.634  15.099 -0.0407  0.2744 -0.0055
14010W        W29819  17.196  13.123   0.302 -0.0923 -0.1467 -0.2154
14011W        W29820  17.029   5.554   3.428 -0.1136 -0.0337 -0.0804
14012W        W29821  17.542   5.512  16.273  0.0541  0.0276  0.4848
14013W        W29822   9.775  15.683  14.536  0.1248 -0.0065 -0.0356
14014W        W29823   6.563  16.473   1.018 -0.0815  0.1252 -0.2590
14015W        W29824  13.725   2.010   4.504  0.0080  0.0841 -0.0298
14016W        W29825  10.867  15.511   1.225  0.0930 -0.0043 -0.0154
14017W        W29826   4.705  15.278  12.423 -0.1634  0.2471  0.1001
14018W        W29827  15.399   2.917  13.821 -0.1889  0.0396  0.0333
14019W        W29828   3.938  13.471   5.144 -0.1753 -0.1839  0.3169
14020W        W29829  11.634  16.514   3.346  0.2648  0.0955  0.2706
14021W        W29830  17.581  15.024   1.421  0.0840 -0.0743 -0.3853
14022W        W29831   6.620   7.847   3.019 -0.0562 -0.1681  0.1678
14023W        W29832   8.684   7.927   0.547 -0.0653 -0.0270  0.2246
14024W        W29833  13.385   1.979  15.685  0.2219  0.1141 -0.1160
14025W        W29834   0.382   0.826   5.153 -0.1899  0.2300 -0.3248
14026W        W29835   8.271  17.414   2.944 -0.1198 -0.4325  0.0985
14027W        W29836   4.376  13.929   0.846 -0.0159  0.1823  0.2779
14028W        W29837  10.303   0.604   0.009  0.0973  0.2561  0.0541
14029W        W29838  13.106   5.706   0.027 -0.1758  0.1676 -0.0683
14030W        W29839   9.740   3.107  12.081 -0.0730  0.1150  0.3373
14031W        W29840   8.514  14.974   0.739 -0.0291  0.2579 -0.1216
14032W        W29841  15.501  17.853   4.798 -0.0050  0.0844 -0.1977
14033W        W29842  13.187   5.662   1.532  0.1475  0.2094 -0.0413
14034W        W29843  13.656   8.569   5.195  0.2688  0.1012 -0.0806
14035W        W29844  13.608  14.521  16.496 -0.2021 -0.1132 -0.1219
14036W        W29845  17.934  10.443  13.670  0.0044  0.2446 -0.1106
14037W        W29846   9.912   5.617  12.839 -0.0744 -0.2856  0.3787
14038W        W29847   8.187  13.791   3.670 -0.0053 -0.2331 -0.2116
14039W        W29848   2.689  17.151   0.550 -0.1324  0.2242  0.0952
14040W        W29849  10.308   2.652  11.896  0.1034 -0.0338  0.3314
14041W        W29850   2.026   9.402  12.798  0.1341  0.0839  0.0804
14042W        W29851  13.344   8.478   0.875 -0.0395  0.0242 -0.1176
14043W        W29852  17.478   8.415  11.754  0.0666 -0.0432  0.1218
14044W        W29853   7.569  15.802  13.951 -0.0979  0.3710  0.0487
14045W        W29854   9.095   2.641   1.121  0.1368  0.0477 -0.2815
14046W        W29855  15.626   0.956   0.137 -0.0821 -0.0293 -0.1343
14047W        W29856  13.312   2.838   4.590  0.1848  0.2245 -0.1620
14048W        W29857  10.231   0.069  15.426  0.0617  0.1730  0.2398
14049W        W29858   1.959  17.231  12.148  0.2820  0.1707 -0.2703
14050W        W29859  11.444  13.582   2.247  0.0126 -0.0153 -0.0149
14051W        W29860   8.145   7.831   2.217 -0.1972  0.0884  0.0208
14052W        W29861   6.665   2.219   5.729 -0.1720  0.0951 -0.1500
14053W        W29862  16.501   1.845  13.979 -0.1747  0.0074 -0.1520
14054W        W29863   7.999  12.774   3.608  0.2094 -0.2144 -0.0053
14055W        W29864  14.874   4.831  15.929 -0.0557 -0.1323  0.1762
14056W        W29865   7.949   6.589  12.087 -0.1012  0.1536  0.2401
14057W        W29866   0.008  13.711   5.254  0.0289 -0.0579 -0.0066
14058W        W29867   4.353   3.628   2.824  0.0070  0.2333 -0.3230
14059W        W29868  13.466   1.820   1.728  0.2751  0.1228  0.1810
14060W        W29869   2.586   0.049  15.989 -0.1048  0.0857  0.2010
14061W        W29870   8.940   2.828  12.922 -0.1163  0.0288  0.2396
14062W        W29871   4.349  10.490   5.262  0.1320  0.0761  0.2568
14063W        W29872  14.834   4.692   2.896  0.1011 -0.0455 -0.2111
14064W        W29873  12.680   8.108   6.554 -0.0459 -0.0244 -0.1070
14065W        W29874  17.131   4.056  11.910 -0.2060  0.0033  0.0971
14066W        W29875   6.952   1.346   2.164 -0.2870  0.2292  0.1311
14067W        W29876  14.310  12.609  11.656  0.2454 -0.0524  0.2092
14068W        W29877   9.838  11.640   0.251  0.0053 -0.2642  0.1795
14069W        W29878   9.067  13.921  15.801 -0.3460  0.0513  0.0533
14070W        W29879   5.144  16.052   1.046  0.1036 -0.2314  0.1569
14071W        W29880   0.094   1.115  12.180  0.3402  0.2554  0.2815
14072W        W29881  12.052   6.541   5.462  0.2427  0.1085 -0.0075
14073W        W29882  15.990   2.073  15.211 -0.0511  0.2560 -0.2259
14074W        W29883   6.095   8.858   0.097  0.0887  0.1505  0.0127
14075W        W29884   9.093   8.600   2.474  0.0560 -0.3394  0.0088
14076W        W29885   3.380  12.395  15.713  0.3205 -0.4019  0.0977
14077W        W29886   5.627   6.374  14.146 -0.0310  0.2714  0.0172
14078W        W29887  11.295   4.707   5.212  0.0589  0.2775  0.0543
14079W        W29888  17.720   2.266   6.274 -0.1790  0.0842 -0.1645
14080W        W29889   7.574  16.733  13.985  0.0531 -0.0604  0.1099
14081W        W29890   8.560   4.208   3.245  0.2315  0.2901 -0.0648
14082W        W29891   5.268   8.536  11.326  0.0786 -0.0333  0.0577
14083W        W29892  15.576   3.425  12.010  0.0932  0.1565  0.4105
14084W        W29893  12.105   2.650   4.402 -0.1876 -0.0054 -0.0502
14085W        W29894  17.257   2.782   1.947  0.2346  0.0052 -0.1252
14086W        W29895  15.588  15.592   2.200  0.0245 -0.0137 -0.0261
14087W        W29896   8.331  14.907   2.804 -0.1694 -0.0276 -0.1319
14088W        W29897   1.735   7.100  12.981  0.0875  0.1676  0.0057
14089W        W29898   7.736  13.879   3.327  0.1420  0.1433  0.0821
14090W        W29899   4.898   0.294  15.413 -0.1792 -0.0973  0.0968
14091W        W29900   5.665   3.859   2.218  0.0593 -0.1475  0.1675
14092W        W29901   6.945  11.478  12.330  0.2380  0.3526 -0.0788
14093W        W29902   1.269  17.779   2.319 -0.1283  0.0383  0.3544
14094W        W29903   1.072  15.936  12.759 -0.0321  0.0545  0.0931
14095W        W29904  16.823  15.036  13.526  0.0560 -0.0924 -0.0708
14096W        W29905   2.341   0.892   1.095  0.1775 -0.0381  0.1707
14097W        W29906  11.939  12.526   1.360  0.1771 -0.0089  0.0755
14098W        W29907   0.885   3.111   4.562 -0.0499  0.1075  0.0027
14099W        W29908   3.496   3.458   4.395 -0.0617  0.1279 -0.0885
14100W        W29909  13.282   9.496   4.912  0.1533 -0.1521 -0.4502
14101W        W29910   8.506  11.822   4.281  0.1162  0.2635 -0.1740
14102W        W29911   3.776   3.218   4.815  0.1390 -0.2219 -0.0717
14103W        W29912   2.231   7.417  12.339 -0.0203 -0.1349 -0.1042
14104W        W29913   4.500  11.405   0.666 -0.1016 -0.0218  0.3088
14105W        W29914   7.799  10.126  11.372 -0.1363  0.2522  0.0880
14106W        W29915  13.867  15.007   1.416 -0.0436 -0.1217 -0.1326
14107W        W29916   5.953  16.610   4.232 -0.1150 -0.2955 -0.1704
14108W        W29917   7.371   2.637  16.232  0.0958  0.0082 -0.1887
14109W        W29918   0.690   8.625  15.602 -0.0615 -0.0702  0.3265
14110W        W29919  14.374   9.061  14.781  0.1819  0.0942  0.2051
14111W        W29920  14.666   2.170   0.643 -0.0084 -0.0994  0.4644
14112W        W29921   7.215  15.414  11.659  0.3272 -0.0992 -0.1778
14113W        W29922   0.510   6.276   4.757  0.3103  0.0694  0.0300
14114W        W29923  16.102   0.704  15.982  0.1090  0.0167 -0.3238
14115W        W29924   3.080  15.224   0.918 -0.1256 -0.1201  0.0371
14116W        W29925   2.476   8.004  12.867  0.2052 -0.4483  0.2815
14117W        W29926   4.787   8.663   3.817 -0.2901  0.0857  0.0310
14118W        W29927   2.683   9.800   5.379  0.1903  0.0504  0.2138
14119W        W29928   9.259  11.504  13.119 -0.1855 -0.1394  0.3738
14120W        W29929   9.517   4.744   4.638 -0.1041  0.0928 -0.1473
14121W        W29930  14.216   2.268   5.263 -0.0994 -0.0013  0.2064
14122W        W29931   6.823  10.222   2.035  0.0513  0.0746 -0.0622
14123W        W29932  10.243   4.862   5.197 -0.0420 -0.2800 -0.0947
14124W        W29933   6.252   3.152  12.689  0.0567 -0.1514 -0.1967
14125W        W29934  11.508   0.148   2.166 -0.3785 -0.0111  0.0792
14126W        W29935   4.964  15.562  11.790  0.1724  0.2135 -0.2607
14127W        W29936   1.754  11.636  11.819  0.0677 -0.1584  0.0775
14128W        W29937  13.976   4.131   0.190 -0.1872  0.0448 -0.1032
14129W        W29938  16.574   1.444   4.226 -0.4600 -0.0188 -0.0685
14130W        W29939  11.454  15.316   0.580 -0.3660 -0.0072 -0.3650
14131W        W29940  16.948   1.475  14.191 -0.1198  0.0489  0.0480
14132W        W29941   1.943   7.617   3.622  0.1351  0.0201  0.1886
14133W        W29942  10.580  17.027   1.822  0.0932 -0.2758  0.2164
14134W        W29943   9.410  13.295   0.783  0.1972  0.0087  0.1494
14135W        W29944   7.227  16.154  14.683 -0.0677 -0.1118 -0.2144
14136W        W29945   0.519  17.415  11.195  0.0654  0.0998 -0.0825
14137W        W29946  13.661  16.803   3.400  0.0710  0.1521 -0.1177
14138W        W29947   5.754  15.012   5.578 -0.0453  0.1300  0.1392
14139W        W29948  16.431  13.482  12.254  0.0104 -0.1225  0.0496
14140W        W29949  15.009   9.906   4.256  0.2843  0.2330  0.1492
14141W        W29950   9.956   0.038  13.829  0.2161  0.1542  0.0430
14142W        W29951  16.910  12.578   2.013  0.0212  0.1591  0.1146
14143W        W29952   1.499   2.049   3.022 -0.0053 -0.0063  0.1237
14144W        W29953  12.442  13.748  13.880  0.2689  0.1232 -0.0986
14145W        W29954  14.292   8.609   4.577 -0.0008  0.0714  0.1258
14146W        W29955   1.281   5.912   2.607 -0.0567 -0.0876 -0.0610
14147W        W29956   1.702  14.302  15.238  0.0764 -0.1847  0.0185
14148W        W29957   8.439  14.932   4.371  0.1431 -0.1853 -0.0029
14149W        W29958  15.173  17.828   2.700  0.3101 -0.0055  0.0491
14150W        W29959   0.071  16.364  13.883  0.0449 -0.1502  0.0246
14151W        W29960   5.375  11.289   2.908  0.0959 -0.0239  0.2930
14152W        W29961   4.864  11.875  13.211  0.1161 -0.1454  0.3153
14153W        W29962  15.139  13.220   5.740 -0.0049  0.1749  0.2526
14154W        W29963   5.006   4.813  13.270 -0.1999  0.5116 -0.2780
14155W        W29964   3.495  14.081  15.992  0.0327 -0.1059 -0.1916
14156W        W29965   7.246   0.162   4.696  0.1199 -0.0871 -0.2197
14157W        W29966   5.939  13.279  15.077  0.0222  0.0868 -0.3513
14158W        W29967  17.825   3.632   2.887  0.3949  0.1903 -0.0305
14159W        W29968  14.814   4.808  16.466 -0.2378 -0.4078  0.0431
14160W        W29969  12.588   2.782  14.245  0.1559 -0.0006 -0.3514
14161W        W29970   6.964   5.132  14.660 -0.1096  0.2201  0.0176
14162W        W29971   9.286  14.216   2.907 -0.1792  0.0926 -0.1586
14163W        W29972   4.493  17.944  15.840 -0.1071 -0.1312  0.1683
14164W        W29973   7.973   7.701   4.679  0.1045 -0.1048 -0.1529
14165W        W29974   7.567   1.467  14.911 -0.2135 -0.1663 -0.1442
14166W        W29975  15.734  14.161  15.189  0.1076 -0.1340 -0.0648
14167W        W29976  10.109   3.994  13.856  0.1937  0.1076 -0.0824
14168W        W29977   9.009  15.510   5.545 -0.1156  0.1626  0.0236
14169W        W29978   5.537  15.362  13.616 -0.3496  0.2737  0.0632
14170W        W29979  12.851   9.272   0.647 -0.1454 -0.1208 -0.1143
14171W        W29980  11.238   4.874   6.023  0.1119  0.2606  0.0554
14172W        W29981   6.467   1.912   4.556 -0.2605  0.1162 -0.1680
14173W        W29982   0.620   3.930  14.074  0.3972 -0.2540 -0.2856
14174W        W29983   6.905  17.678  14.060  0.0930  0.0964 -0.1392
14175W        W29984   1.813   5.391   1.538  0.1283  0.1159  0.0447
14176W        W29985   2.917   3.779   0.861  0.3048  0.2265  0.0298
14177W        W29986  15.278   4.489  12.557 -0.2938  0.2282  0.0606
14178W        W29987   2.027  13.960   4.983  0.1108  0.3240 -0.0850
14179W        W29988  10.040   6.921   0.606  0.1012  0.1124 -0.1137
14180W        W29989   8.102   1.337   5.308  0.2058 -0.2423 -0.0776
14181W        W29990   8.771   4.295   1.894  0.0845  0.0357 -0.3331
14182W        W29991  13.106   0.580   3.056 -0.3352  0.3612  0.0308
14183W        W29992   0.067   6.228   5.784 -0.2308 -0.0905 -0.1477
14184W        W29993  13.537   5.464  12.010 -0.0605 -0.0658  0.0003
14185W        W29994  10.240   9.451   2.637  0.0975  0.2000 -0.0251
14186W        W29995   5.524   3.200   0.416 -0.1757  0.1585  0.1773
14187W        W29996  16.248  14.572   3.002  0.2320  0.3263 -0.3703
14188W        W29997   3.726  17.293  11.043  0.0307 -0.1516 -0.0836
14189W        W29998   6.395   1.384  13.109  0.0662 -0.2577  0.1714
14190W        W29999  15.996  14.842  12.801 -0.1414  0.1302  0.0040
14191W        W30000  11.739   2.016  11.820  0.0669  0.0898 -0.0017
14192W        W30001   7.604  12.461  13.427 -0.0727 -0.1068  0.0489
14193W        W30002   3.337   1.599  14.973  0.1233  0.0033 -0.1160
14194W        W30003   3.405  17.571  12.045  0.0190 -0.0725  0.0049
14195W        W30004   0.337  17.871   4.043  0.0689  0.0022  0.1350
14196W        W30005  16.937  10.934   4.355  0.0735 -0.1676  0.1931
14197W        W30006  13.497   6.968  15.487  0.1001 -0.3506 -0.0118
14198W        W30007   9.620   6.426   2.002  0.1547  0.0852  0.0515
14199W        W30008   8.418   2.854   6.077  0.0360  0.0947 -0.1177
14200W        W30009   8.151   6.058   2.143  0.1513  0.0636 -0.0559
14201W        W30010   0.969   1.428   5.100 -0.0062  0.0400  0.2001
14202W        W30011  13.690  17.381   4.229  0.3174  0.0658 -0.2085
14203W        W30012   8.584   9.981   6.380 -0.0698 -0.0710  0.1336
14204W        W30013  14.828   4.099   4.497 -0.0395 -0.0195  0.0848
14205W        W30014  11.752   0.613   5.521  0.3525  0.0193  0.1152
14206W        W30015  13.508   1.774  15.212  0.2410 -0.0630 -0.0054
14207W        W30016  10.985  12.852   5.874  0.1611  0.1532 -0.2039
14208W        W30017  10.567   0.948   3.538  0.0661  0.1721 -0.1973
14209W        W30018  10.591   1.774   1.841  0.1387 -0.0673  0.0332
14210W        W30019  12.057  12.010   1.463 -0.0530 -0.0043  0.0875
14211W        W30020  12.473   3.149  15.782 -0.1389  0.1324 -0.2898
14212W        W30021   8.060  11.245   2.136  0.1620 -0.3119 -0.2143
14213W        W30022   3.180   2.696  12.432  0.1277 -0.0335  0.2936
14214W        W30023   4.207   1.143  13.685 -0.1698 -0.0699 -0.0106
14215W        W30024  15.201  15.722  14.760 -0.4409  0.0660  0.2326
14216W        W30025   8.607  13.870   0.521  0.0222  0.1874  0.2104
14217W        W30026   1.080   4.665  11.853 -0.1039  0.2596  0.1337
14218W        W30027  13.186   3.193  16.385 -0.1108 -0.1410  0.1185
14219W        W30028  15.389  12.828  12.942 -0.1233  0.2618  0.2982
14220W        W30029  11.509  15.699   3.683 -0.0674  0.1812  0.3430
14221W        W30030   1.970   8.359  10.973 -0.0775  0.0749 -0.1422
14222W        W30031  13.177   1.059   3.143 -0.1184  0.1220  0.2540
14223W        W30032  12.170   6.552   2.312  0.1882 -0.0082  0.3922
14224W        W30033   7.355   0.279   3.576  0.0326 -0.1709 -0.2743
14225W        W30034   5.917   5.532  11.379  0.1383  0.2166 -0.2241
14226W        W30035   3.734   5.510   3.778 -0.1528  0.1502  0.2787
14227W        W30036  11.928  13.108  14.805  0.1475 -0.0962  0.0593
14228W        W30037   2.968  11.271  11.737  0.0426  0.1347  0.2524
14229W        W30038  11.910   8.276   2.991 -0.0855 -0.4163  0.1371
14230W        W30039   2.216   2.966   3.922  0.0487  0.0516  0.0434
14231W        W30040   4.182  15.826   4.068 -0.1998 -0.1915 -0.2376
14232W        W30041  14.334   0.218  11.920  0.1533  0.2114 -0.3449
14233W        W30042  10.264   5.639  12.049  0.0685  0.0362 -0.0325
14234W        W30043   4.794   9.308  16.495  0.2649  0.0321  0.0706
14235W        W30044   8.452   3.916  13.469 -0.0830  0.0086 -0.0581
14236W        W30045  16.090   3.046   2.751  0.0909  0.2140 -0.1829
14237W        W30046  12.583  14.423  15.056 -0.1250 -0.1220  0.1991
14238W        W30047  10.642   6.294  14.795 -0.0116  0.1506  0.2090
14239W        W30048   6.933   7.695   2.419 -0.0448  0.0175  0.1192
14240W        W30049  16.534   4.766   3.777 -0.2252  0.0313  0.3081
14241W        W30050  11.723  12.574   3.020 -0.1745  0.0534 -0.1697
14242W        W30051  17.316  17.611   0.793  0.1604 -0.0334 -0.0515
14243W        W30052  11.043   2.657  12.327  0.0869 -0.1758  0.0670
14244W        W30053   0.102  10.580  12.538 -0.1950  0.0043  0.1718
14245W        W30054   0.617  12.359   1.267  0.0385  0.0902  0.2326
14246W        W30055   7.151  17.925   2.958 -0.1083  0.3387 -0.0515
14247W        W30056  10.485   1.738  12.422 -0.1027  0.3476 -0.1694
14248W        W30057  17.101   7.670   0.999 -0.1753 -0.0927  0.1684
14249W        W30058  14.817   9.240   5.499  0.2830  0.1006  0.0922
14250W        W30059   1.930   9.949   3.258  0.0978  0.0502 -0.2302
14251W        W30060  17.862   7.468  15.026 -0.3568  0.2367  0.0570
14252W        W30061   0.778   8.153  11.450  0.0945  0.0017  0.1851
14253W        W30062   4.868   7.281   3.164 -0.0405  0.1204 -0.1197
14254W        W30063  12.179  10.873   5.210  0.0564  0.1511  0.2425
14255W        W30064   9.605  10.540   4.483 -0.1847  0.1679 -0.1838
14256W        W30065   6.393   1.392   4.565  0.4303 -0.1256  0.1644
14257W        W30066   7.960  11.241  14.097  0.0367 -0.2653 -0.2055
14258W        W30067   8.681  15.865  15.527  0.1906  0.5009 -0.1625
14259W        W30068   6.759  12.845   3.292  0.0142  0.1205  0.1416
14260W        W30069   5.210  16.870  16.142 -0.0867 -0.0613 -0.0982
14261W        W30070   7.778   5.929   4.671  0.1047 -0.0844  0.1102
14262W        W30071   1.319  14.228  16.208 -0.1034 -0.1641  0.0679
14263W        W30072  14.780  17.735  13.753  0.0573  0.0291 -0.3702
14264W        W30073   6.956   0.106  15.510  0.0489 -0.1866 -0.3969
14265W        W30074  11.395  15.011  13.775 -0.0311  0.0568  0.1676
14266W        W30075   0.533  14.455   3.586  0.0827 -0.1051  0.0407
14267W        W30076  13.483  14.197  11.995 -0.1007 -0.0194 -0.1777
14268W        W30077   9.111  13.990  14.059  0.2707 -0.4880 -0.1102
14269W        W30078  11.122  15.591  15.605 -0.2903  0.1891  0.0343
14270W        W30079  16.996  16.308  13.689 -0.0095 -0.2319 -0.0284
14271W        W30080   2.508   0.862  14.963 -0.0838 -0.1557 -0.0712
14272W        W30081   8.369  10.573  15.067  0.2067  0.3693 -0.3718
14273W        W30082   6.146   2.578   1.791 -0.3673  0.2870  0.0091
14274W        W30083   5.570   0.497   2.693  0.2056  0.1697 -0.0487
14275W        W30084   3.278  17.244  13.499 -0.0262 -0.2076 -0.1390
14276W        W30085  10.143   1.569   4.327 -0.2029 -0.0388 -0.0699
14277W        W30086   1.827   2.291   1.503 -0.0318 -0.0611 -0.0705
14278W        W30087   8.813   9.847  13.644 -0.0058 -0.1051 -0.1700
14279W        W30088   6.483  14.493   6.082  0.1790  0.2501 -0.1477
14280W        W30089   9.680   1.038   2.489 -0.0983 -0.1322 -0.3055
14281W        W30090   7.559   7.512  15.920  0.0785  0.1888  0.0587
14282W        W30091  11.611  10.138   2.679 -0.2039 -0.1959 -0.0805
14283W        W30092  14.256  10.747  12.345  0.1872  0.3786 -0.0830
14284W        W30093   6.174  14.774   4.327  0.1204 -0.0519  0.2505
14285W        W30094   8.277  10.190   0.086  0.0637  0.0827  0.1240
14286W        W30095   5.082  11.055   5.946 -0.0360  0.0415 -0.1258
14287W        W30096   2.365   6.177   4.974 -0.2229  0.0679 -0.2011
14288W        W30097  15.893   8.380  12.849  0.0803 -0.1619  0.2009
14289W        W30098   5.640   0.825  14.748  0.0860 -0.0381 -0.0786
14290W        W30099   6.442  10.884   5.077 -0.1241  0.2046  0.1289
14291W        W30100   5.123   0.375   1.915  0.4279  0.0118 -0.1563
14292W        W30101  15.102  17.652  12.563  0.1678 -0.0233  0.1967
14293W        W30102  13.680  16.715  15.028 -0.2709  0.1872 -0.1824
14294W        W30103   3.698  14.749  15.353  0.1009  0.1300 -0.0338
14295W        W30104  10.296  16.134  15.415  0.1189  0.0488  0.0127
14296W        W30105   6.429   0.858   5.533 -0.0630  0.1476 -0.2830
14297W        W30106   0.958   8.565  11.719 -0.0143  0.2347 -0.0534
14298W        W30107   7.140  13.761  12.460  0.1403 -0.0834  0.0130
14299W        W30108   4.491   2.215   5.227 -0.0284  0.0218 -0.1617
14300W        W30109   6.981  11.856  16.099  0.2235 -0.0195  0.2020
14301W        W30110   2.151   0.504  15.139 -0.1791  0.0885 -0.0917
14302W        W30111   1.549   5.275  15.573  0.0910  0.0489 -0.2212
14303W        W30112  14.501   9.939   5.918  0.0785 -0.0794  0.3156
14304W        W30113  13.974   0.908   0.091 -0.0394  0.1817  0.2697
14305W        W30114   8.390   7.842   2.643  0.0273  0.3575  0.1106
14306W        W30115   3.895   9.770  15.705  0.1949  0.1047  0.1778
14307W        W30116  13.688   0.246  13.739  0.2745 -0.1211  0.4442
14308W        W30117   7.530   6.939  14.975 -0.0115 -0.1000  0.0138
14309W        W30118  13.191   9.243  12.018 -0.1099  0.1787  0.0680
14310W        W30119  16.020  13.624   3.214 -0.2469 -0.0365 -0.1678
14311W        W30120   1.534   2.305   0.625  0.1520 -0.0633  0.0658
14312W        W30121  10.831  11.259   5.961  0.0652  0.0756 -0.1966
14313W        W30122  16.596   4.622   6.100  0.1658  0.0029 -0.0659
14314W        W30123  10.108  13.636   4.640  0.2432 -0.2128 -0.2090
14315W        W30124   5.120  11.920  15.188  0.2816  0.1118  0.0457
14316W        W30125   4.032  10.524  14.866 -0.4221 -0.1114 -0.1391
14317W        W30126   6.361  14.333   5.639  0.1170  0.0079  0.2767
14318W        W30127   2.229   5.596   6.025 -0.0928  0.1686  0.1073
14319W        W30128  10.261  17.348   4.010 -0.2666 -0.1901  0.2619
14320W        W30129   8.414  17.727   5.283  0.0077  0.0322  0.1671
14321W        W30130  13.971   6.649   4.086 -0.1287  0.2033  0.2288
14322W        W30131   2.369  13.898   4.030 -0.0185 -0.2487 -0.0926
14323W        W30132   2.788   6.145   5.190  0.1684  0.0249 -0.0502
14324W        W30133  10.354  13.043   3.978  0.1422  0.0943  0.0505
14325W        W30134   2.835   2.413  13.133  0.2744  0.0663  0.3048
14326W        W30135   4.127  13.858   5.776 -0.2751  0.1365  0.2018
14327W        W30136  10.314   2.716   1.240 -0.1997 -0.2041 -0.1037
14328W        W30137  15.654   2.511   3.370 -0.0495  0.0615  0.0288
14329W        W30138  16.100  13.755   0.741  0.1537  0.1883 -0.0070
14330W        W30139   6.235   2.443   3.191 -0.0227  0.0231  0.1363
14331W        W30140   9.785   1.834   3.559 -0.0407  0.2061 -0.1958
14332W        W30141   5.852   7.551   0.870 -0.0187  0.1938 -0.1815
14333W        W30142   2.316   5.406   1.557  0.0908 -0.0335  0.0041
14334W        W30143  14.161  14.090   3.232 -0.3077  0.2716  0.0749
14335W        W30144   5.936   6.389  15.305 -0.1286 -0.2868 -0.0093
14336W        W30145  10.786   2.562   1.292 -0.0169  0.2577  0.1259
14337W        W30146   0.943   3.967  12.723 -0.0071  0.0541  0.0066
14338W        W30147  17.169  11.014   2.293  0.1024 -0.0291 -0.0148
14339W        W30148   5.229   4.217   2.020  0.0082 -0.1386  0.0708
14340W        W30149   4.203   3.040   5.591 -0.4284 -0.0052 -0.0716
14341W        W30150  13.790   0.492   2.237 -0.0778 -0.0219 -0.0551
14342W        W30151  16.282  17.663   4.972 -0.2856  0.0456  0.2237
14343W        W30152   3.633   5.275   2.436 -0.0064 -0.2692 -0.1483
14344W        W30153  12.951   7.728  15.281 -0.0738 -0.0462 -0.1516
14345W        W30154   2.979   2.251  14.222  0.0740 -0.4963  0.3172
14346W        W30155   2.305   2.921  11.255  0.1879  0.0956 -0.1630
14347W        W30156  17.696  12.759  13.441 -0.0597  0.2433  0.2410
14348W        W30157  16.153  14.459   3.936  0.2858 -0.0391 -0.4058
14349W        W30158  11.667  14.193   3.229 -0.0918 -0.0372  0.0059
14350W        W30159  15.937   0.455   1.446 -0.0147 -0.1485 -0.2236
14351W        W30160   4.846   9.792   1.211  0.0636 -0.3763 -0.3317
14352W        W30161  11.903   7.867  13.297  0.1256  0.1235  0.2203
14353W        W30162   4.070  17.163  11.503  0.1927  0.2071  0.2290
14354W        W30163   8.803   7.683   4.251 -0.1817 -0.3297 -0.3555
14355W        W30164   7.796   9.491   0.496  0.1897  0.1337 -0.1964
14356W        W30165  16.077  13.882  13.079 -0.0133 -0.0569 -0.1357
14357W        W30166  11.872   7.599   2.394  0.0345  0.1381 -0.0937
14358W        W30167  14.385  14.640  13.187 -0.3127  0.0590 -0.0327
14359W        W30168  11.786  16.633   0.605  0.0408  0.1376  0.1563
14360W        W30169  13.424  16.611  15.965 -0.1430  0.0101 -0.1304
14361W        W30170   0.081   5.256   2.211  0.0017  0.2423 -0.1774
14362W        W30171   9.366   1.511   2.522 -0.1910  0.0458 -0.0558
14363W        W30172  17.856  11.607  12.136 -0.0434  0.0669 -0.2061
14364W        W30173  14.736   7.791   0.685  0.0102  0.0589 -0.0294
14365W        W30174   5.317  16.031  14.365  0.1899  0.2282 -0.2907
14366W        W30175  12.247   9.734  14.166 -0.1233 -0.2229 -0.0786
14367W        W30176   2.945  11.693  15.617  0.2108 -0.5623  0.1483
14368W        W30177   3.620   3.634  13.223 -0.2446 -0.2045 -0.0923
14369W        W30178   9.897  12.656  11.828 -0.0524  0.2619  0.0888
14370W        W30179   5.820  11.972   0.261  0.0951 -0.0882  0.0131
14371W        W30180   7.801   1.615   2.538  0.1418 -0.3532  0.0023
14372W        W30181  17.290   4.302   0.277 -0.4419  0.4803 -0.1049
14373W        W30182   3.866  14.725  12.957  0.3495  0.0455 -0.2385
14374W        W30183  10.882  13.649   2.424 -0.0845 -0.5264  0.0741
14375W        W30184   1.896  10.252  15.823 -0.0548 -0.0426 -0.0349
14376W        W30185   3.653   7.057   4.613 -0.0998 -0.3959 -0.3257
14377W        W30186  12.108  14.601   3.899  0.0860 -0.1176  0.1758
14378W        W30187  15.576   9.804  14.960 -0.1369 -0.2366  0.0638
14379W        W30188   8.559   5.924  12.398 -0.0122  0.2448  0.1381
14380W        W30189  13.897  12.607   2.172  0.0076 -0.1533  0.0742
14381W        W30190   1.095  15.048  12.970 -0.1632  0.0394  0.2540
14382W        W30191   8.522  15.902   6.119 -0.0788 -0.2347  0.1715
14383W        W30192   1.321   9.486   2.598 -0.0496 -0.1965 -0.2245
14384W        W30193   3.212  15.649  12.271 -0.0243 -0.0183 -0.0347
14385W        W30194   4.095  17.618  11.218  0.0550 -0.0002  0.0490
14386W        W30195  11.732  12.521  14.126 -0.0031  0.1035  0.1667
14387W        W30196  15.807   6.979  12.187  0.1545  0.2101 -0.0899
14388W        W30197  16.008  11.672   2.303 -0.1413  0.0094  0.2328
14389W        W30198  17.100   8.151   1.744  0.1401  0.0137 -0.2779
14390W        W30199  14.871   1.230  13.773 -0.0808  0.0849  0.0272
14391W        W30200  12.943  11.255  13.815 -0.0176  0.2285  0.2334
14392W        W30201  13.451   4.960  15.016  0.0359  0.0855 -0.1021
14393W        W30202   5.955  10.879  15.403 -0.0846  0.1304  0.1034
14394W        W30203   3.164  12.236  11.269  0.1959  0.1535 -0.0423
14395W        W30204  15.492   5.876  12.994 -0.1105  0.4992  0.0835
14396W        W30205   1.514  14.266   4.241  0.0213  0.1409  0.2200
14397W        W30206   0.585  17.576   0.298 -0.1804  0.2671  0.0687
14398W        W30207   9.114   3.593   4.545  0.0441  0.0662 -0.1839
14399W        W30208  12.358   4.641   5.135 -0.2346  0.0056  0.0463
14400W        W30209   4.145  16.705   3.087  0.2504  0.0584  0.1721
14401W        W30210   1.632   5.930  16.029 -0.0116 -0.2620  0.1659
14402W        W30211   8.645  11.442  12.962 -0.0350  0.1801  0.0443
14403W        W30212   4.154   7.736  13.495 -0.0355 -0.0369 -0.3149
14404W        W30213   8.353   6.125  15.438  0.0411  0.3056 -0.2532
14405W        W30214  10.962   5.939  11.517  0.0769  0.0301  0.0747
14406W        W30215  16.202  16.746  15.090 -0.0613  0.0667  0.1079
14407W        W30216  16.048  17.257   1.747  0.0181 -0.0323  0.1282
14408W        W30217   2.477  11.618   1.823 -0.2058 -0.3932 -0.0402
14409W        W30218   1.248   7.933   1.419  0.0775 -0.0121  0.0971
14410W        W30219   0.270   6.095   1.896 -0.0678 -0.1794  0.1665
14411W        W30220   8.249  12.830   1.262  0.1770  0.0281 -0.5042
14412W        W30221   9.598  12.767   6.024 -0.0599 -0.2626  0.0619
14413W        W30222   4.544  13.804   4.179 -0.0561 -0.0375 -0.0304
14414W        W30223  16.842  17.092   1.820  0.3027  0.4381  0.2302
14415W        W30224   1.425   7.829   0.605 -0.1003 -0.0599  0.0634
14416W        W30225  12.215   9.883  12.889 -0.3645  0.1615  0.0843
14417W        W30226  11.540  14.510   2.647  0.1910 -0.3236  0.1435
14418W        W30227   8.838  11.415  11.776 -0.0512 -0.0491  0.1773
14419W        W30228   9.632   4.436  13.223  0.0482 -0.2003 -0.1927
14420W        W30229  16.738   2.080   4.165 -0.1244 -0.1759 -0.0187
14421W        W30230  15.875   6.581  12.490  0.0293  0.2455 -0.2503
14422W        W30231  14.089   4.082  15.933  0.1202 -0.2555 -0.1399
14423W        W30232  12.082  14.062  16.016 -0.1699  0.1764  0.0140
14424W        W30233   4.097   1.642  14.663 -0.1751 -0.1043 -0.1294
14425W        W30234   2.177   8.079  15.361  0.0100 -0.0893 -0.4011
14426W        W30235   7.451   6.415  12.400 -0.1868 -0.1474 -0.0646
14427W        W30236  11.459  14.633   1.776  0.1836  0.0917  0.2830
14428W        W30237  11.201   1.732   6.397  0.0473  0.1906 -0.0404
14429W        W30238   2.911   4.801   6.052 -0.2043  0.1435 -0.1433
14430W        W30239  17.543   0.405   3.021  0.0916 -0.2031 -0.0595
14431W        W30240  13.178   7.580  16.543  0.1126  0.0547 -0.0254
14432W        W30241   6.873   2.836  16.332  0.2728 -0.1244  0.0874
14433W        W30242   7.815   6.145  15.323 -0.0860 -0.2567 -0.2758
14434W        W30243   8.532  15.521  14.254 -0.1453  0.0808  0.4287
14435W        W30244   8.458   3.544  13.161 -0.0700  0.1451  0.2327
14436W        W30245  14.425   8.117   3.658 -0.0449 -0.0829  0.0516
14437W        W30246   3.006   6.244   0.500 -0.1684 -0.1980  0.1036
14438W        W30247  13.382  13.304  13.626 -0.0045  0.2422  0.1924
14439W        W30248   6.254  16.476   0.402 -0.0568  0.1609  0.2591
14440W        W30249   0.914   4.912   5.251  0.0014  0.0000  0.0890
14441W        W30250  17.702  17.131   3.505 -0.0489  0.2085 -0.2129
14442W        W30251   8.790  12.033  14.679 -0.3686 -0.1753 -0.0307
14443W        W30252  16.741   1.557  11.195  0.1309  0.2494  0.0897
14444W        W30253   6.355   8.406  16.582 -0.0490 -0.1618  0.0578
14445W        W30254   8.809  17.791  16.095 -0.0643  0.1439 -0.0503
14446W        W30255   2.778  10.749  13.441  0.2416  0.1371 -0.1103
14447W        W30256  11.352  14.070   0.258 -0.1233  0.0437 -0.0552
14448W        W30257   3.061  17.849  14.125  0.2437 -0.0204  0.0483
14449W        W30258   1.287  11.028  11.322  0.0783 -0.2922  0.0406
14450W        W30259   0.855   0.245  14.039  0.2883 -0.0539 -0.2592
14451W        W30260   8.333   8.518  14.267  0.2465 -0.1052  0.1681
14452W        W30261   3.885   2.665  14.967 -0.0852 -0.3488  0.0825
14453W        W30262  12.747  10.245   1.904 -0.0238  0.1276 -0.0528
14454W        W30263   0.407   6.447   6.092 -0.0357  0.0159 -0.1520
14455W        W30264  10.782  17.457  13.935  0.1787 -0.0428  0.1019
14456W        W30265  13.849   3.482  15.676  0.0165 -0.0412  0.0145
14457W        W30266   1.537  15.541   2.705  0.1634  0.0088 -0.1903
14458W        W30267  16.409  16.862  11.730  0.4744 -0.2943 -0.2093
14459W        W30268   9.737  13.044  12.103  0.0378  0.1691 -0.4111
14460W        W30269  13.778   1.644  16.087 -0.3116  0.2502 -0.1873
14461W        W30270  12.684   2.573  15.799  0.3322  0.1422 -0.1895
14462W        W30271  10.746   2.358   4.348  0.0809  0.2427 -0.1822
14463W        W30272   4.076  13.652  12.806  0.1726  0.0572 -0.2526
14464W        W30273   1.961  17.512  13.742 -0.0085  0.0817 -0.2208
14465W        W30274   0.016  13.951  12.673  0.2739 -0.1046 -0.1935
14466W        W30275  12.094   3.155   2.049 -0.0788  0.1534 -0.0272
14467W        W30276  13.245  11.851  15.610 -0.1056  0.0231  0.1119
14468W        W30277  14.058   6.114   1.635  0.1065  0.1433  0.3586
14469W        W30278  13.722   7.085  13.087  0.3065 -0.0232 -0.2251
14470W        W30279   6.255   4.047  12.358 -0.0306  0.0444 -0.3616
14471W        W30280   4.474  13.441  12.038  0.0167 -0.2275 -0.2175
14472W        W30281   1.112  16.044  11.108  0.0499  0.0861  0.3263
14473W        W30282   0.229  15.584   0.982 -0.0314  0.0738  0.0667
14474W        W30283  10.530   5.084   5.570 -0.0795 -0.0872  0.3725
14475W        W30284   9.265   0.524   1.343 -0.0982  0.2070  0.2043
14476W        W30285  15.418   2.294   1.066  0.2994 -0.1235 -0.0871
14477W        W30286   4.303   1.543  11.711 -0.1279  0.1661 -0.0511
14478W        W30287   3.084   4.437  12.455 -0.0567 -0.0183 -0.3113
14479W        W30288  15.507   6.436   5.588  0.0947 -0.0873  0.0183
14480W        W30289  16.181   8.084  13.174 -0.2126  0.0313 -0.0076
14481W        W30290   7.623   2.100   5.528  0.3229 -0.0853 -0.0643
14482W        W30291  10.737   7.406   3.569  0.0321  0.1596 -0.0272
14483W        W30292  16.576  13.974  12.511 -0.1735  0.0520  0.0017
14484W        W30293  10.563  15.642   1.662  0.1379 -0.2258 -0.3835
14485W        W30294  14.686   6.127   1.401 -0.0958 -0.0210 -0.0178
14486W        W30295  16.688  11.829   2.898 -0.2682  0.2355 -0.2436
14487W        W30296  12.991  13.503  13.238 -0.0783  0.0527  0.2410
14488W        W30297   9.401   9.161  14.810 -0.2708 -0.2386  0.3100
14489W        W30298  13.597  16.465  16.585  0.1990  0.2451 -0.0462
14490W        W30299  14.757   3.744   5.382  0.1984 -0.1148  0.5456
14491W        W30300   4.438   9.998   2.671 -0.1274 -0.2737 -0.1007
14492W        W30301  13.785   2.449   3.597  0.0217  0.3730 -0.1617
14493W        W30302  12.227  13.284  11.813 -0.0142  0.2543  0.3634
14494W        W30303   2.912  15.126  15.570  0.0381 -0.0831 -0.1271
14495W        W30304  13.079   2.916   1.958  0.0563 -0.3002 -0.0154
14496W        W30305   6.032  10.046   1.400  0.1281 -0.1907 -0.3563
14497W        W30306  15.449  10.538   0.702  0.0169 -0.3903 -0.0027
14498W        W30307  12.416  14.360  16.178 -0.0172  0.2850  0.2755
14499W        W30308   0.269  10.013  15.816 -0.0729 -0.0797  0.1665
14500W        W30309   3.042  16.758  16.565 -0.1011  0.0749 -0.2912
14501W        W30310  12.066  10.429   4.547 -0.1376  0.1613  0.2120
14502W        W30311  11.381   1.396  12.413  0.2215 -0.1082  0.0202
14503W        W30312   4.928  14.485  15.331  0.1046  0.1392 -0.2291
14504W        W30313  10.600  15.726   5.998 -0.0725 -0.5601 -0.1057
14505W        W30314   6.879   2.083  15.122  0.1695  0.0078  0.0904
14506W        W30315  16.079   2.780   4.176  0.3554 -0.3356 -0.1588
14507W        W30316   9.253  13.030  12.578 -0.1795 -0.0432  0.0670
14508W        W30317   7.258  15.180  12.143 -0.0997  0.0936  0.2198
14509W        W30318  15.737   3.074  15.128 -0.1494 -0.0751  0.0828
14510W        W30319  17.359  11.345   5.263  0.2118  0.0423  0.1097
14511W        W30320   3.236  10.729   2.383  0.3246  0.2669 -0.0603
14512W        W30321   5.344   6.365  16.389 -0.0109  0.1216 -0.1646
14513W        W30322   3.186  14.795  12.446  0.0579  0.2650 -0.1256
14514W        W30323   1.880   4.097  12.371  0.0262  0.2323  0.0580
14515W        W30324  10.283   5.948   0.319  0.0228  0.1152 -0.1804
14516W        W30325  11.184   6.481   5.681  0.2504 -0.1343  0.2354
14517W        W30326  16.489   8.229   0.876  0.1032  0.3964  0.1628
14518W        W30327   9.337   5.058  13.395  0.2832  0.1863 -0.0180
14519W        W30328  16.569   8.489  14.824  0.4482 -0.1825  0.3203
14520W        W30329   8.875  11.675   3.974  0.1979 -0.2796  0.1422
14521W        W30330   7.262   9.779  13.782 -0.0153 -0.3377  0.2270
14522W        W30331   5.167   3.711   3.236 -0.1274 -0.0455 -0.0399
14523W        W30332  10.394   3.969   1.757  0.2046  0.0014  0.0714
14524W        W30333   4.545   2.197  16.519 -0.0503 -0.1429 -0.0053
14525W        W30334   4.989   6.844  14.666  0.0478  0.2011  0.2465
14526W        W30335   8.579   3.369   5.693 -0.1902  0.0686 -0.0222
14527W        W30336   3.235   4.324  12.908  0.1485 -0.0087 -0.2034
14528W        W30337   1.803   6.159   5.231  0.2620  0.1228 -0.2671
14529W        W30338   3.172  15.646   4.565 -0.2031  0.0505  0.0990
14530W        W30339  17.595   3.583  10.411  0.3134 -0.1613 -0.2314
14531W        W30340   3.427   0.061  15.472  0.1638 -0.0237  0.1981
14532W        W30341  16.433  16.992  14.631  0.1450  0.1551 -0.0040
14533W        W30342  14.113   7.986  13.065 -0.2095 -0.0242  0.0215
14534W        W30343  16.919  12.199   0.052  0.0731 -0.2512 -0.0002
14535W        W30344   1.016  10.746   0.715  0.1227  0.2883 -0.0692
14536W        W30345   4.451  14.567   1.282 -0.2837  0.1059  0.0748
14537W        W30346  10.857   9.047   1.798 -0.0486 -0.2577 -0.0090
14538W        W30347  13.624   7.166  14.019 -0.0131 -0.0957 -0.3237
14539W        W30348  16.901  10.557  16.298 -0.2086  0.2179  0.3824
14540W        W30349  15.035   7.295  11.775 -0.1017 -0.1658 -0.2854
14541W        W30350   7.142  12.046   5.841  0.0959 -0.0607  0.0045
14542W        W30351   5.951  10.578   3.742 -0.1791  0.0755  0.2396
14543W        W30352  17.856  16.357   0.572  0.1574  0.0603  0.2518
14544W        W30353   8.308  10.085   1.148 -0.1578  0.1633 -0.1355
14545W        W30354  11.398   1.462  13.654 -0.1015 -0.0409  0.0507
14546W        W30355   2.725   6.311  13.889 -0.1661 -0.0465 -0.3148
14547W        W30356  12.606   2.219   1.610  0.0237  0.2302  0.0087
14548W        W30357   0.032  15.993   4.319  0.0026 -0.0545  0.2418
14549W        W30358   9.038   4.787   4.539 -0.3037 -0.1298 -0.0270
14550W        W30359  10.462  14.721   1.321 -0.1489  0.0148 -0.0857
14551W        W30360   5.358  14.320   1.600 -0.0991 -0.1883  0.3402
14552W        W30361   1.315   4.068  14.887  0.0556  0.1538  0.2357
14553W        W30362   0.667  11.656  15.530  0.1532 -0.0497 -0.0524
14554W        W30363  10.903  10.074   0.746  0.1800  0.0892  0.0698
14555W        W30364  15.925  14.299   4.350 -0.0909 -0.0028  0.0737
14556W        W30365   6.112   6.340   3.642 -0.1677  0.0578  0.2472
14557W        W30366   6.282   1.527  14.607 -0.0194 -0.0488 -0.0651
14558W        W30367  16.722   4.063   0.798 -0.0894 -0.0144  0.3318
14559W        W30368   9.428  13.179  13.038  0.0803 -0.0512  0.1673
14560W        W30369  17.151  14.240  14.738 -0.1644  0.0463  0.0451
14561W        W30370  13.855  15.317  13.146  0.1966 -0.2780  0.1033
14562W        W30371   4.366  16.667   5.275 -0.2705 -0.0403 -0.0676
14563W        W30372  16.458  16.526   0.621 -0.0725  0.3330 -0.0805
14564W        W30373   5.453   5.502  13.877 -0.0957 -0.1238 -0.1522
14565W        W30374  13.684  10.610   5.762 -0.0459  0.1507  0.3292
14566W        W30375   1.490  16.530  15.957  0.2099  0.1272 -0.1117
14567W        W30376   1.618   4.328  16.239  0.4527  0.0862  0.0997
14568W        W30377  17.409  11.728  16.544 -0.0363  0.0344 -0.2720
14569W        W30378   4.560  14.762  15.161  0.4360  0.0123  0.2274
14570W        W30379   8.128  13.882  12.135  0.0257  0.1829 -0.0882
14571W        W30380   6.295   2.371  16.432  0.0392  0.2712 -0.2028
14572W        W30381  17.724  10.885   5.496 -0.0412  0.2554 -0.1525
14573W        W30382  10.813   8.952  15.920  0.2405  0.1916 -0.2084
14574W        W30383   1.973   5.671  11.535  0.0795 -0.0272 -0.1275
14575W        W30384   5.213  11.934  12.374  0.1207  0.1329  0.1681
14576W        W30385   0.050  15.950  16.061 -0.1573 -0.2041  0.2803
14577W        W30386  13.242  12.145  15.010 -0.0367  0.0988  0.1565
14578W        W30387  17.387   1.584  14.635 -0.3452  0.1169 -0.2445
14579W        W30388   4.202   1.565  12.638  0.0922  0.1684 -0.1509
14580W        W30389   4.687  13.733  15.143 -0.1395 -0.1895 -0.0644
14581W        W30390  12.441  15.528   3.106 -0.0346  0.4512 -0.1815
14582W        W30391   6.317   5.601  13.639 -0.1042 -0.1591 -0.0547
14583W        W30392  15.093   9.948  14.118  0.2823 -0.0970 -0.1422
14584W        W30393   9.578  17.110   6.525  0.4956 -0.2522 -0.3189
14585W        W30394  14.737   0.959   1.773 -0.2643 -0.0098 -0.0357
14586W        W30395  14.077  14.774  11.614  0.0040  0.1178 -0.0112
14587W        W30396   6.552  11.304  15.104  0.0846  0.1959 -0.1808
14588W        W30397   3.633   6.938  14.970  0.1759  0.1805  0.0622
14589W        W30398  12.993   8.886  14.944 -0.1599  0.0340 -0.2143
14590W        W30399   1.547   2.384  13.375 -0.1071 -0.2036 -0.0394
14591W        W30400   1.130   8.747   0.047  0.3186  0.2067  0.0416
14592W        W30401   0.461   7.076  16.164 -0.0256 -0.3485  0.1141
14593W        W30402   5.401   8.099  10.443  0.0042  0.3819 -0.1700
14594W        W30403  15.645  11.020   3.606 -0.1036  0.0095 -0.0448
14595W        W30404   4.059   9.680  15.217  0.0834 -0.4515 -0.3254
14596W        W30405  17.949   0.047   5.522  0.0982  0.0587  0.0824
14597W        W30406   0.023  14.076   5.663  0.5526  0.0524  0.1165
14598W        W30407   7.915   4.369  15.400 -0.0718 -0.1194  0.0473
14599W        W30408   7.980  16.007   3.551 -0.2051 -0.0124  0.0499
14600W        W30409  14.879   4.282  12.736 -0.4765  0.0586  0.1106
14601W        W30410  12.485  16.097  11.801 -0.0279 -0.0246  0.0854
14602W        W30411  16.226  17.323   5.329 -0.0519 -0.2177 -0.1929
14603W        W30412   9.999   6.779   1.294 -0.2749  0.1114 -0.2112
14604W        W30413   6.597   7.561  12.276  0.0951 -0.3223  0.4055
14605W        W30414  12.815  12.537  13.303 -0.1523  0.0952 -0.2080
14606W        W30415  14.730   1.289   0.157 -0.2416 -0.2285  0.0627
14607W        W30416  12.537  11.806   4.817 -0.0757 -0.2445  0.4864
14608W        W30417  15.975   5.468  16.010  0.2545 -0.0258  0.2745
14609W        W30418   3.928   6.333  10.402 -0.1759 -0.0764  0.4050
14610W        W30419   6.034   1.214  12.786 -0.0543  0.1882 -0.0845
14611W        W30420  13.310   2.494   3.622 -0.1572 -0.0022 -0.0530
14612W        W30421  12.609   3.083   1.877  0.2046  0.2987  0.2578
14613W        W30422   2.422   6.857  12.176 -0.0452  0.0483 -0.2404
14614W        W30423  12.773   7.387  14.850  0.1840  0.2281 -0.2121
14615W        W30424  17.703   3.964   0.449  0.1082 -0.2517  0.2513
14616W        W30425   3.060   9.573  10.218 -0.0135  0.1447 -0.2384
14617W        W30426   3.881   5.377  14.285 -0.0432 -0.0623 -0.0996
14618W        W30427  10.970  17.600   4.398  0.1729 -0.0386  0.0363
14619W        W30428  13.196   6.903   1.035  0.1326 -0.0667  0.1661
14620W        W30429  11.278  13.055   1.032  0.0650 -0.1557  0.0088
14621W        W30430  10.608   5.569  16.083  0.0841  0.0942  0.2290
14622W        W30431   0.880  13.201  11.442  0.1833  0.2638 -0.1366
14623W        W30432  11.027  15.535  13.221  0.0714 -0.1033 -0.1245
14624W        W30433   7.091  14.714   5.640 -0.1700  0.0773 -0.2135
14625W        W30434  14.626  14.783   0.269 -0.1451  0.0246 -0.0511
14626W        W30435   0.953   0.434   1.626 -0.1067 -0.4137 -0.2097
14627W        W30436   3.291   2.286  13.345  0.1208  0.0150 -0.2144
14628W        W30437   1.336  11.944   1.255 -0.3681  0.0042  0.0115
14629W        W30438  16.196  11.417  11.474 -0.1173  0.2721 -0.2995
14630W        W30439   4.836   4.328   2.750  0.0374 -0.4782 -0.1200
14631W        W30440  17.680   4.753   0.940  0.1482  0.1791 -0.0729
14632W        W30441   8.801   5.867  15.206  0.1608  0.1709  0.2243
14633W        W30442  12.345  10.242  16.196 -0.0317  0.0521  0.0814
14634W        W30443   5.478   3.380  16.591  0.2642 -0.1286 -0.0663
14635W        W30444  11.396   1.016   0.682 -0.2011 -0.2718 -0.1963
14636W        W30445   6.930  11.004   3.472 -0.0823  0.1202 -0.3080
14637W        W30446  13.760   4.330  14.023 -0.1640 -0.0746  0.3464
14638W        W30447   4.311  13.864  16.639  0.1857 -0.0213  0.1246
14639W        W30448  13.028   0.836   4.835 -0.1879  0.3054  0.1967
14640W        W30449   1.693  14.328   4.786 -0.1578  0.0997 -0.2120
14641W        W30450  14.055   4.965  11.650 -0.1494 -0.0538 -0.0733
14642W        W30451   4.621   6.886   2.271 -0.0037 -0.2270 -0.1844
14643W        W30452   5.643  13.616   0.337 -0.0279  0.0301  0.0585
14644W        W30453   0.929   0.088   1.993  0.0704 -0.0561 -0.1189
14645W        W30454   7.752   4.526  14.452 -0.3266  0.1045 -0.3052
14646W        W30455  17.793  16.795  12.410  0.0511 -0.0536 -0.0278
14647W        W30456  17.184   3.770   5.877  0.0896 -0.2479 -0.3349
14648W        W30457   0.068  12.809  12.505 -0.0988 -0.3103  0.3177
14649W        W30458  12.519  17.428  14.498 -0.1577 -0.0545  0.1349
14650W        W30459  17.430   3.767  11.657  0.0646 -0.2104  0.2236
14651W        W30460   0.591   4.074  10.236  0.4000  0.0284 -0.2889
14652W        W30461  12.459   6.593   1.882 -0.0816  0.3670 -0.0980
14653W        W30462   0.005  12.104  14.069  0.0376  0.0585 -0.2131
14654W        W30463  14.402   8.403   4.102  0.2714  0.0599  0.2603
14655W        W30464   1.516   6.869  14.362  0.0125 -0.3042  0.2846
14656W        W30465  16.050   9.153  16.005  0.0860  0.2008 -0.0495
14657W        W30466  13.417   4.551  12.161 -0.1476 -0.1685  0.1410
14658W        W30467  15.108   3.896   3.052 -0.0985 -0.1521 -0.1351
14659W        W30468  15.567   3.158   3.160 -0.0174  0.0179  0.1206
14660W        W30469   3.045  16.396   3.459  0.3374  0.3170 -0.0411
14661W        W30470   2.124  17.108  15.129  0.3902 -0.1555  0.2018
14662W        W30471  11.881   0.787  13.226 -0.1776 -0.1487 -0.1353
14663W        W30472   6.194  14.537  11.546 -0.1999  0.0961 -0.2929
14664W        W30473   0.917   7.291  12.357 -0.2767  0.0735  0.0955
14665W        W30474   6.728  15.790  13.955  0.1760  0.0020 -0.1022
14666W        W30475   1.599  13.528  14.433  0.1833 -0.0092  0.2625
14667W        W30476   8.740   2.855  15.063  0.1302  0.2198 -0.1032
14668W        W30477  13.653   3.618  12.797 -0.0313  0.1595 -0.1998
14669W        W30478   8.873  13.609   4.252  0.0385  0.3501  0.2542
14670W        W30479  17.590  12.874   4.507 -0.2854 -0.0594 -0.0017
14671W        W30480  13.015  10.693  13.910  0.1686  0.3253 -0.1538
14672W        W30481   2.629   2.985  14.687 -0.2717  0.0648 -0.0148
14673W        W30482  17.422   4.895  12.136  0.2786  0.1527  0.2953
14674W        W30483  14.571  11.485  16.016  0.0965 -0.1440 -0.3050
14675W        W30484   1.592  17.888   0.854 -0.2898  0.3021 -0.0657
14676W        W30485  10.092   0.923   0.467 -0.3157 -0.1238 -0.1012
14677W        W30486  15.644   9.674  12.562  0.1076  0.2322  0.1942
14678W        W30487   2.494  12.730   2.802 -0.1099 -0.0377 -0.0361
14679W        W30488  17.752   5.261   1.067 -0.2180 -0.3681  0.0070
14680W        W30489   6.851  15.492   3.186  0.2475  0.2212  0.0324
14681W        W30490   1.472  14.082   5.921 -0.0430  0.0150  0.1083
14682W        W30491   6.076  16.583   5.728  0.1028  0.0705  0.0117
14683W        W30492  15.993  15.901  12.899  0.0724 -0.0975  0.0156
14684W        W30493   6.887   9.096   4.369 -0.1230 -0.1516  0.1376
14685W        W30494  10.443   2.268  15.560 -0.0694 -0.1249  0.1929
14686W        W30495  12.527  12.437   0.946  0.1721 -0.1122 -0.1084
14687W        W30496   2.285  13.911  11.048 -0.1232 -0.0739  0.0106
14688W        W30497  10.965   5.144   2.814 -0.1343 -0.0567  0.0284
14689W        W30498  11.922   3.030   5.463  0.2295 -0.1936  0.2339
14690W        W30499   9.996   8.432  12.858 -0.0511 -0.0459 -0.1692
14691W        W30500  12.229  11.191  15.370 -0.0518  0.0134  0.1263
14692W        W30501  15.386   7.423   4.361  0.3002  0.0343 -0.1121
14693W        W30502  12.520   8.995   4.063 -0.2807 -0.0909  0.1915
14694W        W30503   0.008  12.245  16.081 -0.0014 -0.0152 -0.0051
14695W        W30504  10.162  12.163   4.096  0.2793 -0.1259  0.3998
14696W        W30505   7.133  14.562   3.417 -0.1321  0.3010  0.1116
14697W        W30506  15.870  13.709  15.420 -0.4111  0.0639 -0.1798
14698W        W30507   4.041   3.659  14.714 -0.0323  0.5350 -0.0082
14699W        W30508   7.907  11.489  14.990  0.2642 -0.0252  0.0602
14700W        W30509  12.781  16.986  16.664 -0.1117 -0.0068  0.6384
14701W        W30510  16.845   9.953  14.699  0.0762  0.0733 -0.0100
14702W        W30511   9.288   2.746  12.591 -0.0716  0.0358  0.3255
14703W        W30512   1.420   6.617   5.077  0.1562 -0.1060 -0.2132
14704W        W30513  11.977   5.541   2.291 -0.0884 -0.1131 -0.1558
14705W        W30514   7.765   3.668  14.807 -0.1249 -0.1378  0.0219
14706W        W30515  16.906  15.059  14.620  0.1136  0.0059 -0.3240
14707W        W30516  14.123  10.155   2.584  0.1557 -0.1736 -0.2841
14708W        W30517   5.701  12.458   0.475 -0.0380  0.1448  0.0074
14709W        W30518  13.605   5.531  16.692  0.0496 -0.0212 -0.1517
14710W        W30519  17.243   9.232  14.588  0.0529 -0.0625  0.1633
14711W        W30520   6.883   3.661   1.272  0.3000 -0.0098  0.0057
14712W        W30521   9.726  16.966  15.089  0.1777 -0.2044  0.1584
14713W        W30522  16.124   5.864  16.439 -0.2027 -0.1079 -0.3098
14714W        W30523  11.522   4.020  12.870  0.0194 -0.0801 -0.2514
14715W        W30524   8.878   5.327  16.442 -0.1522  0.2633 -0.1710
14716W        W30525   9.809   3.633   5.448 -0.2928  0.0950 -0.2816
14717W        W30526  14.659  16.375   2.526 -0.0503  0.2316  0.1316
14718W        W30527   0.126   2.689  13.672 -0.1792  0.1020  0.0111
14719W        W30528  13.667  14.525   6.740 -0.1858  0.3010 -0.0209
14720W        W30529   4.914   4.087  15.921  0.0985 -0.2274 -0.1147
14721W        W30530  10.518  10.917   4.517  0.0644  0.1011  0.0492
14722W        W30531   1.019  11.880   4.138  0.1653 -0.2516  0.1544
14723W        W30532   1.971   8.337   5.262  0.0915 -0.1580 -0.0205
14724W        W30533  10.627  15.325   2.031 -0.0273  0.0131  0.0925
14725W        W30534  17.429   7.577   4.304 -0.0130 -0.2762  0.0114
14726W        W30535  16.205   0.962  16.548  0.0555  0.1391  0.1353
14727W        W30536   6.964  13.485   3.726  0.1815  0.1729  0.2465
14728W        W30537  14.420  16.943   5.609  0.2711  0.1402  0.2231
14729W        W30538  12.415  14.618   1.079  0.2482  0.2655  0.2588
14730W        W30539  10.163  10.623   0.887  0.1567 -0.0966 -0.1307
14731W        W30540   6.380  16.278   1.712  0.3568  0.0037  0.0754
14732W        W30541   1.332   3.876  12.465 -0.0067 -0.0844  0.0112
14733W        W30542   7.568  15.289  16.007  0.3106 -0.1886 -0.1795
14734W        W30543  10.272  13.845  16.294 -0.1352 -0.0227 -0.3152
14735W        W30544   8.974   2.536   5.394  0.1679  0.3251  0.1840
14736W        W30545  15.012   3.333  13.283  0.2682 -0.1432  0.0821
14737W        W30546   7.487   0.982  14.419 -0.3341 -0.0099  0.0162
14738W        W30547  16.666  15.897   3.555  0.1239 -0.0124 -0.0192
14739W        W30548   8.456   4.712   3.752 -0.1542 -0.1232 -0.0756
14740W        W30549   1.067  16.408  14.167  0.1393 -0.1345 -0.2436
14741W        W30550   9.259   9.981   2.111 -0.0010 -0.1204  0.1275
14742W        W30551   0.277  14.949  14.742 -0.2998  0.1456  0.1747
14743W        W30552   6.923   0.352  12.333  0.0190  0.0269 -0.0378
14744W        W30553   8.084   2.443   6.188 -0.1557  0.0404  0.0723
14745W        W30554   8.595  16.315  12.539  0.1297 -0.1466  0.1286
14746W        W30555  15.563   0.376   6.239 -0.1798  0.0134 -0.1361
14747W        W30556   4.774   7.654   1.467  0.2709 -0.1031  0.2213
14748W        W30557  15.704  14.485  14.724 -0.1721 -0.2304 -0.1127
14749W        W30558  17.243  15.627   4.914  0.2068  0.1025  0.0994
14750W        W30559  15.087  12.271   4.038 -0.4416  0.1963  0.0580
14751W        W30560   8.361  15.448  11.545 -0.0332  0.1376 -0.1152
14752W        W30561  14.126  17.137   3.391 -0.1660 -0.3875  0.1088
14753W        W30562  12.982  17.673  15.415  0.0691 -0.0476  0.3328
14754W        W30563  12.422  12.292  16.338 -0.2018 -0.0628  0.0159
14755W        W30564   8.959   2.091  16.100  0.2634  0.0993 -0.1423
14756W        W30565  17.264  10.777  12.860 -0.3212 -0.1346  0.0586
14757W        W30566   5.850  17.653   0.642  0.0884 -0.0335 -0.1877
14758W        W30567  12.295  14.405  12.767 -0.0964  0.1371 -0.3907
14759W        W30568   2.045   7.562   9.958 -0.1553  0.0105  0.1009
14760W        W30569   8.959   8.200  12.391 -0.1790 -0.1270  0.2915
14761W        W30570  10.931  13.413   1.985 -0.0449 -0.1303 -0.0883
14762W        W30571   9.674  10.264   4.023  0.3791  0.2752  0.2936
14763W        W30572   3.447   0.840  10.752 -0.0563 -0.2009  0.2273
14764W        W30573  11.574   7.981   0.163 -0.0687  0.1013 -0.4805
14765W        W30574  15.797  13.579  14.912  0.0887  0.0909 -0.1634
14766W        W30575  15.139   4.683   2.108 -0.1094  0.1790  0.0816
14767W        W30576   9.216   2.053   1.871 -0.0008 -0.6099 -0.1546
14768W        W30577  15.326   0.942   3.873 -0.0160 -0.2711 -0.1608
14769W        W30578  11.042  15.547  15.088  0.1525 -0.1526 -0.0037
14770W        W30579   6.699   0.532  11.118  0.0047 -0.0864 -0.4516
14771W        W30580  15.947   7.644  14.819  0.3003 -0.0404 -0.1377
14772W        W30581   1.138   2.666  13.442  0.1842  0.2654  0.3528
14773W        W30582   6.178   9.839   3.548  0.0105  0.0733 -0.0121
14774W        W30583   2.768   7.845  11.878  0.1125  0.0129 -0.1577
14775W        W30584  11.457   2.439   0.392 -0.1739 -0.1366 -0.0420
14776W        W30585  11.521   7.505   0.316  0.1366 -0.1555 -0.0475
14777W        W30586   6.172   0.483   2.774  0.1660  0.0622  0.2622
14778W        W30587  16.525   6.352   1.157 -0.1704 -0.1408  0.1228
14779W        W30588  15.335  13.073   2.779  0.0034  0.2821  0.0767
14780W        W30589   1.707   4.467   4.721  0.3356 -0.1339  0.3637
14781W        W30590   4.085  13.567  11.732 -0.2252  0.0013  0.0570
14782W        W30591  15.374   0.357   2.209 -0.1580 -0.2251  0.1000
14783W        W30592  16.966  12.268   1.081  0.1241 -0.0246 -0.1659
14784W        W30593   6.656   8.987  11.280  0.1785 -0.0483 -0.0743
14785W        W30594   9.149   7.122  13.733 -0.1522 -0.1727 -0.1383
14786W        W30595  17.773  11.494  14.812  0.0320 -0.0352  0.0162
14787W        W30596   6.191  15.775   5.425 -0.0368 -0.3403 -0.3985
14788W        W30597   5.024  11.296   2.434 -0.0397  0.3265  0.0858
14789W        W30598  13.860   9.309  14.899 -0.0644 -0.0832  0.1165
14790W        W30599   3.032  11.312   0.999  0.0062  0.1851 -0.0488
14791W        W30600  11.252  10.123   0.403  0.1141  0.3677  0.0039
14792W        W30601   3.283  10.446   3.581 -0.0344  0.1211  0.1967
14793W        W30602   5.460  12.818   1.353 -0.0865  0.1215 -0.0677
14794W        W30603   9.835  14.592  15.544  0.1218  0.1490  0.0522
14795W        W30604  15.965   9.694   2.653  0.0174 -0.0460 -0.2824
14796W        W30605   4.592  16.553   4.313 -0.3036  0.1451  0.0852
14797W        W30606  17.644   4.872  10.811 -0.0913 -0.0565  0.3192
14798W        W30607   5.799  11.215   0.672 -0.1374 -0.0336  0.3813
14799W        W30608   7.069   0.512  13.592 -0.2955  0.0447  0.0746
14800W        W30609   1.303  10.698   1.848  0.0015  0.2113 -0.1624
14801W        W30610   6.532   5.255  13.977  0.0590  0.3336 -0.0727
14802W        W30611  16.089  14.940  16.010  0.3601 -0.0114  0.2732
14803W        W30612   1.384  15.785  13.554 -0.1050 -0.3629  0.1865
14804W        W30613   3.629   6.103  11.206 -0.0158  0.3206 -0.2439
14805W        W30614   4.756  16.876   1.349 -0.1997 -0.4336 -0.0451
14806W        W30615   4.511   0.128  14.887 -0.2197  0.1630  0.4121
14807W        W30616   8.298   4.997   2.101 -0.2518 -0.1332 -0.3082
14808W        W30617   5.883  15.633  13.849 -0.1237  0.0037 -0.0100
14809W        W30618  16.452  16.167  16.381  0.3484  0.0780  0.1892
14810W        W30619  13.498  12.916   2.098  0.0341  0.1116  0.0519
14811W        W30620   8.804   5.495   3.219 -0.1653 -0.1135 -0.0346
14812W        W30621   9.849   0.309  15.863 -0.2037 -0.1327  0.2896
14813W        W30622   6.121  13.342  14.192 -0.2173  0.2989  0.1781
14814W        W30623  17.629  10.655  13.292 -0.1772  0.1910  0.1794
14815W        W30624  10.055  17.549  15.568 -0.1590  0.0422  0.1467
14816W        W30625   7.952  17.754  13.041  0.3453  0.0471 -0.2273
14817W        W30626   0.895  15.139   1.676  0.1383 -0.1726 -0.3760
14818W        W30627  11.536   4.994   4.792 -0.0375 -0.0589  0.1471
14819W        W30628  11.560  11.309   6.701  0.0064 -0.0491  0.0303
14820W        W30629   0.740   8.668  12.674 -0.3895  0.3636 -0.2205
14821W        W30630  15.245  14.066   3.619 -0.1038  0.2874  0.0396
14822W        W30631  13.620   1.138   2.890 -0.0858 -0.0136  0.0343
14823W        W30632  10.398   8.877   6.196  0.1354  0.0238 -0.0669
14824W        W30633  11.165  16.978   1.407 -0.0398  0.1587  0.4298
14825W        W30634  16.688  10.990   3.460 -0.0945 -0.0037  0.0995
14826W        W30635   2.280  16.337  13.712 -0.1116  0.0225 -0.2502
14827W        W30636  12.858   5.727   0.994 -0.0740  0.0401 -0.3826
14828W        W30637  17.683   4.219  15.546 -0.0094 -0.3002 -0.0547
14829W        W30638  16.321   8.708  16.661 -0.1509  0.2742  0.2053
14830W        W30639  14.059  14.935  12.864 -0.0125  0.1812 -0.2149
14831W        W30640   5.399   1.776  13.948 -0.1747 -0.0299  0.1314
14832W        W30641   1.005   7.368  13.058  0.2048  0.4858  0.0913
14833W        W30642   6.934  13.277  13.835  0.3002 -0.0892 -0.2158
14834W        W30643   8.544   9.562  15.378  0.0435  0.3659  0.1876
14835W        W30644   8.563   2.368   6.133 -0.0153 -0.1705  0.0705
14836W        W30645  16.814   5.193  14.183  0.0692  0.0650  0.0283
14837W        W30646   6.794   5.855   0.871 -0.2205 -0.1606 -0.2567
14838W        W30647  16.679   0.420   0.733  0.0090  0.0681 -0.1024
14839W        W30648   7.502   3.630  13.133 -0.1168 -0.2768 -0.3849
14840W        W30649   4.988   3.826  14.883  0.0005 -0.1020 -0.2878
14841W        W30650  12.737   9.739  13.261 -0.3014 -0.2312  0.0162
14842W        W30651   2.189  15.361   3.809 -0.0265 -0.2171  0.2870
14843W        W30652  13.149  15.837   0.840  0.0520 -0.2010  0.0334
14844W        W30653  13.361   4.803   0.716 -0.1525 -0.1030 -0.4276
14845W        W30654   8.443   6.166   5.065 -0.0489 -0.2900  0.0955
14846W        W30655   8.860  16.601  12.070  0.1673 -0.0185  0.1068
14847W        W30656   8.166  14.502   6.032  0.3048  0.0015 -0.0946
14848W        W30657   1.797  16.198   0.532  0.0255 -0.1319  0.0173
14849W        W30658   1.026  13.336  12.930  0.1881  0.2030  0.3820
14850W        W30659   4.028   3.330   3.072 -0.0121  0.1199 -0.1062
14851W        W30660  17.300   3.817   5.399  0.0585 -0.3909 -0.0136
14852W        W30661   4.913  13.073  12.824  0.1541 -0.1293  0.3109
14853W        W30662   2.549  10.697  16.020  0.2084  0.1209  0.2561
14854W        W30663   3.091  14.433  12.048  0.1719 -0.1229 -0.3329
14855W        W30664  16.480  17.808  14.812 -0.0498  0.1028 -0.0809
14856W        W30665   9.837  12.248   1.750 -0.4235  0.3019  0.1040
14857W        W30666  12.270   1.856   0.596  0.0331  0.0081 -0.3339
14858W        W30667   7.483  15.104  13.378  0.2601  0.3070  0.1874
14859W        W30668  15.571   9.551  16.455 -0.0136 -0.2892  0.1625
14860W        W30669   7.026   8.680  12.929  0.2999 -0.2004  0.2858
14861W        W30670   7.162   1.598   3.983 -0.1514 -0.2439 -0.1452
14862W        W30671  17.354   0.214  13.736  0.1978  0.0929 -0.5371
14863W        W30672  13.385  12.035  13.979  0.0968  0.2524 -0.1371
14864W        W30673  11.703  10.755   1.149  0.2517  0.0447 -0.0144
14865W        W30674  13.677  16.523   1.629  0.1757  0.1275 -0.1052
14866W        W30675  14.785   3.769  11.649 -0.1196 -0.1941 -0.0359
14867W        W30676   1.303   3.571   1.678 -0.0927 -0.0515 -0.0422
14868W        W30677   6.581  13.515   1.456 -0.1822  0.0805 -0.3417
14869W        W30678  11.378   2.858   2.412  0.0039  0.3511  0.0944
14870W        W30679  15.972   3.430   1.251  0.2200  0.0240 -0.1044
14871W        W30680  10.520   6.860   2.759  0.1435  0.1691  0.0002
14872W        W30681  11.883   7.823  12.085 -0.0970 -0.0122  0.1668
14873W        W30682   6.129  15.076   2.027 -0.2211 -0.0853 -0.1174
14874W        W30683   0.515   9.066   2.669  0.0968  0.2183 -0.1269
14875W        W30684   0.938   0.394  11.413 -0.0865  0.1224 -0.2626
14876W        W30685   0.631  17.345  13.542 -0.4746  0.1810 -0.4395
14877W        W30686  16.914  16.685  15.907 -0.1059  0.1712  0.1853
14878W        W30687   2.333  14.892  15.055 -0.3004 -0.0232  0.1422
14879W        W30688  12.253  14.914  15.575 -0.1047  0.1022 -0.1566
14880W        W30689   4.989  12.388   5.306  0.2196 -0.0663 -0.3047
14881W        W30690   6.508   9.178  14.098  0.0665  0.0468 -0.0984
14882W        W30691  16.141   6.389  16.580  0.0527 -0.0740 -0.2139
14883W        W30692  12.227   7.498   5.838  0.0119  0.1741  0.1400
14884W        W30693  14.847  12.514  11.603  0.1870  0.1441  0.2371
14885W        W30694  17.392   3.178   4.140  0.0746  0.1827  0.1488
14886W        W30695  17.520   8.249   0.019 -0.0509 -0.2880 -0.0428
14887W        W30696   2.654   2.306  12.610 -0.1789 -0.0283  0.0890
14888W        W30697   3.988   9.210  14.401 -0.1735 -0.0522 -0.2177
14889W        W30698   3.226  13.280  15.445  0.0048  0.1173  0.0348
14890W        W30699   7.335  11.416  14.821 -0.0899 -0.0197 -0.1561
14891W        W30700  13.434  16.934  10.642  0.0937 -0.1079 -0.1154
14892W        W30701   4.164  16.675  11.521  0.1401  0.4919 -0.0607
14893W        W30702  11.319   9.229  12.277  0.1037 -0.0354 -0.0867
14894W        W30703   1.017  13.345  16.195  0.0364 -0.0691  0.1226
14895W        W30704  13.060   4.273  12.572 -0.2401  0.0092  0.0058
14896W        W30705  12.942   3.411   0.068  0.0135  0.3367  0.5121
14897W        W30706   9.775   2.621   0.900 -0.0805  0.0074 -0.0199
14898W        W30707   3.544  17.787  12.485 -0.1843 -0.0488 -0.1701
14899W        W30708  12.263  11.057   3.759  0.0963  0.3460 -0.1630
14900W        W30709   3.126  10.085   5.196 -0.1304  0.2611  0.0230
14901W        W30710   7.433   1.625   0.970  0.1544  0.0732 -0.3526
14902W        W30711   1.969  17.107   3.840  0.0130  0.0766 -0.0042
14903W        W30712  15.289   5.711  15.515 -0.0501 -0.3459 -0.0530
14904W        W30713   2.329  16.887   2.125  0.2147  0.0043  0.0947
14905W        W30714   1.196  12.484   1.415  0.0506 -0.0127 -0.1839
14906W        W30715   2.466   4.396   4.536  0.2448 -0.0621 -0.1737
14907W        W30716   8.979   2.057   3.182 -0.1806 -0.0439  0.2465
14908W        W30717  11.293   4.494   1.963 -0.2957 -0.2073 -0.0693
14909W        W30718   4.115  11.629  14.908  0.2628 -0.2307 -0.2015
14910W        W30719  12.655   5.660   1.450  0.0818  0.1958 -0.1151
14911W        W30720   0.259  12.397   5.415 -0.0317 -0.1036  0.2553
14912W        W30721   0.292  13.015  15.585 -0.3902  0.1049 -0.0528
14913W        W30722  16.625  11.280  13.751  0.0343 -0.2041 -0.1512
14914W        W30723  16.384  13.332   1.190 -0.1634  0.0720  0.2182
14915W        W30724  12.202   8.815  16.321 -0.0802 -0.1841 -0.4302
14916W        W30725   0.606   6.425  13.282  0.1483  0.0619 -0.0686
14917W        W30726   2.209  12.011  15.602 -0.2386  0.1316 -0.2215
14918W        W30727   7.091  11.489   2.882  0.1651 -0.0857  0.0768
14919W        W30728   0.951  10.971  15.075 -0.2565 -0.1061  0.2954
14920W        W30729   2.739   6.231  11.044  0.0583 -0.1347 -0.1111
14921W        W30730  15.086  13.903  14.726  0.1002 -0.0393  0.3407
14922W        W30731   3.403   7.039   1.867 -0.1539 -0.0958 -0.2477
14923W        W30732   2.335   8.166   3.798  0.1921 -0.0756  0.1921
14924W        W30733  14.494   4.371  14.706 -0.0505 -0.1542  0.1614
14925W        W30734  12.789   2.918  15.469  0.2330  0.1926  0.1103
14926W        W30735  10.394   6.201   2.182  0.2844 -0.0184  0.5233
14927W        W30736   7.921   7.414   2.216 -0.3387 -0.4165  0.4840
14928W        W30737   1.038  13.684   4.365 -0.0307 -0.1566 -0.2487
14929W        W30738   7.448   9.384  13.545 -0.1112  0.3725  0.2790
14930W        W30739  15.605  11.953  16.430  0.2859 -0.0143  0.1192
14931W        W30740   2.969  10.383   4.002 -0.3681  0.2102 -0.1567
14932W        W30741  13.004   6.129   0.314  0.0005  0.0819  0.1310
14933W        W30742   5.114  12.148   2.773  0.3253 -0.0169 -0.0439
14934W        W30743   8.022   2.844  12.783 -0.1405 -0.0239 -0.3735
14935W        W30744   6.347   0.532   1.616  0.2152  0.1530  0.1284
14936W        W30745  17.074  15.730   0.874  0.0304 -0.2160 -0.1824
14937W        W30746  15.093  11.759  10.999 -0.0565 -0.2978 -0.2396
14938W        W30747   1.561   1.447  13.538 -0.2149  0.2997 -0.0683
14939W        W30748   4.559  14.234  11.735  0.2442 -0.1916  0.0777
14940W        W30749  14.837  16.818   4.270 -0.1495  0.1281  0.0119
14941W        W30750  14.098  10.018   2.081  0.2137 -0.0071 -0.0919
14942W        W30751   6.124   0.551  12.272 -0.0701 -0.0678  0.1316
14943W        W30752   2.228  17.837   3.207 -0.0387 -0.0625 -0.0686
14944W        W30753  14.266   3.072  11.456  0.1116 -0.0457  0.0983
14945W        W30754  15.933   6.596   0.251  0.2838  0.3450  0.1659
14946W        W30755   4.492   8.170  14.425 -0.0949  0.0004  0.0716
14947W        W30756   3.098  16.221  16.269  0.3101 -0.0485  0.1070
14948W        W30757   1.615  11.278   2.020 -0.0973  0.3845 -0.1236
14949W        W30758   4.450   1.490   3.751 -0.1066  0.0714  0.2067
14950W        W30759  12.186   0.775  11.238  0.0786 -0.0526  0.1364
14951W        W30760   0.192   8.362   3.389  0.1657  0.0859 -0.1326
14952W        W30761   3.689   0.238  15.023 -0.1656  0.2235  0.0705
14953W        W30762  10.252  12.034  13.171 -0.2140 -0.0151 -0.0936
14954W        W30763  13.002  12.042   4.947 -0.0188  0.2623  0.0347
14955W        W30764   8.122   8.614  16.701  0.0905 -0.0930 -0.0351
14956W        W30765  17.060   2.445   2.368 -0.4663 -0.1376  0.0518
14957W        W30766  17.848  13.261   3.144  0.1922 -0.0620 -0.1517
14958W        W30767  13.410  12.611  14.065  0.3078 -0.1131  0.1962
14959W        W30768   7.505   6.786  11.619 -0.0145 -0.0270  0.2543
14960W        W30769  17.297   8.757  12.158  0.0589 -0.0518 -0.1688
14961W        W30770   4.134   3.783  11.350  0.0111 -0.1498 -0.1673
14962W        W30771  15.741   8.763   3.995 -0.1241 -0.3826 -0.0546
14963W        W30772   4.006  10.668   2.132  0.0248  0.3878  0.3910
14964W        W30773  10.060  15.141  14.732 -0.3541 -0.1921  0.2141
14965W        W30774   9.568   2.853  13.538  0.0326  0.1182 -0.2405
14966W        W30775  11.239  16.865   3.084 -0.0647  0.0714 -0.0223
14967W        W30776   4.594  17.101  11.706  0.0396 -0.0382 -0.1111
14968W        W30777  12.484   7.046  13.047  0.1515  0.0806  0.3143
14969W        W30778  14.834  15.352  13.336 -0.3131 -0.2682 -0.1063
14970W        W30779   6.564   4.485   1.070 -0.0332 -0.0271  0.0574
14971W        W30780  13.624  17.298  12.988 -0.3562  0.0380 -0.0573
14972W        W30781  11.620   1.356  14.194  0.2410  0.0542  0.0080
14973W        W30782   3.613   3.017  15.428 -0.0214  0.2051  0.0826
14974W        W30783   0.665   9.859   0.444  0.1373  0.1003 -0.0530
14975W        W30784   1.838   8.769  14.017  0.0108  0.1223  0.4462
14976W        W30785   2.260   1.717  11.085  0.0578  0.0826  0.2337
14977W        W30786  16.421   8.315  13.683 -0.1213  0.1013  0.0802
14978W        W30787  12.309   3.688   1.236 -0.1721 -0.0400  0.1503
14979W        W30788   8.753  13.782  13.048 -0.0568  0.0506  0.0433
14980W        W30789   7.953   6.356  12.695 -0.1289 -0.0107 -0.0437
14981W        W30790   3.240   9.997  13.498  0.0649 -0.1985  0.0662
14982W        W30791   9.703   9.779   4.181 -0.2721  0.1795  0.1824
14983W        W30792   4.477  10.748   2.386  0.6116 -0.1172 -0.0724
14984W        W30793   5.420  16.868   2.574  0.0002 -0.1500  0.0722
14985W        W30794   7.424   9.573  12.615 -0.1181 -0.0590 -0.1651
14986W        W30795  15.474  11.969   5.375  0.3908  0.0986 -0.4457
14987W        W30796  10.718   7.882   0.304 -0.2120  0.1847  0.2977
14988W        W30797  14.643   2.911   0.160 -0.3331 -0.1086  0.0176
14989W        W30798  10.443   1.184  12.598 -0.0124 -0.0845  0.1233
14990W        W30799   6.271   0.246  13.182  0.5955 -0.0726  0.1765
14991W        W30800  14.529  11.892   0.729 -0.0962 -0.1235  0.1257
14992W        W30801   5.970   8.215  13.528 -0.0830 -0.0171  0.0800
14993W        W30802   3.011   7.732   1.089  0.1904  0.0412  0.0043
14994W        W30803   6.252  13.449  10.476 -0.0134 -0.0626 -0.2217
14995W        W30804   7.967   2.465   4.635 -0.1921  0.2257 -0.0615
14996W        W30805  10.785   4.149   5.379 -0.2231  0.1412  0.1579
14997W        W30806  13.233  13.614   5.126 -0.2242 -0.0380 -0.1883
14998W        W30807  16.539  13.585   2.213  0.0481  0.1084 -0.1704
14999W        W30808   0.108  11.842  14.503 -0.5833  0.0324 -0.1111
15000W        W30809  13.244   9.898  13.411  0.3144  0.0290  0.4819
15001W        W30810  15.868  16.084  15.768  0.0741 -0.0591 -0.0473
15002W        W30811   8.144   0.284  16.411  0.1748  0.4170 -0.2126
15003W        W30812   7.174   8.065  14.025  0.1807  0.1774  0.1735
15004W        W30813   4.873   7.610   3.811 -0.2540  0.1258 -0.2986
15005W        W30814   8.352   8.796  13.267  0.0638  0.0245  0.0716
15006W        W30815  10.690   1.708   0.801 -0.1506 -0.1311 -0.2381
15007W        W30816  11.757  13.456  11.964  0.2180  0.1472  0.0902
15008W        W30817  17.790  16.779   2.964  0.0574  0.0614  0.2193
15009W        W30818  15.824  17.028   5.383 -0.1812 -0.0060  0.0291
15010W        W30819   4.328   6.879  13.487  0.1874  0.0312  0.2868
15011W        W30820   0.337  10.547  11.424 -0.1376  0.0219  0.3515
15012W        W30821  15.436   1.461   4.718 -0.0497  0.1378 -0.0550
15013W        W30822  10.016   9.621   6.623 -0.2797 -0.0356 -0.0691
15014W        W30823   8.098   8.884   2.763 -0.1054  0.1176 -0.0629
15015W        W30824  15.728  17.320  16.367  0.0879 -0.2234  0.3299
15016W        W30825   1.135   4.137  16.195  0.1855  0.1285  0.2274
15017W        W30826  14.966  15.749  11.282 -0.3126 -0.0779 -0.1133
15018W        W30827   7.693  10.557   2.197 -0.0882  0.2712 -0.3112
15019W        W30828   5.320  12.086  11.398  0.1021 -0.2539 -0.1398
15020W        W30829  14.672  16.829  16.035  0.0449  0.0638 -0.0182
15021W        W30830   3.859   8.611   2.536  0.1494 -0.0614 -0.6186
15022W        W30831  10.805   2.697  11.855  0.1202  0.0105 -0.1388
15023W        W30832   3.747  10.516   3.837  0.0821  0.0843  0.0897
15024W        W30833   7.229   5.580  15.464  0.0405  0.1910  0.1632
15025W        W30834  17.860  13.704   0.496  0.2577  0.1171  0.1658
15026W        W30835   6.209  10.953   3.509 -0.1078 -0.0323  0.2862
15027W        W30836   0.545   2.244  15.598 -0.2127  0.0856 -0.1589
15028W        W30837   9.476  17.605  12.037 -0.0372  0.2608 -0.1241
15029W        W30838   4.497   1.419  14.426 -0.2909  0.2299  0.0103
15030W        W30839   2.801  16.644  12.128  0.4324  0.0314  0.1632
15031W        W30840   2.770  10.112   0.458 -0.0183  0.0719 -0.4779
15032W        W30841   0.792  17.527   1.978  0.3825  0.0499 -0.1346
15033W        W30842  11.426   3.235  15.288 -0.0293  0.0220  0.0868
15034W        W30843  11.650   2.051  15.198  0.0013 -0.1707 -0.2142
15035W        W30844   7.230   7.993  15.342  0.1564 -0.0453 -0.1286
15036W        W30845   0.688  15.803   2.262 -0.2190 -0.4356  0.0999
15037W        W30846  14.725   5.619   0.887 -0.2251  0.2991  0.1191
15038W        W30847  14.049   0.405   0.468  0.1821 -0.1572  0.3470
15039W        W30848  10.127  15.461  14.213  0.0174  0.1399  0.0546
15040W        W30849   8.874  12.857   2.501  0.2834  0.2094  0.0962
15041W        W30850   8.691  12.379   2.428 -0.0587  0.0738 -0.1650
15042W        W30851  17.364   9.005   4.833 -0.1818 -0.1220 -0.1627
15043W        W30852   9.839   7.556  11.972  0.1212  0.1282  0.1191
15044W        W30853   7.380   4.215   4.177 -0.1337 -0.2679 -0.2726
15045W        W30854  13.427   0.144   0.837  0.1190 -0.2401  0.2516
15046W        W30855  13.778   4.520   4.568  0.3115  0.0048 -0.0346
15047W        W30856  15.807   0.987  14.363  0.1301 -0.2196  0.0975
15048W        W30857  12.723   2.301  11.509 -0.1369 -0.3453  0.3871
15049W        W30858  14.337   8.523   6.124 -0.2291 -0.0646  0.2604
15050W        W30859   0.983  16.354  16.077  0.0661  0.1595 -0.0640
15051W        W30860  12.661   9.760  12.761 -0.1046 -0.2331 -0.0633
15052W        W30861  13.315   1.198  12.642  0.1092 -0.2593 -0.0767
15053W        W30862  13.520  17.247   2.555 -0.1955  0.0141 -0.1233
15054W        W30863  11.972  16.339  14.971 -0.0497  0.1961  0.0483
15055W        W30864   9.078   6.599  11.684 -0.1595  0.0574  0.0053
15056W        W30865   3.863   9.797   2.404 -0.0550 -0.2084 -0.0688
15057W        W30866   4.213  15.056  14.968 -0.1893  0.1067  0.2483
15058W        W30867   6.055   2.735  14.382 -0.1597 -0.0454 -0.2320
15059W        W30868   0.879   2.947  16.207  0.1031 -0.1667  0.2270
15060W        W30869   7.504  15.867  15.151  0.0429  0.1611 -0.1696
15061W        W30870  17.655   9.414   2.807 -0.0792 -0.3753 -0.2990
15062W        W30871  15.232  15.254   2.370  0.0830  0.1779  0.0126
15063W        W30872  10.765   3.642   2.047 -0.2956  0.0030 -0.3994
15064W        W30873  14.261   5.393   2.853 -0.1395 -0.0811 -0.1377
15065W        W30874  13.124  17.228  14.377  0.3131 -0.3112 -0.2784
15066W        W30875  10.323  16.236  14.825  0.3415 -0.1538 -0.1738
15067W        W30876  15.449  16.511   5.679 -0.0700 -0.1590 -0.0967
15068W        W30877   6.899  16.279   3.819  0.2141  0.1244  0.0748
15069W        W30878   5.805   3.896  15.461  0.0179 -0.0256  0.3408
15070W        W30879  13.422  12.847   2.935  0.0904  0.1000 -0.3786
15071W        W30880   9.832   4.272   0.381 -0.0727  0.3157 -0.2209
15072W        W30881   9.809   4.952   1.088 -0.0579  0.0051  0.1563
15073W        W30882  10.579   0.988   1.306 -0.0639  0.0750 -0.0263
15074W        W30883   3.193  15.035   2.049 -0.1290 -0.1428 -0.2202
15075W        W30884   0.598  11.302  13.139  0.1604  0.4504  0.0783
15076W        W30885  15.292   8.738  14.782  0.1257  0.1519 -0.0499
15077W        W30886   2.990   3.825  15.616 -0.2180  0.0692  0.0273
15078W        W30887  16.762  17.643  12.584 -0.0515  0.4772  0.3171
15079W        W30888   9.198  13.780   4.579  0.0076 -0.0257  0.2118
15080W        W30889  13.259   9.596   2.876  0.0441  0.4130 -0.0003
15081W        W30890   8.352   5.081  16.322 -0.0246 -0.0549  0.0802
15082W        W30891   4.544  13.836  14.410 -0.1630 -0.5435 -0.0084
15083W        W30892   7.426  14.487  15.710  0.0326 -0.2031 -0.0560
15084W        W30893   8.554   1.293   6.474  0.0387  0.0270 -0.1439
15085W        W30894  12.422   2.955   4.177  0.2683  0.3091  0.1670
15086W        W30895  16.805   9.079   3.024 -0.2128 -0.0216  0.0316
15087W        W30896   4.415  11.538  13.470 -0.0642 -0.2854 -0.1349
15088W        W30897   8.481  17.747   1.909 -0.1976  0.1599  0.2821
15089W        W30898  11.743  10.515   4.102  0.0131 -0.1406  0.1002
15090W        W30899  16.470   2.169   3.626  0.1934 -0.0129  0.0678
15091W        W30900  10.956   2.797  15.135 -0.0854  0.1178 -0.4616
15092W        W30901  12.444   7.682  15.183 -0.0865 -0.0483 -0.0727
15093W        W30902   5.958  11.201   1.486  0.0545 -0.1068 -0.2497
15094W        W30903  12.885   4.272   2.616 -0.0342 -0.1894 -0.2324
15095W        W30904  12.732   3.147  11.889  0.1361  0.1153 -0.0318
15096W        W30905   1.461   7.339   2.213 -0.0043 -0.3113 -0.3600
15097W        W30906  14.873  10.876  15.274 -0.2645 -0.1586 -0.2660
15098W        W30907  10.002   6.228   6.186  0.3843 -0.0524  0.0148
15099W        W30908   2.132  15.971  14.156  0.0162 -0.1844  0.1704
15100W        W30909   6.432   6.636   3.972  0.1224 -0.1821  0.0752
15101W        W30910   8.660  14.073  15.146 -0.0158  0.0613  0.0873
15102W        W30911   2.167   6.507   0.706  0.0721  0.0231  0.1222
15103W        W30912  12.977  10.669   4.085 -0.1344 -0.0171 -0.0533
15104W        W30913  14.518  11.386   0.558  0.1416 -0.0548 -0.1084
15105W        W30914   5.241   1.762  13.208 -0.0058  0.0464 -0.1254
15106W        W30915   6.745   8.796  15.788  0.1217  0.1994 -0.0530
15107W        W30916   8.307   1.277  15.358 -0.2211  0.0009 -0.3019
15108W        W30917  10.343   8.903   4.841 -0.0463  0.1272 -0.2678
15109W        W30918   1.836   7.234  16.059  0.0825 -0.0648  0.0288
15110W        W30919   1.719   8.687   4.663  0.1895 -0.0671 -0.1710
15111W        W30920  15.553  16.112   0.744 -0.0916  0.0528 -0.0294
15112W        W30921  16.754   1.512   1.383 -0.1783 -0.0869  0.0928
15113W        W30922  16.659   9.640   3.807  0.3129  0.0682 -0.0237
15114W        W30923   1.703  14.747   3.980 -0.1362  0.2913  0.2978
15115W        W30924   3.187  14.058  11.787 -0.0834  0.1468 -0.0100
15116W        W30925  12.147   8.724   2.898  0.0442  0.2357 -0.2515
15117W        W30926  11.376   8.036  15.531  0.0789  0.2102  0.1299
15118W        W30927   8.055   7.347  16.040  0.0167 -0.1523 -0.1230
15119W        W30928  12.297   0.734  15.822  0.0286  0.0239 -0.0177
15120W        W30929   2.002   9.475  11.766 -0.3203  0.0088 -0.1753
15121W        W30930  15.230  12.145  16.099 -0.0072 -0.2051 -0.1073
15122W        W30931  15.652   7.536  12.959 -0.1091  0.2167 -0.0664
15123W        W30932   5.877  14.498   4.660 -0.1214  0.3101 -0.0070
15124W        W30933  11.387   1.821   2.341  0.0040  0.0866  0.4082
15125W        W30934   6.010  16.365  16.129  0.2337  0.0886 -0.2311
15126W        W30935  10.059   6.517   1.854 -0.1157 -0.0372 -0.0111
15127W        W30936   1.798  15.654   0.801 -0.1539 -0.2415  0.0551
15128W        W30937   4.182  10.004   1.553  0.1667  0.1858 -0.2087
15129W        W30938   8.471   3.560   2.615  0.0397  0.1851 -0.1912
15130W        W30939  11.443  11.096   1.558  0.3973  0.1594  0.0008
15131W        W30940   8.676  11.143   5.175  0.2781 -0.0312 -0.1080
15132W        W30941   8.542  14.185   5.882  0.0160 -0.1606  0.0681
15133W        W30942  13.339   9.025  13.479  0.1968 -0.0316  0.1272
15134W        W30943   1.342   1.985  10.955 -0.1459 -0.0561 -0.0642
15135W        W30944  17.160   2.659  12.807  0.0276 -0.0855  0.0883
15136W        W30945   1.719   6.539  12.815  0.0629 -0.0019 -0.0266
15137W        W30946   0.295   8.417  12.961  0.2708  0.0901  0.2190
15138W        W30947   0.932   2.576   3.753 -0.5598 -0.3360  0.0587
15139W        W30948  16.754   1.261  12.822 -0.1344  0.1505 -0.0363
15140W        W30949   2.604  15.733  10.671 -0.3066  0.0700 -0.0013
15141W        W30950   3.914   2.189   4.880  0.1372 -0.1056 -0.1811
15142W        W30951   8.236   2.225  11.942 -0.2005  0.2079 -0.2930
15143W        W30952  15.687  13.518   1.870  0.0043  0.0033 -0.2978
15144W        W30953  13.124  13.342  12.034  0.4786  0.2378 -0.1962
15145W        W30954   7.978   1.740  14.715  0.3219  0.2315 -0.4822
15146W        W30955  10.089   7.417  15.344  0.1453 -0.1963 -0.0136
15147W        W30956  15.865   9.095   1.182 -0.0057  0.3852 -0.0265
15148W        W30957   4.463   3.742  11.752  0.2477  0.2708  0.0451
15149W        W30958   4.443  14.754  14.604 -0.1473  0.0063  0.0432
15150W        W30959   9.064   1.607   1.023 -0.0673 -0.1427  0.2290
15151W        W30960   4.809  15.097   5.963  0.0841  0.2854 -0.3592
15152W        W30961   4.725  10.904   2.991  0.1428 -0.1287 -0.0768
15153W        W30962  13.049  13.392  16.615  0.2853  0.0225 -0.0228
15154W        W30963   9.464  14.097   6.041 -0.3139 -0.1696 -0.0738
15155W        W30964  15.669   5.351   1.885 -0.1332  0.1346  0.0545
15156W        W30965  13.232  15.568   5.656  0.0271 -0.1202  0.3124
15157W        W30966  14.012   4.225   5.589  0.1796  0.1662 -0.0305
15158W        W30967   8.392   0.605  13.593 -0.1269  0.0070 -0.2130
15159W        W30968  10.885   1.348   1.133 -0.0987  0.4245  0.1611
15160W        W30969   6.272   4.976  12.705 -0.0270 -0.2686 -0.0050
15161W        W30970   5.340  11.492  11.643 -0.0494 -0.1122 -0.2217
15162W        W30971   4.266  10.228   4.847 -0.1215 -0.0553 -0.0896
15163W        W30972  13.373   4.637  16.416 -0.2406  0.1582  0.3698
15164W        W30973  17.705  13.825   3.843  0.1634  0.1499 -0.1311
15165W        W30974  16.098  15.315   1.364  0.4525  0.0615 -0.0144
15166W        W30975   5.948  17.124  10.284  0.0048 -0.0262  0.2249
15167W        W30976   6.211  17.952  14.433 -0.0651 -0.1468  0.0322
15168W        W30977   8.518  16.125   2.776 -0.0923 -0.4373 -0.2173
15169W        W30978   2.419   0.555  11.899  0.3448  0.1739 -0.3231
15170W        W30979  12.199  11.482   1.597  0.0957 -0.2096  0.0603
15171W        W30980  17.459   8.746  14.415 -0.0071  0.2963 -0.2515
15172W        W30981  10.290   4.219   1.190 -0.2640  0.0538  0.1802
15173W        W30982   5.032   3.093  14.032 -0.0511 -0.0914 -0.3136
15174W        W30983   1.150   8.073  16.529  0.0021 -0.2738 -0.1685
15175W        W30984   2.414  17.738   6.303  0.1445 -0.3072 -0.0166
15176W        W30985   8.966   9.840  14.582  0.1017 -0.0295  0.3081
15177W        W30986   5.495  13.417   1.816 -0.0040  0.0795  0.0683
15178W        W30987   0.358  12.586   2.050  0.1782  0.0046 -0.2303
15179W        W30988   2.757   9.099  15.295  0.1725 -0.1953 -0.0284
15180W        W30989   5.027  10.879   4.560 -0.1327  0.1722  0.0017
15181W        W30990  12.205   5.563   1.391  0.1286 -0.0916  0.1421
15182W        W30991   7.193  12.264   2.204  0.1303  0.1585 -0.0286
15183W        W30992  11.441  12.608   2.231 -0.0760 -0.1186 -0.2564
15184W        W30993   0.915   1.022   6.443  0.2925  0.0329 -0.1184
15185W        W30994  14.007  13.986   5.304 -0.0607 -0.0916  0.4312
15186W        W30995  15.003   5.729   3.363  0.0108  0.2351  0.4918
15187W        W30996  14.765   0.624  14.757  0.2075  0.0386 -0.2170
15188W        W30997   0.050  12.612   2.513  0.1647 -0.1373 -0.0126
15189W        W30998  15.919   9.003   2.979  0.1716  0.0212 -0.0372
15190W        W30999  16.615   9.544   5.333  0.0694  0.0025  0.1133
15191W        W31000   1.405  13.615  10.302 -0.0582  0.2461  0.0709
15192W        W31001   1.547  12.572  15.818 -0.2845  0.1331 -0.1057
15193W        W31002  14.476   0.034  15.790  0.1039 -0.0237 -0.0543
15194W        W31003  11.434   4.148   1.590 -0.1108  0.0201 -0.3722
15195W        W31004   8.117   5.176   0.335 -0.1642  0.2881 -0.1667
15196W        W31005  16.089  11.288  15.540 -0.2209 -0.2307  0.3018
15197W        W31006  10.132  11.479  12.301  0.4170 -0.3299  0.2288
15198W        W31007   6.514  12.475  13.956 -0.1290  0.1441  0.2748
15199W        W31008  12.843   0.903  16.375 -0.2482  0.0580  0.1098
15200W        W31009  13.317   4.672  15.387  0.1801 -0.2774  0.3118
15201W        W31010   4.638  11.093   0.244 -0.0354 -0.1295  0.0250
15202W        W31011   8.442   8.306  15.589  0.0816 -0.2889 -0.1377
15203W        W31012  17.487  16.340  13.787  0.1553  0.1728 -0.1248
15204W        W31013   5.126   0.953  13.354  0.1641 -0.0726  0.1507
15205W        W31014   5.185   6.155   3.879  0.3891  0.1378  0.3172
15206W        W31015  14.618  10.257  11.726 -0.0052  0.3056  0.1286
15207W        W31016  14.169   6.904   1.244 -0.1540 -0.0375 -0.0471
15208W        W31017   4.996  17.478   5.219 -0.3445 -0.0131 -0.0013
15209W        W31018  11.972  14.265   2.422 -0.1630 -0.2406 -0.0550
15210W        W31019   0.727   2.974  12.944  0.0745  0.1721 -0.0483
15211W        W31020   1.453   4.591  13.173  0.1855 -0.0332  0.2373
15212W        W31021  15.466  16.485   2.086  0.2621  0.1203 -0.0246
15213W        W31022   0.922   3.062   3.616  0.2029  0.2522  0.1102
15214W        W31023  16.444  10.060   4.338  0.1026 -0.0400  0.0314
15215W        W31024  15.734   0.733  12.163 -0.2188 -0.0061  0.0050
15216W        W31025  15.915  10.536  16.638 -0.2718  0.1089  0.0850
15217W        W31026   0.890  15.441  12.619 -0.2525  0.1185  0.0029
15218W        W31027   3.105  12.308   5.729 -0.1661 -0.0683 -0.0878
15219W        W31028  10.710   8.227  11.283  0.0995  0.0607 -0.1515
15220W        W31029   5.273  11.404  14.980 -0.0135 -0.2599 -0.1940
15221W        W31030  17.564   7.074  13.973  0.0543 -0.1395 -0.0407
15222W        W31031   8.107  14.197   3.400 -0.2874 -0.1333 -0.2822
15223W        W31032   4.194  17.142  13.004  0.0828 -0.1471  0.0954
15224W        W31033   9.926  13.973  13.262  0.2442  0.0555  0.1156
15225W        W31034   1.888   3.918  10.146 -0.1784 -0.2688  0.0733
15226W        W31035   0.832   7.826   1.871 -0.3144  0.4076 -0.0245
15227W        W31036   9.946  16.665  13.157 -0.0121 -0.1168 -0.0440
15228W        W31037   8.743   3.075  14.526  0.3291  0.0769 -0.0512
15229W        W31038  16.365   9.121  12.249  0.3695  0.3496 -0.1901
15230W        W31039   0.460   9.124   4.110 -0.0271 -0.1953  0.2814
15231W        W31040   7.161   5.672   1.181 -0.0134  0.1266  0.0736
15232W        W31041   0.187   5.324  15.784 -0.1907  0.1425  0.1610
15233W        W31042   2.382  12.405   5.251  0.1585 -0.1849  0.0352
15234W        W31043   8.024  11.398  16.197  0.1120 -0.0746  0.1060
15235W        W31044  16.032   4.738   0.413  0.0781 -0.1643 -0.4216
15236W        W31045  15.605   8.625   3.148 -0.3919  0.1551 -0.0436
15237W        W31046   0.857  10.319  11.478  0.4661 -0.0613  0.0020
15238W        W31047   2.294  14.862  15.570 -0.1996  0.2346 -0.0050
15239W        W31048   4.757  10.766  13.081 -0.0612  0.0337 -0.1073
15240W        W31049  11.411  14.666  16.389 -0.0768 -0.0207  0.0890
15241W        W31050   4.726   8.847  13.205 -0.0861 -0.1617 -0.0267
15242W        W31051   2.133   2.928   1.012 -0.1873  0.1758  0.0979
15243W        W31052   6.575   7.022  12.572 -0.2277  0.3468 -0.1647
15244W        W31053   4.561  11.831  11.749 -0.1508  0.1532  0.2034
15245W        W31054  16.095  11.831  15.827 -0.0862  0.0583  0.0041
15246W        W31055   5.221   3.212  11.304 -0.1429 -0.2368 -0.2096
15247W        W31056   1.489   2.934   6.004  0.2855 -0.0146 -0.0570
15248W        W31057   7.482  11.934  11.573 -0.1506 -0.3313 -0.0326
15249W        W31058  11.846   1.909   4.652  0.3777 -0.0094  0.2626
15250W        W31059   2.086   1.857   1.030 -0.0215  0.1680  0.0428
15251W        W31060   8.222  12.368  16.264  0.2609 -0.1882 -0.3523
15252W        W31061   5.674   9.884  13.538  0.2293 -0.2765  0.1373
15253W        W31062   2.607  17.471   4.883 -0.3161 -0.2009  0.2609
15254W        W31063   0.650  16.485  11.455  0.4066 -0.0048  0.0856
15255W        W31064   4.558  17.850  15.355  0.1569 -0.4567  0.4113
15256W        W31065  17.543   6.605   0.474  0.0828 -0.3593 -0.0159
15257W        W31066   2.289  16.708   3.796  0.3382 -0.0803  0.0402
15258W        W31067   5.497   6.161   1.955  0.1930 -0.1075  0.0277
15259W        W31068   7.047   9.616   2.382 -0.2549 -0.2712  0.2325
15260W        W31069   4.850  10.196  15.457 -0.0533 -0.2993 -0.1656
15261W        W31070  14.474   9.314  13.892 -0.5100 -0.1958  0.1966
15262W        W31071   9.261   3.626  12.754 -0.0407 -0.0654  0.0038
15263W        W31072   5.928   2.097   5.176 -0.1465  0.0471 -0.0152
15264W        W31073   6.924   0.893  10.803  0.4016  0.0622 -0.1319
15265W        W31074  11.961   8.183   4.142 -0.2005  0.0184  0.0688
15266W        W31075  16.002   2.943  14.716 -0.0658  0.1324 -0.2780
15267W        W31076  15.784   3.795   0.368  0.0036  0.1174  0.0176
15268W        W31077  12.332   2.797  16.692 -0.1536  0.0378  0.0519
15269W        W31078   2.182  12.536  16.473  0.0760  0.2050  0.0746
15270W        W31079  14.868  13.564  12.408 -0.2201  0.0724 -0.1433
15271W        W31080  16.579  15.328  12.418 -0.1462 -0.1906 -0.1741
15272W        W31081  17.337   4.514   1.336  0.2112  0.3479 -0.3235
15273W        W31082  11.405   3.754  15.279  0.1432  0.2296 -0.3194
15274W        W31083   9.516  10.471  13.006 -0.0831 -0.1480 -0.2285
15275W        W31084   2.635   9.313  12.340  0.0649 -0.3477 -0.0555
15276W        W31085   3.707  12.784   2.047  0.2025 -0.1361  0.4049
15277W        W31086   8.951   1.658  15.759  0.3366 -0.1215 -0.0032
15278W        W31087  16.436  10.477  14.123  0.1419  0.3365  0.2294
15279W        W31088   4.023   4.381  14.278 -0.1884  0.3383 -0.3836
15280W        W31089  17.200  15.539  14.804 -0.1340 -0.0177 -0.0883
15281W        W31090   6.886   7.384   3.849 -0.2218  0.2540 -0.3177
15282W        W31091   4.871  17.305   4.677  0.1070  0.0072 -0.0181
15283W        W31092   1.947   7.796   4.483 -0.3796 -0.2619  0.1251
15284W        W31093   5.269  14.496  12.699  0.1090 -0.2368 -0.1804
15285W        W31094   0.087  12.528  14.473  0.0043 -0.1732 -0.1341
15286W        W31095   3.259  16.013  13.565 -0.0832 -0.2571 -0.0851
15287W        W31096  17.883   3.052  12.937  0.5646 -0.2447 -0.2748
15288W        W31097   1.958   7.110  11.343  0.0363 -0.0478  0.1280
15289W        W31098   9.363   3.820  13.234 -0.0734  0.0204  0.3235
15290W        W31099   7.401  14.726   6.064  0.0810 -0.1306 -0.2936
15291W        W31100   2.463  15.411  12.070  0.1248  0.0199  0.1971
15292W        W31101  14.540   5.615  16.327 -0.0244 -0.1900  0.0472
15293W        W31102  12.774  10.505  14.301 -0.0183 -0.1175 -0.0313
15294W        W31103  12.921   1.348   5.839 -0.0211  0.2217  0.2288
15295W        W31104  12.808  11.932  16.497  0.2586  0.1662 -0.1685
15296W        W31105  12.079   2.944  13.705 -0.0395 -0.0348 -0.2085
15297W        W31106  16.378  15.916   2.249 -0.1623  0.1012  0.0961
15298W        W31107  16.458   6.248  14.681  0.1682  0.1427 -0.1103
15299W        W31108   3.707   9.465   3.230 -0.2248  0.0390 -0.1433
15300W        W31109   2.266  10.689   4.382  0.2697  0.0767  0.0611
15301W        W31110   2.850   9.252  13.446 -0.0616  0.2294 -0.2551
15302W        W31111  11.545  16.811   1.135  0.3450 -0.2637  0.0147
15303W        W31112  11.726   8.588   1.390  0.1169  0.1742  0.1129
15304W        W31113   7.569  11.805  16.073  0.1179 -0.2126 -0.2648
15305W        W31114   6.814   6.442   2.789 -0.1864  0.2103 -0.0103
15306W        W31115  16.937   1.116   4.348  0.3918 -0.1850  0.1011
15307W        W31116   9.852   4.926   4.320 -0.1006 -0.1730 -0.3120
15308W        W31117   0.181   0.993  14.234 -0.2167  0.1827  0.3162
15309W        W31118   7.495  16.685   4.253 -0.0099 -0.3434  0.2000
15310W        W31119  10.147   4.983   2.698  0.0796  0.1073 -0.1018
15311W        W31120  16.050  16.412  16.201 -0.2391 -0.0300 -0.3032
15312W        W31121  14.076  14.020  13.292 -0.0154  0.0236  0.0090
15313W        W31122   9.201  17.081  14.817 -0.0200  0.0266  0.0913
15314W        W31123   8.054   4.914  14.680  0.1241  0.1242 -0.2040
15315W        W31124   7.905  11.856   2.840  0.0357  0.2960  0.4149
15316W        W31125   5.395   3.532  12.377 -0.0004  0.0283  0.1270
15317W        W31126  17.134  11.299   1.222 -0.0311 -0.1680 -0.0639
15318W        W31127   8.684   7.339   1.226 -0.1418  0.0543  0.0106
15319W        W31128  11.791   0.282   2.551 -0.0261 -0.1431 -0.2221
15320W        W31129   9.712   7.099  15.423  0.1312  0.0330 -0.0833
15321W        W31130  10.455   5.786  15.674  0.0448 -0.3324 -0.0241
15322W        W31131   9.791  11.802  16.237 -0.0437 -0.1118  0.2140
15323W        W31132  10.608   1.773   1.289  0.0282 -0.0887  0.3303
15324W        W31133  14.917   2.908   2.360  0.3219 -0.1576 -0.0187
15325W        W31134  16.887  16.067   4.799  0.3320  0.0445 -0.1671
15326W        W31135   4.989  14.410  12.000 -0.0016  0.1278  0.0662
15327W        W31136   4.086   9.792  10.984  0.2480  0.0062 -0.2163
15328W        W31137   1.848   4.934   5.258  0.2862 -0.0533 -0.3542
15329W        W31138   9.705  17.720   3.958 -0.1413  0.1721 -0.1745
15330W        W31139  14.673  12.538  13.982 -0.1578 -0.1882 -0.3049
15331W        W31140   4.834  14.384  13.023 -0.0578  0.0500  0.0499
15332W        W31141   4.452   4.678   2.088  0.3266 -0.0227 -0.2447
15333W        W31142   3.497  10.831  16.291  0.2373 -0.1047  0.1644
15334W        W31143  13.583   0.664   3.134  0.2956 -0.0621 -0.2385
15335W        W31144  13.836   1.041  12.322 -0.0544 -0.1235 -0.0767
15336W        W31145  10.253  15.009   4.321 -0.0356  0.2637 -0.0417
15337W        W31146   2.045  16.560   1.816 -0.1592  0.2225  0.1394
15338W        W31147  12.768   3.367  15.091 -0.0196  0.0093  0.2291
15339W        W31148   9.212  12.825   0.604 -0.0279 -0.2992 -0.0996
15340W        W31149   0.646  13.759  16.494  0.0366 -0.0983  0.0442
15341W        W31150   4.035   6.163  13.936 -0.1561 -0.1359 -0.3633
15342W        W31151   3.684   8.423   4.269 -0.1930 -0.1352 -0.2094
15343W        W31152  10.399   1.937   3.361 -0.0227  0.1948 -0.0508
15344W        W31153  17.042   6.287   1.052 -0.2135 -0.3713 -0.2268
15345W        W31154  15.753  13.732  16.600  0.1255  0.0578  0.1380
15346W        W31155   0.643  16.404  11.962  0.3289 -0.1563  0.0946
15347W        W31156  17.671   2.942   3.572 -0.0549  0.2972  0.0326
15348W        W31157   7.799   9.176   2.516  0.3760 -0.0968 -0.0181
15349W        W31158  14.078   8.213   2.224 -0.2987 -0.1178 -0.2663
15350W        W31159   7.969   1.373  12.164 -0.1828  0.1263 -0.0993
15351W        W31160  15.165   6.721  12.972 -0.0102 -0.1745 -0.0296
15352W        W31161   5.905   6.272  13.231 -0.4543  0.0807 -0.1781
15353W        W31162   1.737   1.211  13.942 -0.0004  0.0577  0.0252
15354W        W31163   0.189   1.890  14.565 -0.1592 -0.1617  0.4660
15355W        W31164   6.433   4.714  11.595  0.1831  0.2835  0.2416
15356W        W31165   9.555  15.280   1.505 -0.1800 -0.1277 -0.0010
15357W        W31166  14.498  15.984  14.454 -0.0954  0.1800  0.1497
15358W        W31167   2.470   4.174  16.434  0.0519 -0.0425 -0.0817
15359W        W31168   0.655  16.560   4.313  0.2311  0.0884  0.3001
15360W        W31169   1.060   7.989   4.922 -0.1929 -0.0171 -0.0529
15361W        W31170   0.741   5.716  15.725  0.0075  0.1683  0.0288
15362W        W31171   5.179  13.458   0.515  0.0317 -0.1055 -0.0659
15363W        W31172  14.903  11.714  15.251 -0.5307 -0.0684  0.1366
15364W        W31173   0.686   4.812   0.001 -0.0413 -0.4770  0.1204
15365W        W31174  14.486  11.767  15.492  0.0377 -0.0886  0.0675
15366W        W31175   7.368  15.183   3.330  0.0381  0.0615  0.2094
15367W        W31176   1.727   4.044   3.202 -0.0358  0.3157  0.0039
15368W        W31177   6.352  14.756  12.472 -0.1398  0.1019  0.0154
15369W        W31178   6.179   4.529   3.930 -0.2532  0.0255 -0.0574
15370W        W31179   8.368  10.057  16.202  0.2469 -0.0186  0.2577
15371W        W31180  11.302   3.545  12.039 -0.0324  0.1351  0.3372
15372W        W31181   3.130  17.816  10.999 -0.2420  0.0883 -0.0488
15373W        W31182   7.042   8.609   5.126  0.2434 -0.1259 -0.2494
15374W        W31183   5.264   8.010   1.247 -0.2498 -0.0057 -0.0326
15375W        W31184   1.130   2.678  12.837 -0.1176 -0.0230  0.2278
15376W        W31185   4.578   6.068  15.527  0.2561 -0.2101  0.0367
15377W        W31186   4.457   6.227   5.944 -0.0498 -0.5179 -0.0877
15378W        W31187   7.276  10.989   5.132  0.0347 -0.2099  0.0422
15379W        W31188   9.353   6.118  15.234  0.1133 -0.3035  0.2214
15380W        W31189   0.416  15.435  14.963 -0.1443  0.0913  0.1643
15381W        W31190   8.005  10.868   0.083  0.1307 -0.0379  0.1574
15382W        W31191  15.981  13.255  11.156 -0.0473 -0.0146  0.2846
15383W        W31192   7.326  11.870   3.646  0.2325  0.0598  0.2207
15384W        W31193  11.882  11.198   1.863  0.0356  0.0348 -0.1800
15385W        W31194   2.192  15.501  14.038 -0.1729  0.2804  0.0275
15386W        W31195  13.838   1.949   3.861  0.0187 -0.1339  0.0605
15387W        W31196  10.948   9.667   5.132 -0.0350 -0.2248 -0.1366
15388W        W31197   6.733   3.625   2.542 -0.2954 -0.3090  0.1428
15389W        W31198   4.488   0.689  12.486  0.2068  0.2814  0.3269
15390W        W31199   7.973   1.838  15.972 -0.0047 -0.2541 -0.2272
15391W        W31200   1.642  11.061  10.931 -0.0264 -0.0676 -0.0340
15392W        W31201   0.499   0.713   0.285 -0.2500  0.1775 -0.0981
15393W        W31202   5.005   7.653  11.608  0.0451 -0.3589 -0.0401
15394W        W31203  14.659   4.858   2.212 -0.1284  0.0724  0.1470
15395W        W31204  14.549   5.911  15.932  0.2769  0.0791 -0.2046
15396W        W31205  11.291   6.600   3.269 -0.2414  0.0787  0.0970
15397W        W31206   2.646   0.092  13.912 -0.1864 -0.1560  0.1998
15398W        W31207  11.492   2.142   0.829  0.4184 -0.0228  0.2335
15399W        W31208   5.400  13.298   1.354 -0.0957  0.0396  0.2512
15400W        W31209  12.853   5.539  13.845 -0.0111  0.2341 -0.0762
15401W        W31210   4.059  13.195   3.802 -0.1048  0.1341  0.2974
15402W        W31211   7.501   3.294  13.457  0.3086 -0.1250 -0.1809
15403W        W31212   9.373  12.254  11.513 -0.3834 -0.0998 -0.3349
15404W        W31213  12.734   3.076   0.828 -0.0080 -0.3558 -0.2002
15405W        W31214   8.791  15.958   4.482 -0.3823 -0.0425 -0.0582
15406W        W31215   6.132   7.925  12.538  0.0682  0.2022 -0.0968
15407W        W31216   0.433   5.932   3.214  0.0348 -0.3492 -0.0111
15408W        W31217  11.967  13.816   0.162 -0.1598 -0.0001 -0.3893
15409W        W31218   0.619  10.520  10.984 -0.3199 -0.2432  0.0216
15410W        W31219  13.433   1.662   3.758 -0.3435 -0.1433  0.2187
15411W        W31220   8.328   3.209   4.309  0.1518 -0.1948 -0.2614
15412W        W31221  17.125   7.328  12.760 -0.0640  0.0630  0.0252
15413W        W31222  14.064  14.802  15.673  0.0233  0.1878 -0.2944
15414W        W31223   7.426  14.847   0.851 -0.2673 -0.0546  0.0511
15415W        W31224   2.817  14.166   4.122  0.2631  0.3227 -0.0166
15416W        W31225  14.133  13.349   2.719 -0.0270  0.0935  0.1542
15417W        W31226   6.898   8.980   0.925 -0.1448 -0.0667 -0.0224
15418W        W31227  11.488   3.917   4.676  0.1386 -0.2470 -0.0815
15419W        W31228   9.225  17.325   2.059 -0.1413  0.0822 -0.1487
15420W        W31229   8.755   0.245  13.579 -0.0020  0.0723  0.1307
15421W        W31230   9.947   8.584  15.113  0.0494  0.4161 -0.0874
15422W        W31231  17.620   7.164   2.765 -0.0376 -0.3651 -0.1073
15423W        W31232  11.422  17.479   5.374  0.0981  0.3393  0.0078
15424W        W31233  12.172   0.810   1.954 -0.0072  0.0893 -0.1272
15425W        W31234   1.134   9.066   2.345 -0.1794 -0.1467 -0.2310
15426W        W31235  15.189   0.318  14.647 -0.2641  0.3125  0.2026
15427W        W31236   3.682  15.055  10.504  0.1761 -0.0477 -0.0640
15428W        W31237  14.275  16.899   6.111  0.3204  0.2406  0.1172
15429W        W31238   8.691  10.332  15.976 -0.0409 -0.3026  0.0382
15430W        W31239  16.118  10.087   0.286 -0.0659  0.0284 -0.0515
15431W        W31240  14.305   6.696  14.945  0.0862  0.3312 -0.0406
15432W        W31241   5.951   2.490  13.145  0.2583  0.2503  0.0001
15433W        W31242  11.785  16.226   5.192 -0.2771  0.2503  0.2110
15434W        W31243   4.740   1.351   1.437  0.2538 -0.0407 -0.2767
15435W        W31244   9.541  10.588  15.781 -0.0296 -0.0335  0.1288
15436W        W31245  12.716   6.505  15.445 -0.0278 -0.1701  0.0041
15437W        W31246   9.110  15.762  13.505  0.1475 -0.2798  0.2161
15438W        W31247   4.098   6.812  14.021 -0.0947  0.2999  0.1986
15439W        W31248  14.773   1.693   2.302  0.0513 -0.1691  0.1893
15440W        W31249  15.184  17.849   0.215  0.0911  0.4315  0.2072
15441W        W31250  11.555   7.310  13.384 -0.0043  0.3178 -0.0407
15442W        W31251  14.986   6.153   3.641 -0.3237 -0.2354 -0.2060
15443W        W31252  10.228  10.985   3.521 -0.1647  0.0891 -0.0154
15444W        W31253   2.031  11.904  16.104 -0.0110 -0.0710 -0.1345
15445W        W31254  11.664   6.539  16.145 -0.1403  0.0208 -0.1842
15446W        W31255   6.732   7.049  12.014 -0.1807 -0.0157 -0.0406
15447W        W31256   6.825   9.368   3.266 -0.4840  0.0949  0.0857
15448W        W31257  15.744   0.359   4.699  0.0856  0.0446 -0.0663
15449W        W31258   2.836   9.078   1.693 -0.0004  0.1551  0.2776
15450W        W31259   8.590  10.986   2.918  0.2881  0.3334  0.0576
15451W        W31260  13.593   5.005  13.891 -0.2052 -0.1459 -0.3120
15452W        W31261   0.121   0.187   0.924 -0.3384 -0.2287 -0.2063
15453W        W31262   4.585  13.435   3.765  0.4478 -0.2529 -0.0182
15454W        W31263  17.306   9.988   2.201 -0.1732 -0.2281 -0.1302
15455W        W31264   6.144   9.355   5.042  0.1906 -0.0837 -0.2673
15456W        W31265   1.206   9.165  12.368  0.0435  0.0520  0.1252
15457W        W31266   9.984   4.618   4.726 -0.3720  0.1269  0.1182
15458W        W31267  14.796   0.087   3.772 -0.1543 -0.3067  0.3016
15459W        W31268  16.251   9.762   4.694 -0.4296 -0.0236 -0.0925
15460W        W31269   4.318   0.302   0.233 -0.1464 -0.0007 -0.1017
15461W        W31270   5.112   3.442  16.209 -0.1427  0.0266  0.1899
15462W        W31271   5.680  17.531   1.183  0.1689 -0.1063 -0.2727
15463W        W31272   3.888  16.428  15.956  0.0161 -0.0669 -0.4828
15464W        W31273   9.880   5.012  14.099  0.0446  0.3641 -0.1364
15465W        W31274  17.292  13.179  14.636 -0.0925 -0.0773 -0.0604
15466W        W31275  15.466   2.766   1.183 -0.0507 -0.1338 -0.0937
15467W        W31276  11.567   7.981  12.476  0.0399  0.0875 -0.2969
15468W        W31277  12.237  12.914  14.436 -0.0116  0.0237  0.0532
15469W        W31278  16.811  15.313   1.047 -0.4357  0.1094 -0.0525
15470W        W31279   8.695   2.216   2.805  0.0627 -0.4895 -0.0027
15471W        W31280  17.601   7.029   3.665 -0.0992  0.1214 -0.1116
15472W        W31281   0.575   6.981   1.984  0.0825  0.0452  0.3658
15473W        W31282  11.277   7.256  14.389 -0.0986  0.0692  0.1607
15474W        W31283   0.393   8.133   1.073 -0.0305  0.0583  0.0985
15475W        W31284  14.474   6.228  14.947 -0.1607 -0.0411 -0.0057
15476W        W31285   8.710  17.184   0.976 -0.2291 -0.1415 -0.2062
15477W        W31286   3.718  15.487  12.534 -0.0030  0.0831  0.0191
15478W        W31287   7.689  17.101  11.814 -0.1652  0.1259 -0.1462
15479W        W31288  15.197   7.183   1.850 -0.2497 -0.1388  0.2556
15480W        W31289   4.877   4.216  12.107  0.2479 -0.1474  0.4664
15481W        W31290   9.792  17.349  14.636  0.2112 -0.0834 -0.0291
15482W        W31291   6.292   5.918  13.239 -0.1119  0.1940 -0.0930
15483W        W31292   9.197  11.233   5.219 -0.0434  0.0139  0.0657
15484W        W31293   1.797  15.546   1.996  0.3230  0.0781 -0.0370
15485W        W31294  10.066  12.510  13.153  0.3250  0.1754 -0.0213
15486W        W31295  17.010  12.205  13.528 -0.2065  0.0908 -0.1120
15487W        W31296   1.028  10.129  16.579  0.0158  0.3195 -0.1854
15488W        W31297   6.365   6.161   4.689 -0.0965 -0.0459  0.1077
15489W        W31298  12.991  14.771   3.087 -0.2871 -0.1164 -0.0621
15490W        W31299   8.987   0.082   1.521  0.0863  0.1079 -0.0311
15491W        W31300  15.478  16.401  16.709 -0.2583 -0.3678 -0.1538
15492W        W31301   9.677  14.115  12.274  0.0637  0.1234 -0.1034
15493W        W31302  13.701  12.995   4.228 -0.1707 -0.0355  0.1172
15494W        W31303  16.529   1.242   4.696 -0.1919 -0.0381  0.0604
15495W        W31304   6.348  10.586   0.579  0.1384  0.0508 -0.1282
15496W        W31305   1.249   9.568   2.046 -0.0123 -0.0456 -0.0500
15497W        W31306   9.576   0.969   5.304  0.1038 -0.2021 -0.1404
15498W        W31307   1.237   5.899  14.024 -0.1100 -0.0987 -0.1024
15499W        W31308  13.680   1.489   2.070  0.1732 -0.0014 -0.0828
15500W        W31309   6.441  11.178   2.030  0.1630  0.0703 -0.0278
15501W        W31310   6.741  14.336   2.934  0.1359  0.2475 -0.1243
15502W        W31311   3.791  10.095  15.336 -0.2359 -0.1344  0.0167
15503W        W31312  17.632   1.153  14.820 -0.1581  0.0322 -0.1712
15504W        W31313   7.886  15.831   4.635  0.1738 -0.0387  0.1965
15505W        W31314   7.320  17.460   1.753 -0.0711  0.1013  0.0641
15506W        W31315   6.501  15.871   1.426 -0.0251 -0.0805 -0.0801
15507W        W31316  17.574  13.385  12.144 -0.1713  0.2193  0.1711
15508W        W31317   4.713  13.417  16.411  0.4120 -0.0325  0.2926
15509W        W31318   6.508  13.946   1.067  0.0742  0.1258 -0.0301
15510W        W31319   7.151   4.058  11.568 -0.0442 -0.1315  0.1792
15511W        W31320  16.098  16.101   1.399 -0.2104  0.0212  0.2821
15512W        W31321  14.349  12.567   0.346  0.1457 -0.2575  0.0918
15513W        W31322   6.337  16.711   3.140 -0.2673  0.3407  0.0438
15514W        W31323  13.820  17.436  14.208  0.2797  0.0903 -0.2033
15515W        W31324  14.160  10.626  16.113  0.1083 -0.0709 -0.1028
15516W        W31325   1.296   3.652  12.955  0.2744  0.2125  0.0574
15517W        W31326  17.513   0.229   2.052 -0.1010 -0.0244  0.0871
15518W        W31327  13.200   5.843  11.865 -0.2725  0.1939 -0.3005
15519W        W31328  13.275  12.544   1.076 -0.1069 -0.2019  0.3768
15520W        W31329   4.513  16.532  14.483  0.5177 -0.4674  0.2512
15521W        W31330   3.222   7.345  16.227  0.2152  0.0186 -0.3198
15522W        W31331  15.678  17.510   2.790  0.0289  0.2049 -0.2203
15523W        W31332  15.435   4.933   4.116 -0.2611 -0.1194 -0.1351
15524W        W31333   0.002  15.422  11.392  0.2010  0.4455 -0.1070
15525W        W31334  12.832   6.670   4.815  0.0488 -0.0560  0.0054
15526W        W31335  11.946   2.260   0.619 -0.1310 -0.2514  0.0080
15527W        W31336   9.759   2.134   1.818 -0.2112 -0.0966 -0.3201
15528W        W31337   4.465   6.546   3.543  0.0983  0.0928  0.0388
15529W        W31338   8.676   0.224  12.142  0.3613 -0.3914 -0.0565
15530W        W31339  17.200   4.598   4.906  0.2289  0.0315  0.0235
15531W        W31340   1.627   1.084   2.629  0.0896 -0.0077  0.3215
15532W        W31341   3.881   1.472   0.846  0.1507  0.0328 -0.0612
15533W        W31342  16.053  15.092  11.966  0.1296 -0.1636  0.1363
15534W        W31343   1.649   4.640  16.642 -0.3514  0.0030 -0.1639
15535W        W31344   2.664  16.989  16.309  0.0618  0.0139 -0.3857
15536W        W31345   2.838   0.323  16.425  0.1125  0.2151 -0.0417
15537W        W31346   2.322   1.362  13.108  0.0301 -0.2340  0.2771
15538W        W31347  13.738  14.970   4.262  0.4763  0.1107  0.3127
15539W        W31348   0.824   0.647  14.902 -0.0375  0.0411  0.0352
15540W        W31349  11.764   4.385   2.831 -0.0148  0.1661 -0.2275
15541W        W31350   4.985   3.215  12.276  0.0207  0.0773  0.1360
15542W        W31351  10.013   7.686   4.306 -0.1305  0.0415 -0.0628
15543W        W31352   8.696   4.374  14.221  0.2275 -0.2480  0.0323
15544W        W31353  13.821   0.296  14.631 -0.1305  0.0778  0.0213
15545W        W31354  13.795   2.026  13.131 -0.1819  0.2813  0.0291
15546W        W31355   1.143  16.696  11.111  0.1680 -0.0927  0.0123
15547W        W31356   3.437   8.360  13.324  0.4950 -0.0342  0.2223
15548W        W31357  15.213  14.349  14.472  0.0123 -0.0448  0.0272
15549W        W31358   7.733   2.757   4.933 -0.1904 -0.1638 -0.2061
15550W        W31359   8.959   9.596   1.272 -0.3403 -0.1241  0.2340
15551W        W31360   1.550  17.099   1.137 -0.1195 -0.2566  0.0743
15552W        W31361   9.737   9.463  14.563  0.0622 -0.5449  0.0178
15553W        W31362   2.485   7.557  14.449  0.1376  0.1691  0.0102
15554W        W31363  15.869  16.183   2.278 -0.0402 -0.1324  0.0282
15555W        W31364   8.388  14.986  15.463  0.1760 -0.0568  0.0726
15556W        W31365  13.381   5.568  15.051  0.1642  0.1090 -0.0674
15557W        W31366   9.018   6.188   0.682 -0.0414  0.0652 -0.1189
15558W        W31367  14.618  15.373  16.042 -0.2518  0.3220 -0.0931
15559W        W31368   1.967   8.493   4.248  0.1147 -0.0170  0.0394
15560W        W31369   8.367  14.106   2.324 -0.1089  0.2412  0.0917
15561W        W31370   2.148  11.624  14.809 -0.1145 -0.0497  0.1101
15562W        W31371   2.518   0.290   2.153 -0.1884  0.3450 -0.1148
15563W        W31372  14.704   7.151   1.494 -0.2615 -0.1267 -0.1622
15564W        W31373   3.615   9.847  13.175  0.1488 -0.0307 -0.0902
15565W        W31374   5.780   0.974   4.431  0.2128  0.1424  0.1054
15566W        W31375  16.491  16.512   2.176 -0.2215 -0.0438  0.3189
15567W        W31376  10.750   4.575  15.137 -0.0818 -0.0690 -0.2062
15568W        W31377  13.175  15.545  13.868 -0.0480 -0.2955  0.0199
15569W        W31378  11.353   4.086   2.792  0.2247 -0.1693  0.0078
15570W        W31379  11.299  17.291   0.193  0.2749  0.1664 -0.1969
15571W        W31380   2.351   0.919  12.915  0.2680 -0.1724 -0.2379
15572W        W31381   2.528   8.319   3.276 -0.0735  0.0798  0.2027
15573W        W31382   1.989   3.706  14.581 -0.1442 -0.0626 -0.3785
15574W        W31383  12.139   6.963  12.279  0.1102 -0.1114 -0.0904
15575W        W31384   4.499  16.483   0.160 -0.1430 -0.1941 -0.1905
15576W        W31385  10.369   2.314  16.126  0.0476  0.1923 -0.3795
15577W        W31386   4.216  14.952   0.741 -0.1434  0.2874  0.2507
15578W        W31387  14.954  11.468   2.955 -0.0785 -0.1541 -0.0006
15579W        W31388  11.321   3.934   1.148  0.1935 -0.0591 -0.1003
15580W        W31389   8.557  16.753  12.855  0.2050  0.0038 -0.0240
15581W        W31390  12.555   0.063  15.318  0.0187  0.2041 -0.2338
15582W        W31391  13.685  12.264  11.324 -0.0861  0.0686 -0.0683
15583W        W31392  16.690   6.156   0.645  0.2658 -0.2385  0.1944
15584W        W31393   6.104  12.258   5.304  0.0172 -0.0394  0.0303
15585W        W31394  11.904  10.923  12.735  0.4332 -0.0877  0.2467
15586W        W31395  16.582  16.396   2.694 -0.2908  0.0637  0.0730
15587W        W31396  16.044   5.895  11.975  0.0880  0.1374 -0.2851
15588W        W31397   0.983   0.947  11.733  0.2133 -0.0561  0.0103
15589W        W31398   1.437  14.227  13.742 -0.1772 -0.0283 -0.0410
15590W        W31399  13.073   2.390  12.373 -0.2060 -0.3533 -0.0302
15591W        W31400   6.921  17.870   1.698 -0.2907 -0.1937 -0.2473
15592W        W31401   6.037  13.279  12.867  0.4392 -0.2585 -0.1169
15593W        W31402  14.530   4.196   5.645 -0.0245 -0.0643  0.1546
15594W        W31403   5.652   6.419  13.667  0.2022  0.2422 -0.0146
15595W        W31404   7.268  12.315  11.850 -0.0044  0.0645  0.0416
15596W        W31405   3.219  14.790  12.983  0.0303  0.0921 -0.1690
15597W        W31406   4.853   6.263  12.131  0.0981 -0.1843 -0.3823
15598W        W31407   6.369  16.226   5.641 -0.1679  0.0312  0.0049
15599W        W31408   4.119  14.738   2.583 -0.5129  0.0469 -0.0566
15600W        W31409   8.032   6.816   1.151  0.1023 -0.0147  0.1346
15601W        W31410   0.620   7.749  13.099  0.0960 -0.4661  0.1988
15602W        W31411   1.663   6.299   0.615  0.1614  0.0537  0.1898
15603W        W31412   6.989  16.872  14.196 -0.4917 -0.0978 -0.0147
15604W        W31413  12.124  12.155  13.084  0.0043  0.3249  0.2159
15605W        W31414   9.075  12.920   2.083  0.1518 -0.2933  0.0857
15606W        W31415   2.099  14.953   2.831 -0.0906  0.3188 -0.3363
15607W        W31416  17.070  12.391  12.419 -0.3209 -0.0633 -0.3689
15608W        W31417  14.358  12.537   1.899 -0.3175  0.1127 -0.1358
15609W        W31418  17.580   2.702  12.181 -0.2994  0.3089 -0.1975
15610W        W31419   8.351   4.228   3.725  0.0044  0.0000 -0.0771
15611W        W31420   2.713  14.480   2.928  0.0411 -0.0207 -0.1391
15612W        W31421  14.637  13.297   2.849 -0.0166  0.2365 -0.0501
15613W        W31422   1.479  11.063  13.172  0.2817  0.4081  0.0801
15614W        W31423  15.788   2.516  14.943 -0.1391 -0.0105 -0.0240
15615W        W31424   0.547  17.239  16.113  0.3323 -0.0881  0.2083
15616W        W31425  11.945   7.018  13.715 -0.2037  0.2139 -0.0863
15617W        W31426  10.853  17.351  15.374 -0.1157 -0.1518  0.0600
15618W        W31427  15.871  16.414  12.876 -0.1211  0.2768 -0.0589
15619W        W31428  15.629   5.865   0.367  0.1927 -0.0383 -0.2249
15620W        W31429   0.830  17.643   3.069  0.0304  0.0076  0.2013
15621W        W31430   8.828   9.306   4.601  0.2874 -0.1436 -0.0301
15622W        W31431  12.340   8.285  14.407  0.0162  0.0631  0.1591
15623W        W31432  12.446   2.753   2.805 -0.0727  0.0264 -0.1023
15624W        W31433   4.176   0.747  15.982 -0.1556  0.2622  0.3101
15625W        W31434  10.666  12.197  13.967 -0.2865  0.3248 -0.0365
15626W        W31435  16.107   7.506  13.119 -0.0845 -0.2876  0.2614
15627W        W31436   9.521  12.637  14.341  0.2021 -0.0802  0.0770
15628W        W31437  16.936  11.036   6.102 -0.0879  0.2966 -0.0838
15629W        W31438   5.175  15.426   5.893  0.3316 -0.0820  0.0667
15630W        W31439   8.583   9.771  11.247  0.1919 -0.0788 -0.0854
15631W        W31440  10.347  12.387   3.225  0.0769  0.2062 -0.0464
15632W        W31441   8.888   7.346   2.713  0.2174 -0.2003  0.1336
15633W        W31442  13.382   2.818  16.198 -0.1248 -0.1739  0.3406
15634W        W31443   9.702   0.246   6.013 -0.0610  0.0507 -0.3081
15635W        W31444   8.833  11.982  15.192  0.0401  0.2647 -0.1433
15636W        W31445  15.678  17.656  14.218  0.1028 -0.0025  0.0643
15637W        W31446  11.417  13.858  12.884 -0.2156 -0.1032 -0.1658
15638W        W31447  14.224  16.809   6.627  0.0815 -0.2182  0.1240
15639W        W31448  11.753  14.136  14.858  0.0025 -0.3597 -0.2553
15640W        W31449  11.266   9.876   4.789 -0.0634  0.3349  0.1885
15641W        W31450   6.890   8.333  13.239  0.0081 -0.0512  0.0986
15642W        W31451   2.928  15.695   0.855  0.3442  0.3492  0.2330
15643W        W31452   3.604   6.352   3.478  0.0933 -0.1385 -0.2764
15644W        W31453   1.904   5.836   1.883 -0.0181  0.0014 -0.1685
15645W        W31454  10.419  12.885   3.414  0.3534  0.2497  0.1701
15646W        W31455   0.164  16.449   2.699 -0.1740  0.0551  0.4202
15647W        W31456   9.209  15.334   3.774 -0.0104  0.1938  0.2280
15648W        W31457   0.481  14.418  15.862  0.2658  0.3094 -0.0857
15649W        W31458  15.219  10.945  14.800  0.0346 -0.1684  0.3566
15650W        W31459   3.549   1.250   3.354  0.0096  0.0674  0.3099
15651W        W31460   9.821  17.531  14.121 -0.1196 -0.0887  0.0364
15652W        W31461   9.284  12.871   4.101  0.0515 -0.1300  0.1554
15653W        W31462  14.188  15.404   0.698 -0.4176  0.0587  0.2303
15654W        W31463  10.735  17.708   5.878  0.0642 -0.1635 -0.2638
15655W        W31464   8.320  16.362   1.262  0.0047  0.4016 -0.1512
15656W        W31465  14.109  17.527  15.653  0.0527  0.2221  0.1610
15657W        W31466  14.515   1.081  13.444 -0.0560  0.1403  0.1304
15658W        W31467  16.798   8.920   3.674  0.1478 -0.1772 -0.0741
15659W        W31468  12.356  13.635   0.478  0.4119  0.1967 -0.1584
15660W        W31469  13.031   6.880  15.268  0.0023 -0.1923  0.0003
15661W        W31470   4.470   0.616   2.351 -0.0293  0.2017 -0.0599
15662W        W31471  14.009   9.076   2.313 -0.0576 -0.1982 -0.0890
15663W        W31472  14.793  10.755  14.635  0.1615  0.0962  0.3480
15664W        W31473   2.022   4.354   1.725  0.0424 -0.0839  0.1023
15665W        W31474   1.497  14.956  14.462 -0.1096  0.2016 -0.0936
15666W        W31475   3.316   9.490  16.482  0.0499  0.2449  0.0468
15667W        W31476   6.617   8.049   1.520 -0.1326  0.0113  0.2601
15668W        W31477  15.812   4.259  15.163 -0.1936 -0.1591 -0.0587
15669W        W31478  11.540  11.847   4.340 -0.2310 -0.0615 -0.3140
15670W        W31479   7.335   9.241   2.663  0.1677  0.1004  0.0305
15671W        W31480  17.683  13.355  11.597  0.0645  0.1373  0.1882
15672W        W31481   7.617   0.544  11.946 -0.0041 -0.0820  0.1590
15673W        W31482   3.372  13.826   4.506  0.2535  0.0772  0.2475
15674W        W31483   4.412  16.310  11.906  0.2091 -0.1306  0.3770
15675W        W31484  17.862  11.934   3.776  0.1951 -0.1798  0.1123
15676W        W31485   5.538   3.308   4.979  0.0275 -0.2384 -0.0239
15677W        W31486   7.309  12.718   1.758  0.1283  0.1170 -0.0328
15678W        W31487  10.747  10.384   5.053  0.2670 -0.1851  0.0013
15679W        W31488   2.868  16.069  14.033 -0.0695 -0.1140  0.0896
15680W        W31489   6.020   8.194  14.523  0.1856 -0.0388  0.3710
15681W        W31490   6.650   2.281   2.880  0.0155 -0.2884 -0.1810
15682W        W31491   0.826   3.526   2.184 -0.0919  0.4042  0.2499
15683W        W31492  17.512  13.944   5.624 -0.0699  0.0834  0.0759
15684W        W31493   5.988   3.392  13.972 -0.2054 -0.1399 -0.2385
15685W        W31494   5.417  15.612   3.572 -0.0767  0.1460 -0.0188
15686W        W31495   4.694   5.992   3.414 -0.1116 -0.3865 -0.0990
15687W        W31496   4.545   6.109   2.000 -0.1789 -0.1360  0.0850
15688W        W31497  13.267   5.433  16.280 -0.2241 -0.0035  0.1294
15689W        W31498   4.876   6.468  12.955 -0.0227 -0.1395  0.0342
15690W        W31499   3.488   9.145   4.106  0.0581 -0.1520  0.0134
15691W        W31500   4.614   2.353   4.354  0.1463 -0.0190  0.0324
15692W        W31501  11.126   1.463   0.591 -0.0465  0.1925 -0.2346
15693W        W31502  16.065  12.286   3.427 -0.0964  0.1959 -0.3542
15694W        W31503  15.037   3.008   1.041 -0.0779 -0.1265 -0.1252
15695W        W31504  13.271  13.885  12.958 -0.0996  0.1549  0.0964
15696W        W31505   5.174   2.942   4.678 -0.2224 -0.3425  0.0951
15697W        W31506   5.634   9.824  11.615 -0.0018 -0.1072  0.0907
15698W        W31507  17.315   6.429  12.418 -0.0472 -0.1178 -0.3152
15699W        W31508  10.106   1.640  13.295  0.1368  0.2751  0.1337
15700W        W31509  11.762  10.200  12.070 -0.1436  0.0203 -0.2871
15701W        W31510   8.200   5.080  13.052 -0.0695 -0.1032  0.0689
15702W        W31511   1.108   2.042  12.179  0.0108  0.1771  0.0991
15703W        W31512   1.073  15.237  14.386 -0.0418  0.0193 -0.3886
15704W        W31513  17.820   1.220  15.260  0.0477  0.2587  0.0853
15705W        W31514   8.716  11.327   4.346  0.1805 -0.3095 -0.0693
15706W        W31515   5.284   9.418  11.735  0.1510 -0.0790 -0.1418
15707W        W31516   8.343  10.546   1.573  0.0629  0.3414  0.3590
15708W        W31517   1.319   9.634  15.492  0.1077  0.2382 -0.0229
15709W        W31518  10.963   9.834   5.864  0.0769  0.3274 -0.1347
15710W        W31519   0.918   3.206   5.813  0.3280  0.1466  0.0278
15711W        W31520   0.343  10.988   4.671  0.5042  0.1424 -0.2860
15712W        W31521   6.661   0.911  12.793 -0.0790  0.2966  0.0616
15713W        W31522  10.099   3.172  14.270  0.1035 -0.0441 -0.1636
15714W        W31523  15.787  16.676  14.227  0.3396  0.0496 -0.1104
15715W        W31524   2.908   4.156   1.783  0.0100  0.1370 -0.1177
15716W        W31525   0.619   6.474  15.359  0.1098 -0.0171  0.3169
15717W        W31526  12.805   3.304   3.378 -0.3162 -0.0096 -0.0606
15718W        W31527  13.827  11.084   5.453 -0.0391  0.1805  0.1026
15719W        W31528  17.372  10.490   1.959 -0.0025  0.0283 -0.0570
15720W        W31529  10.805  10.275  12.603  0.0767 -0.1285 -0.1291
15721W        W31530   0.177  10.736   2.082  0.0904 -0.0716 -0.2480
15722W        W31531   9.811   7.549  13.982  0.6102  0.0399  0.2910
15723W        W31532  12.750   9.303  11.860 -0.1217 -0.0323  0.1539
15724W        W31533  16.920  16.405  16.330 -0.1757 -0.1033  0.0868
15725W        W31534  15.391   1.141  13.545 -0.0761 -0.0927  0.3948
15726W        W31535   9.009   9.385  13.330  0.3634  0.0517 -0.2366
15727W        W31536   9.747   8.341  11.889 -0.0282 -0.1964  0.1014
15728W        W31537   1.121  10.141   5.297  0.1488  0.1575  0.1282
15729W        W31538   3.299  16.890  13.150 -0.1338 -0.3254 -0.2929
15730W        W31539  16.822  12.821   1.545  0.4624 -0.0808  0.3284
15731W        W31540   6.564   5.743   3.465 -0.0390  0.1518  0.0016
15732W        W31541  15.366  14.831  12.196 -0.0823  0.1182 -0.3720
15733W        W31542  13.844   5.594  15.433  0.1751 -0.0426 -0.0771
15734W        W31543   7.872   2.610  16.231 -0.1003  0.2646 -0.2729
15735W        W31544  14.793   4.998   5.929 -0.3901 -0.0024 -0.1161
15736W        W31545  17.808  10.550   1.674  0.2055  0.3217  0.2287
15737W        W31546   1.115   5.271  14.124 -0.3696 -0.1322  0.0180
15738W        W31547  15.069  10.826  13.854  0.0702 -0.0687  0.1402
15739W        W31548   1.193   2.791  11.623 -0.3337  0.2605 -0.0689
15740W        W31549   6.365   6.515   2.951 -0.0259 -0.1980 -0.0231
15741W        W31550  12.542   6.798   3.355 -0.0458  0.0639 -0.0904
15742W        W31551  15.325  14.722  11.657 -0.1325  0.1445  0.0421
15743W        W31552  16.586  14.383   5.891 -0.1516  0.0541  0.2076
15744W        W31553  16.678   2.063  11.445  0.0254  0.0696 -0.1578
15745W        W31554   9.047   0.901   4.393 -0.1443  0.0764  0.3652
15746W        W31555  12.223   8.816   5.454 -0.0005  0.0777  0.3714
15747W        W31556  11.138   1.331   4.632  0.1390  0.1248  0.1719
15748W        W31557   2.711  13.083  15.407  0.1541  0.1632  0.2601
15749W        W31558   5.474   2.181   5.641  0.1289  0.2279 -0.3152
15750W        W31559   1.521   4.150   2.414  0.2277  0.1028  0.1420
15751W        W31560   4.813   7.255   9.442 -0.1550 -0.1489 -0.0999
15752W        W31561   3.653  17.686  14.686 -0.2099 -0.0360  0.0565
15753W        W31562  13.175  14.083  15.074  0.0355 -0.0213 -0.2034
15754W        W31563   5.986  15.868   1.145  0.3204 -0.1171  0.0819
15755W        W31564   9.163   0.232   5.062  0.1918  0.1158 -0.1792
15756W        W31565   8.479   0.036   1.446 -0.3197 -0.0334  0.0878
15757W        W31566   9.253   3.343  13.477  0.0463  0.0556  0.2075
15758W        W31567  11.831  11.137   0.227  0.1935  0.4362 -0.0989
15759W        W31568  17.482   6.271   3.036  0.1693 -0.2013  0.0365
15760W        W31569   5.704  13.946  16.126 -0.3138  0.0600  0.2423
15761W        W31570  16.644  14.450  11.824 -0.2583  0.1179  0.1692
15762W        W31571  12.399   4.181   2.424 -0.1292  0.0689 -0.1766
15763W        W31572  14.938   1.090   5.516 -0.0386 -0.0851 -0.0654
15764W        W31573  11.571   4.892   5.632 -0.0586  0.0206  0.1186
15765W        W31574   6.485  16.985   3.654 -0.2243  0.1946 -0.1544
15766W        W31575  14.230   0.101   3.555  0.4109  0.2170 -0.1549
15767W        W31576   9.584  17.618   1.092  0.0580 -0.0200  0.1610
15768W        W31577  11.660   9.324   4.273  0.0430 -0.0381  0.2162
15769W        W31578   8.987  13.468   5.923 -0.0669  0.1203 -0.0819
15770W        W31579  14.102  13.555   2.147 -0.1756 -0.1762 -0.0871
15771W        W31580   0.928   6.013  12.989 -0.2714  0.0614  0.3202
15772W        W31581   8.117  10.212  14.792 -0.0634 -0.0208  0.1555
15773W        W31582  17.735  10.972  11.425 -0.1091  0.4490  0.2090
15774W        W31583   7.894   5.420   3.730  0.0259 -0.0684  0.1531
15775W        W31584   7.777  12.379   2.662 -0.2064 -0.2165 -0.0993
15776W        W31585  14.883  13.014  16.281 -0.1017  0.1024  0.0068
15777W        W31586   5.393   6.651   0.559  0.1469  0.1262 -0.1689
15778W        W31587   7.743  13.325   2.527 -0.1309  0.0640  0.1127
15779W        W31588  16.260  16.837   0.256  0.1837  0.0864  0.1516
15780W        W31589  14.733   7.202   2.029 -0.1988  0.0093  0.0167
15781W        W31590   7.192   1.091   4.079  0.3467 -0.2420  0.0706
15782W        W31591  13.809  15.567  16.287 -0.0906 -0.2509 -0.1592
15783W        W31592   3.502  11.062  14.496 -0.2832  0.0655 -0.2166
15784W        W31593  16.862  16.604   0.970 -0.1478 -0.0034 -0.0871
15785W        W31594  10.001   4.864  14.841  0.1135 -0.0806  0.1935
15786W        W31595   7.435  11.613   5.859 -0.3058  0.2994 -0.1379
15787W        W31596  14.843  16.107  12.308 -0.0291  0.0422  0.0996
15788W        W31597   6.812   1.733  13.378 -0.2740  0.1070  0.2207
15789W        W31598   6.950  14.824   2.533 -0.1601  0.0474  0.0340
15790W        W31599   3.706  13.895  14.083  0.1617 -0.2835  0.0911
15791W        W31600   2.739  11.424  12.654 -0.2412  0.0193  0.1971
15792W        W31601   6.732   2.095   1.166  0.1926 -0.0560  0.0494
15793W        W31602  17.026   1.907  14.458 -0.1586  0.0949  0.0391
15794W        W31603  10.319   6.856   3.289 -0.1164 -0.1322 -0.1851
15795W        W31604   0.270   9.956   0.815 -0.1687 -0.0999 -0.1999
15796W        W31605   2.733   4.418   0.062 -0.0705  0.3277  0.1989
15797W        W31606  13.781   4.943   0.372  0.0779 -0.0052  0.0689
15798W        W31607   3.999  15.584   2.109 -0.1927  0.0474  0.1481
15799W        W31608  12.657   7.745   6.179 -0.0730 -0.2795 -0.0397
15800W        W31609  13.056   1.986  14.064 -0.0229  0.1222 -0.0907
15801W        W31610   8.292   4.267   0.950  0.0467 -0.0353  0.1585
15802W        W31611   9.852  11.947  14.478  0.1829  0.2321 -0.0188
15803W        W31612   3.744   6.886   0.624  0.0230 -0.1605  0.1382
15804W        W31613   1.738  12.917  15.178  0.1914  0.1256  0.1033
15805W        W31614   1.299   0.129   5.121  0.2691 -0.0521 -0.0381
15806W        W31615   5.250  12.087   0.220 -0.0423 -0.2992  0.0816
15807W        W31616   0.965  17.110   5.470  0.1789 -0.1620  0.1928
15808W        W31617  17.462   4.730   0.460 -0.1446  0.0417  0.1724
15809W        W31618   9.985  15.302  16.327 -0.0262 -0.0613 -0.2355
15810W        W31619   4.832  14.014  16.426 -0.1689  0.0857 -0.0454
15811W        W31620   3.575  16.284   0.478  0.2572  0.3047 -0.0592
15812W        W31621   3.489  11.997  10.922 -0.0348 -0.1412 -0.1831
15813W        W31622  15.392  14.563  16.444  0.2170  0.3767  0.2395
15814W        W31623   5.491  13.772  11.822  0.0792  0.3268 -0.1204
15815W        W31624  12.600  12.805   4.531  0.0824  0.3562  0.0383
15816W        W31625   9.331   4.360   0.346  0.2444  0.0084  0.2169
15817W        W31626  15.232  13.796  12.114  0.5017  0.0658  0.0119
15818W        W31627  12.382  11.342   3.348  0.0564  0.1820  0.2804
15819W        W31628   7.963   8.336  12.561  0.2190  0.0383  0.0945
15820W        W31629   9.912  10.594   3.233 -0.2665 -0.1087  0.1772
15821W        W31630   2.115  14.861   0.603 -0.1034  0.0954  0.2508
15822W        W31631   7.310   3.595   2.730 -0.0233 -0.1430 -0.2526
15823W        W31632   6.759  16.778  16.095 -0.0273  0.1885 -0.1412
15824W        W31633  11.974  17.052   1.026  0.0415 -0.1495 -0.2313
15825W        W31634  12.024   1.271   3.718  0.1095  0.0635 -0.1896
15826W        W31635   6.831   1.380  13.870  0.0191 -0.1659 -0.0306
15827W        W31636   9.530   5.854   2.159  0.0509 -0.0639 -0.2097
15828W        W31637  14.166  11.247  16.281  0.0151  0.3856 -0.0895
15829W        W31638   2.153   7.312   5.099  0.1373  0.3431 -0.1674
15830W        W31639   6.601   5.837   5.011  0.1932  0.1215  0.0679
15831W        W31640   8.640   4.692   0.098  0.0687  0.1504  0.1486
15832W        W31641   2.738  14.592  12.903 -0.0128 -0.3468  0.1017
15833W        W31642   1.034   3.587   5.396  0.2277  0.4791  0.0412
15834W        W31643  12.783  13.665   0.788  0.4915  0.0327  0.3274
15835W        W31644   2.552  10.151   2.205 -0.0879  0.4204 -0.0582
15836W        W31645   1.305   7.534  12.065 -0.3175 -0.1601  0.3990
15837W        W31646   1.179   4.731  12.750 -0.3685  0.0092 -0.2488
15838W        W31647  14.303  16.959  16.413 -0.0554  0.2914  0.1109
15839W        W31648  16.493   7.734   4.201 -0.2930  0.0094  0.3218
15840W        W31649  13.476   7.345   1.289  0.0382  0.0444  0.0537
15841W        W31650   6.343  12.198   2.039  0.1013  0.0291 -0.0060
15842W        W31651   2.979   9.503   1.438 -0.0367  0.0843 -0.0837
15843W        W31652  14.429   7.203   3.435  0.1293 -0.0018  0.0433
15844W        W31653  10.353  10.524  12.454 -0.1635 -0.3396 -0.1289
15845W        W31654   7.589   9.352   3.140  0.1968 -0.3288 -0.2810
15846W        W31655  14.790  12.909   0.402 -0.0156  0.0603 -0.0204
15847W        W31656   1.280   5.318   5.079  0.0489  0.0531  0.1108
15848W        W31657   5.145  15.616  12.526 -0.0256  0.0703  0.2887
15849W        W31658   4.795  12.782  15.761 -0.0132  0.1359 -0.0427
15850W        W31659   8.740   1.254  14.723 -0.4110 -0.1412 -0.0228
15851W        W31660   7.403  12.583   0.756 -0.1179  0.1149  0.1933
15852W        W31661   1.168   5.508  15.960  0.0820 -0.1428 -0.1949
15853W        W31662  15.783  15.448   4.731  0.3171  0.3036 -0.2184
15854W        W31663   5.476  10.048   2.788  0.2426 -0.1370  0.2893
15855W        W31664   0.476  16.398   0.501 -0.0841  0.0567  0.0148
15856W        W31665   6.137  13.253  15.540 -0.2355 -0.2065  0.0973
15857W        W31666   2.767   0.331   5.039 -0.1466 -0.0200  0.0350
15858W        W31667   2.542  13.978  15.727 -0.0891  0.1722  0.1445
15859W        W31668   4.457   9.413  15.115  0.1754  0.1498 -0.0502
15860W        W31669  16.245   1.109  11.609  0.2953 -0.0028 -0.0663
15861W        W31670   8.618  11.529   5.440 -0.0228 -0.0418 -0.0409
15862W        W31671   9.537  15.641  15.601 -0.1025 -0.2225  0.0813
15863W        W31672   6.465   0.603   5.014  0.3294 -0.3073  0.0575
15864W        W31673   8.875   6.412   3.707 -0.1655 -0.0951  0.1503
15865W        W31674   1.669  17.526  11.910 -0.0440 -0.2595  0.1526
15866W        W31675   0.769   6.452  12.753 -0.2240 -0.0573  0.2290
15867W        W31676   9.712  10.509   6.034  0.0089  0.1325 -0.1089
15868W        W31677   4.842   2.075   1.276 -0.2179  0.0538 -0.2289
15869W        W31678  13.799   7.281  15.995 -0.1470 -0.0451  0.1323
15870W        W31679  14.164  10.224   1.223 -0.1532 -0.1138  0.0212
15871W        W31680   1.504  10.062   2.386 -0.1208  0.1153  0.0542
15872W        W31681  15.753   8.774   4.533 -0.2738  0.2757  0.0724
15873W        W31682  14.361   0.649  11.628  0.0147 -0.1150 -0.0769
15874W        W31683  13.401  15.982  14.171 -0.1477  0.0388 -0.3240
15875W        W31684  13.359   0.672   4.490  0.2967 -0.0767 -0.0442
15876W        W31685  13.979  10.335  12.273  0.5442 -0.0968  0.2842
15877W        W31686  14.494   4.560   0.688  0.1596 -0.2135  0.0894
15878W        W31687  15.780  16.322  11.338  0.0555  0.1071  0.0869
15879W        W31688  12.175  13.494  14.391 -0.1990 -0.0768  0.1512
15880W        W31689   3.633   5.473   0.426  0.2843 -0.2077  0.0414
15881W        W31690   3.174   6.678  11.757 -0.0976  0.1249 -0.1810
15882W        W31691  15.566   6.782   2.280 -0.0549  0.1612 -0.0737
15883W        W31692  16.169   7.348  16.646 -0.1919 -0.0037 -0.4441
15884W        W31693   8.820   9.326   3.612 -0.0828 -0.0344 -0.0620
15885W        W31694  11.187   6.706   0.253  0.1047 -0.0676 -0.2404
15886W        W31695   7.019   8.925  16.210  0.1501  0.3713 -0.1155
15887W        W31696  10.792  14.662   0.700  0.1872 -0.1567  0.2547
15888W        W31697  12.296  17.002   3.165  0.2644  0.0193  0.1453
15889W        W31698   0.438  11.647   1.987 -0.2812  0.0011 -0.0553
15890W        W31699   9.436  14.435   5.681  0.3228  0.0061 -0.1883
15891W        W31700  14.194  14.583   1.265  0.0645 -0.0255 -0.1031
15892W        W31701   8.522  17.310  13.901 -0.1708 -0.2501  0.3051
15893W        W31702  14.770   6.288  14.418  0.1261 -0.1250  0.0539
15894W        W31703  12.673   8.140  11.338  0.1659  0.2951  0.2843
15895W        W31704  17.769  15.882   2.402  0.0990 -0.0351 -0.0445
15896W        W31705  11.363   4.712   4.346 -0.2625 -0.1296  0.3238
15897W        W31706  16.968  10.545  14.228 -0.3242 -0.3200 -0.0301
15898W        W31707  13.381   7.417  13.005  0.0743  0.0692  0.2106
15899W        W31708   3.378  12.703   3.983  0.0918  0.1178 -0.4007
15900W        W31709  15.020  11.720  14.252  0.1713 -0.1563  0.0916
15901W        W31710   0.478  17.092   1.073 -0.1308  0.0047 -0.2982
15902W        W31711  15.955  16.911   1.369  0.0984 -0.3293  0.0182
15903W        W31712   6.368   6.362  13.515 -0.1621 -0.1395 -0.2065
15904W        W31713   2.912   6.828  14.151 -0.1785  0.1015  0.2176
15905W        W31714   3.639  14.915  11.617 -0.0242  0.4866 -0.2048
15906W        W31715  15.923  13.996   1.700 -0.3298  0.3123  0.1433
15907W        W31716  12.085  15.294  14.800  0.0419 -0.3568  0.1274
15908W        W31717   2.911   9.104   1.166  0.2214 -0.0280 -0.1583
15909W        W31718  17.282   0.721  15.930  0.1411 -0.2599  0.3337
15910W        W31719  13.835  13.033  13.376  0.2648  0.0421 -0.2184
15911W        W31720   7.395  13.111   2.100 -0.0459 -0.0112  0.0191
15912W        W31721  15.455  17.002   3.673  0.0232  0.1017 -0.0505
15913W        W31722   5.274  17.533   0.769 -0.3975  0.2210  0.0104
15914W        W31723  15.954  16.891  12.542 -0.2281  0.2341 -0.1750
15915W        W31724  14.652   6.946  14.737 -0.1452  0.0562 -0.0949
15916W        W31725   3.563   2.486  14.647  0.1330  0.0405 -0.2094
15917W        W31726   9.753   3.817  15.047  0.0965  0.1086 -0.1115
15918W        W31727   0.684  10.226  15.365 -0.2102  0.0122  0.1759
15919W        W31728   0.139  15.529   2.344  0.1726 -0.0769  0.0665
15920W        W31729  12.482   6.385   0.260  0.0965 -0.0743  0.1170
15921W        W31730  15.755  17.701  13.147  0.2727  0.1960  0.0779
15922W        W31731  13.137   2.482   2.266  0.2310 -0.1906 -0.0618
15923W        W31732   4.749  14.840  13.123 -0.1841 -0.0528  0.0342
15924W        W31733   4.693  14.723   4.922  0.0350 -0.2290  0.0342
15925W        W31734  12.439  15.237   2.413 -0.0409  0.0396 -0.0949
15926W        W31735  13.038  11.727   0.482  0.3943 -0.0832 -0.1778
15927W        W31736   3.473  14.845  16.442 -0.0842  0.1708  0.0371
15928W        W31737  11.288   8.853  16.577 -0.3543  0.1438 -0.1362
15929W        W31738   1.068   7.486   3.028  0.2336  0.0381 -0.1918
15930W        W31739  17.096  17.037  15.531 -0.2593 -0.1506 -0.2620
15931W        W31740   3.557  10.839  14.940  0.0746  0.2036 -0.1587
15932W        W31741  12.507  16.741   0.835  0.1518  0.1619  0.1692
15933W        W31742  11.147  12.193   0.387 -0.0995  0.2824 -0.1075
15934W        W31743   2.263   6.215  10.954  0.0123 -0.0832  0.1230
15935W        W31744  15.098   8.145   3.604 -0.3273  0.4152  0.1385
15936W        W31745  17.604   1.626   1.182 -0.0985 -0.1093  0.0449
15937W        W31746  17.020  12.384  12.905 -0.0971 -0.2388  0.2607
15938W        W31747   9.275   5.160   1.175 -0.0632  0.2054 -0.2293
15939W        W31748   2.762  10.125   4.745  0.1408  0.2032  0.1143
15940W        W31749   4.417  14.451  13.737 -0.0169  0.1062 -0.0579
15941W        W31750   7.636  17.960   1.047 -0.5787 -0.0296 -0.0434
15942W        W31751   8.407  10.853  11.500 -0.4854  0.2103 -0.1055
15943W        W31752  16.456  16.910  16.002 -0.0945 -0.0274 -0.0639
15944W        W31753  12.963   0.204  12.704 -0.0681  0.1473  0.0772
15945W        W31754   4.305   4.183  11.070 -0.1052  0.2355  0.1447
15946W        W31755   5.388  15.782   4.653 -0.1354 -0.3948 -0.0780
15947W        W31756   3.431   9.057  12.435 -0.1008  0.0474 -0.0083
15948W        W31757   1.038   7.826  15.560  0.0190 -0.1314 -0.4019
15949W        W31758  17.670  12.694   1.421 -0.1388 -0.0156 -0.2108
15950W        W31759   5.644   4.682   4.787 -0.0320  0.1389 -0.1923
15951W        W31760   5.836  14.676  11.977 -0.1834  0.1033 -0.1087
15952W        W31761   2.081  10.014   2.728  0.0876  0.2612  0.1753
15953W        W31762  10.986  11.743   2.075 -0.1073 -0.0757 -0.1440
15954W        W31763  11.446  15.124   3.248 -0.1217  0.1315  0.5186
15955W        W31764  10.666  16.915   4.600  0.2616 -0.1156  0.2692
15956W        W31765   8.832  15.557   4.777 -0.2835 -0.1205 -0.3389
15957W        W31766  10.929  10.663  13.159  0.0278  0.0235  0.1096
15958W        W31767   2.473  11.626  15.495  0.1682 -0.2687  0.0035
15959W        W31768   0.356   6.879   3.503 -0.0668 -0.1594  0.1952
15960W        W31769  12.525  12.380   5.232  0.0749  0.0325 -0.1190
15961W        W31770   6.756  15.222  11.913  0.1502  0.2207  0.1948
15962W        W31771   7.100   2.600   3.599  0.0985  0.2823  0.2729
15963W        W31772  14.140  13.104  15.135 -0.4132 -0.4614  0.2045
15964W        W31773   0.873   2.913  10.624  0.3435 -0.0282 -0.0979
15965W        W31774   9.882  13.225  12.570 -0.3657 -0.0486 -0.2464
15966W        W31775   6.438   8.919   5.686  0.2604 -0.0196  0.0703
15967W        W31776   7.761  10.170   3.809  0.2399  0.0723 -0.2827
15968W        W31777   3.319   7.879  11.794  0.0677  0.0861  0.0014
15969W        W31778  10.752  12.997   4.300 -0.0592  0.0728  0.3020
15970W        W31779   6.568   4.911  13.133  0.1434  0.1076  0.1505
15971W        W31780  13.585  13.148   2.524 -0.2259 -0.1300 -0.1988
15972W        W31781  17.170  16.171  10.749 -0.2807 -0.1746  0.0421
15973W        W31782  16.894   8.666  16.067  0.2556 -0.0012 -0.1960
15974W        W31783   6.475   8.858  11.707 -0.1193  0.2526 -0.4991
15975W        W31784   6.520  14.233   1.520 -0.0853 -0.1576 -0.1674
15976W        W31785   8.215  10.968  13.744 -0.5187 -0.1127 -0.1445
15977W        W31786  17.907   1.466   0.214 -0.2139 -0.0541 -0.0425
15978W        W31787   1.390  12.651   0.785  0.0494  0.0162  0.2345
15979W        W31788   1.229  10.041   3.755 -0.0824 -0.0611 -0.1369
15980W        W31789   4.846   1.885  14.775 -0.1583 -0.0273 -0.1819
15981W        W31790  12.500  17.770  15.775  0.2142 -0.0407 -0.2220
15982W        W31791  10.977   2.069  14.396  0.1025 -0.1401 -0.1527
15983W        W31792   3.385   5.758   1.728 -0.3536 -0.0094  0.2998
15984W        W31793   4.618   0.915  16.109 -0.0121 -0.0436  0.1876
15985W        W31794   3.467   1.632  12.267 -0.0662 -0.1710 -0.2000
15986W        W31795   5.822   3.204  12.346 -0.0834 -0.2153  0.0416
15987W        W31796  13.231   4.516   5.070  0.2557  0.0036 -0.3771
15988W        W31797  14.528   1.963   0.086 -0.0720  0.1221  0.3256
15989W        W31798   4.623   5.491  12.757 -0.0296  0.0655  0.2198
15990W        W31799  10.786  11.730   6.302 -0.1317  0.0163  0.0874
15991W        W31800   3.697  10.936  10.919  0.0203  0.2695  0.1614
15992W        W31801   6.074   9.081   2.368 -0.0235 -0.4620  0.1470
15993W        W31802   8.890   5.045  15.446 -0.3057 -0.0017 -0.0193
15994W        W31803  11.463  14.542  13.927 -0.3252  0.0092 -0.0053
15995W        W31804   7.133   8.870  11.153 -0.0977  0.0084  0.1176
15996W        W31805  12.171   1.117  14.773 -0.2169 -0.3551  0.3804
15997W        W31806  13.289  11.803   1.402 -0.1385  0.1339 -0.1305
15998W        W31807  16.314   3.472   0.853 -0.1659 -0.0781  0.4585
15999W        W31808   1.883   7.010  13.510 -0.0511  0.1242  0.2487
16000W        W31809  17.723   2.139   0.937  0.2114 -0.2358  0.0906
16001W        W31810   1.919   2.569  13.021 -0.2684  0.0133  0.0436
16002W        W31811  14.069  14.617  15.194  0.0363  0.1078 -0.1755
16003W        W31812  15.438  10.555   6.620  0.0000  0.0426  0.0783
16004W        W31813  14.773  14.244  15.822  0.0122 -0.0739  0.0679
16005W        W31814   2.129  13.737  15.800  0.0239 -0.0597 -0.1086
16006W        W31815  12.103  10.415  12.976  0.0854 -0.0076  0.0668
16007W        W31816  17.135  13.102   3.244  0.1822  0.1594 -0.0416
16008W        W31817  14.948  17.575   5.920  0.0011 -0.2778  0.2899
16009W        W31818  16.102  12.247  13.938 -0.0906 -0.0987 -0.1805
16010W        W31819  10.211  13.403   5.904  0.2099 -0.2085  0.1355
16011W        W31820  14.199  15.862   0.416 -0.0066  0.0936  0.2120
16012W        W31821   6.519  13.179   3.603 -0.1741 -0.0536 -0.3903
16013W        W31822  11.143   3.311   2.301 -0.1317  0.0339  0.0075
16014W        W31823   3.376   7.497  11.346 -0.0024 -0.0751  0.0009
16015W        W31824  11.926   2.045  15.719  0.0502 -0.2446 -0.2462
16016W        W31825   8.247   1.956   3.396 -0.0531 -0.0118  0.1174
16017W        W31826  10.971  15.103   5.477  0.3339 -0.3429  0.4673
16018W        W31827  14.283   8.051   0.524 -0.0487  0.1247 -0.0284
16019W        W31828  10.823   1.397   1.634  0.2035 -0.2063  0.2954
16020W        W31829  11.918  13.720  15.169 -0.0215  0.1461 -0.2560
16021W        W31830  15.320  10.392  14.009 -0.0434 -0.2476 -0.2691
16022W        W31831   0.569   8.785   5.378  0.0308  0.0703  0.3211
16023W        W31832   0.406   4.107  12.446  0.0326 -0.1262 -0.1152
16024W        W31833   1.460   7.099   4.311 -0.1774 -0.0451  0.2025
16025W        W31834  15.753   2.106  16.010 -0.1933 -0.2308 -0.3433
16026W        W31835   2.533   5.130   4.235  0.4622 -0.1362  0.1657
16027W        W31836  14.769  15.439   2.376 -0.0722  0.1544  0.2845
16028W        W31837   5.283   2.563  12.606 -0.2135  0.0534  0.0263
16029W        W31838   6.254   3.205  15.329 -0.0826 -0.0267  0.2238
16030W        W31839   3.952   9.804  12.273 -0.0792  0.0866 -0.3145
16031W        W31840   0.474  11.356   1.284  0.1829  0.2169 -0.0535
16032W        W31841  16.689   3.637   1.741 -0.0820  0.1803 -0.1957
16033W        W31842   1.346   9.112  15.256  0.0583  0.0891  0.1828
16034W        W31843   8.742  17.193   4.502 -0.2400 -0.0896 -0.1384
16035W        W31844   6.487   0.587   3.421 -0.0658  0.5200  0.1503
16036W        W31845   8.395  10.618  14.578  0.2412  0.3389 -0.1154
16037W        W31846  17.312   8.376  16.275  0.1913 -0.0418  0.1513
16038W        W31847   9.748  15.895   0.215  0.2722 -0.1451  0.2879
16039W        W31848   9.679   9.944   1.314 -0.2756 -0.2506 -0.3143
16040W        W31849  16.651  15.512  14.758  0.3508 -0.1418 -0.1826
16041W        W31850   5.061   6.660  15.213  0.3943 -0.0386  0.1934
16042W        W31851  11.436  16.598   1.637  0.3132  0.2461  0.0710
16043W        W31852  17.465  11.095  10.489 -0.2340  0.0498  0.2154
16044W        W31853  10.000   9.242   4.898 -0.2853 -0.2368 -0.0105
16045W        W31854   3.738   1.886  14.959 -0.3756 -0.0199  0.2065
16046W        W31855   9.904   6.636  12.265  0.0331 -0.2658  0.2676
16047W        W31856   3.727   2.351   0.893  0.0006 -0.1434  0.1683
16048W        W31857   4.785   1.953   2.496 -0.0144 -0.1033 -0.1650
16049W        W31858  13.909  12.903   1.784  0.1277 -0.2217  0.0382
16050W        W31859   5.816   7.289  13.241 -0.1249  0.0645 -0.1383
16051W        W31860   2.109  14.675   1.709 -0.1441 -0.0907 -0.1352
16052W        W31861   2.334   9.320  16.043 -0.2414  0.1633 -0.3981
16053W        W31862   8.778   0.219   2.793  0.0369  0.0679  0.4007
16054W        W31863   9.966   3.320   0.127 -0.1225 -0.1475  0.3016
16055W        W31864   7.590   1.564   6.320  0.3287 -0.5450 -0.1091
16056W        W31865   9.665   4.846  12.333 -0.1387  0.1132 -0.2332
16057W        W31866  15.891  14.198   2.482  0.0635  0.2576  0.1480
16058W        W31867  12.348   5.185   2.407 -0.1276 -0.4314 -0.1669
16059W        W31868  16.973   4.066  13.290  0.2545 -0.0633 -0.0027
16060W        W31869   7.890  15.679  14.288 -0.1775  0.0331 -0.0305
16061W        W31870   9.690   2.737   3.894 -0.0041 -0.0772  0.0544
16062W        W31871  15.497   3.303   1.121 -0.0078  0.1650  0.2331
16063W        W31872   7.290  12.400   1.230 -0.0528  0.2109 -0.1553
16064W        W31873   0.100   2.461   2.607  0.1530  0.1305  0.2731
16065W        W31874  17.265   7.199   1.074  0.3276  0.0775 -0.2168
16066W        W31875   4.504   4.879   4.069  0.1193  0.6051  0.3052
16067W        W31876   6.205  17.646   1.034  0.0560 -0.1999  0.0011
16068W        W31877   1.678  10.687   1.316  0.1422 -0.0141 -0.1770
16069W        W31878  17.542   9.167   1.553 -0.1247 -0.2660 -0.4159
16070W        W31879   4.795  16.076  12.610 -0.3676  0.0352 -0.0765
16071W        W31880  14.233  10.616  13.300  0.2833 -0.1492  0.0350
16072W        W31881  16.442   2.404  16.607 -0.0642 -0.1429  0.1457
16073W        W31882   3.663   5.792  15.810  0.1723  0.0173  0.1682
16074W        W31883   1.033  14.302  11.194 -0.0115  0.4282  0.0765
16075W        W31884   6.100  16.646   3.568 -0.1574 -0.0837 -0.1740
16076W        W31885   4.900  13.968  15.511  0.1494  0.0696 -0.0082
16077W        W31886   8.563   0.426  14.919 -0.1972 -0.0133  0.1133
16078W        W31887  16.051   9.776   0.661 -0.4294  0.1100 -0.3320
16079W        W31888   6.253  15.885  14.210 -0.3246 -0.1653 -0.2064
16080W        W31889   9.903   1.889   5.406  0.1143  0.4562 -0.0213
16081W        W31890   5.206   5.437   4.431  0.1051 -0.1490  0.0517
16082W        W31891  17.105   3.629   1.463  0.1048  0.2822  0.0368
16083W        W31892  17.134  10.227   3.898  0.2228  0.2425  0.4439
16084W        W31893   1.372  12.653  14.946  0.1280 -0.0652 -0.0191
16085W        W31894   0.267  15.743   0.111  0.2082  0.0477 -0.2652
16086W        W31895  15.994  11.017   5.332  0.0422 -0.1460  0.0569
16087W        W31896  12.067   7.278  15.483  0.3065 -0.1459 -0.0321
16088W        W31897   4.061  15.262   3.390 -0.0419  0.1372 -0.0595
16089W        W31898   5.971  14.154   2.717 -0.2782 -0.2922 -0.1203
16090W        W31899  12.459  16.970  13.643 -0.1786  0.3141  0.0513
16091W        W31900   1.049   1.395   4.500 -0.5064 -0.0122  0.2760
16092W        W31901  12.462  11.496   6.204  0.1314  0.0204  0.0419
16093W        W31902   0.971  17.578  14.731 -0.2650  0.0420 -0.0112
16094W        W31903   8.943   7.520   0.810 -0.0105 -0.0377  0.0263
16095W        W31904  14.078   0.246   1.289  0.2636  0.0681  0.3722
16096W        W31905  10.611   3.574  13.315 -0.2000 -0.1113 -0.3246
16097W        W31906  16.871  14.468   0.776  0.3341  0.2227 -0.0634
16098W        W31907   1.291   3.995   1.354 -0.0080  0.2333  0.0350
16099W        W31908  17.515   3.324  13.117  0.2496 -0.1415  0.2106
16100W        W31909  13.198   3.048  15.748  0.1485  0.1033  0.1237
16101W        W31910   2.412  15.028   0.066 -0.1027 -0.1157 -0.1223
16102W        W31911  14.257   7.066   1.723  0.0115  0.0186  0.0091
16103W        W31912  13.492   5.432  14.554 -0.2679  0.0037  0.2199
16104W        W31913   8.408  13.377  14.689 -0.3111  0.0221 -0.0781
16105W        W31914   8.140   2.761   4.145  0.1213 -0.0969  0.2321
16106W        W31915   5.882  12.309  14.499 -0.0299 -0.2178  0.0913
16107W        W31916   6.175   4.200  16.318  0.4132 -0.2961  0.1633
16108W        W31917   9.673  17.709   6.085 -0.4200 -0.1904  0.3986
16109W        W31918   7.544  11.322   2.097 -0.0276 -0.3616 -0.0441
16110W        W31919   7.591  13.869  13.734 -0.1771 -0.0654 -0.1815
16111W        W31920   0.208   2.902   2.285  0.1963 -0.0891 -0.2315
16112W        W31921   1.389   4.942   5.444  0.1457 -0.2299 -0.2320
16113W        W31922  15.501   8.760  16.002 -0.2374 -0.1340 -0.0585
16114W        W31923   2.734  15.190   4.448 -0.0064  0.1839  0.1588
16115W        W31924  15.297   6.285   0.709 -0.1679 -0.0791  0.3422
16116W        W31925   7.424  15.606  13.011  0.2928  0.1340 -0.4475
16117W        W31926   9.795  17.210   2.149  0.2853  0.1517 -0.0118
16118W        W31927  11.303  14.553  15.451  0.0766 -0.0410 -0.3296
16119W        W31928  10.860  10.368   1.618 -0.2098  0.0451  0.0774
16120W        W31929  13.848   2.821   3.925 -0.1071  0.1424  0.2960
16121W        W31930   4.958   9.374  15.452 -0.4013 -0.3226 -0.1277
16122W        W31931   6.386   7.776  15.067  0.2280 -0.1824  0.0079
16123W        W31932   9.123  12.068  13.682  0.3967 -0.2670  0.1991
16124W        W31933   6.986  14.470  11.758  0.0687  0.0583  0.0054
16125W        W31934  15.563  16.757  16.274 -0.0000  0.0783  0.0001
16126W        W31935  13.316  10.617   0.838 -0.0410 -0.0334  0.4467
16127W        W31936  13.172   7.588   5.252 -0.0316  0.1009 -0.0940
16128W        W31937   6.242   5.901   1.118  0.0038 -0.2710  0.3218
16129W        W31938   1.065  10.723  15.988 -0.2518 -0.0941  0.3148
16130W        W31939  13.347   8.048  16.589  0.0447  0.1156 -0.0316
16131W        W31940   8.094  17.363  13.485  0.1743  0.1743  0.0911
16132W        W31941   6.197   4.366   3.407 -0.1270 -0.2046 -0.0445
16133W        W31942   1.365  10.959  15.463 -0.2050  0.0599  0.1116
16134W        W31943   0.794   9.234   1.069  0.0988  0.0778 -0.0616
16135W        W31944  13.058   0.589   3.970  0.2667 -0.0034 -0.1221
16136W        W31945   2.757  11.991   2.048 -0.2492  0.2838  0.0800
16137W        W31946  14.039   0.701  11.175  0.0060  0.0160 -0.1530
16138W        W31947   6.134  12.156  11.913 -0.2217  0.3101  0.0289
16139W        W31948   0.072  13.227  11.976  0.1389 -0.2121 -0.0546
16140W        W31949  17.784  10.738   0.179  0.2337 -0.2960  0.0981
16141W        W31950  14.719   0.687   0.593  0.1024  0.1809 -0.0669
16142W        W31951  14.135  11.138   3.684 -0.0718  0.1531  0.1417
16143W        W31952   5.688  14.782   1.360  0.0922 -0.1202 -0.0583
16144W        W31953   9.442   9.333   4.393 -0.4021  0.0246  0.1825
16145W        W31954   6.219   1.147   4.155 -0.0493 -0.0870  0.1789
16146W        W31955   5.104  17.761   2.406 -0.2047 -0.0579 -0.0114
16147W        W31956   0.544   7.158   4.071  0.1517 -0.1495 -0.1794
16148W        W31957   6.109  11.683  12.320 -0.0098  0.0205  0.2565
16149W        W31958  12.614   0.448   2.310 -0.0841 -0.0639  0.1381
16150W        W31959   4.928   4.427  15.503 -0.0182  0.0330 -0.2477
16151W        W31960   3.344  14.518   5.678  0.1061  0.1249  0.4093
16152W        W31961   3.583  15.737  15.365  0.1779 -0.2375  0.0532
16153W        W31962   7.879  11.775  11.867  0.1224  0.0078  0.2011
16154W        W31963  14.687  17.741   5.448 -0.0536 -0.2693 -0.3147
16155W        W31964  11.772  11.399  12.870  0.1067 -0.1901 -0.3882
16156W        W31965  12.350  15.743   4.690  0.0816  0.1666 -0.1551
16157W        W31966   5.922   1.450  13.265  0.0691  0.1078 -0.2590
16158W        W31967  12.757  12.226  14.158  0.0769  0.1163 -0.1611
16159W        W31968   8.509   0.361  11.603  0.0988 -0.1308 -0.0968
16160W        W31969   2.264   1.396   3.652 -0.1126  0.0763 -0.0486
16161W        W31970   0.118   6.316   3.908 -0.0189 -0.1391  0.0928
16162W        W31971  13.929   3.010   4.365  0.1671  0.0986  0.0266
16163W        W31972   0.016  12.689  15.901  0.2648  0.0610  0.2881
16164W        W31973  11.270   0.175  13.235  0.1260 -0.0601  0.3000
16165W        W31974  12.479  17.176   1.812 -0.0025  0.1208 -0.0591
16166W        W31975  11.231   6.392   2.255 -0.3038 -0.3161 -0.1635
16167W        W31976  11.888   4.789   1.873  0.0556  0.0163  0.0937
16168W        W31977  13.004   6.369   1.857 -0.2392  0.0356  0.1836
16169W        W31978   5.656  16.290   5.939  0.3558 -0.1294  0.2825
16170W        W31979  17.718  14.055   1.210 -0.1832  0.0761  0.0491
16171W        W31980   7.993   3.393  15.179  0.1902 -0.0043  0.0868
16172W        W31981   1.107   0.190  11.999  0.0384 -0.2256  0.1545
16173W        W31982   7.631   6.333   1.368  0.1359  0.0931  0.2299
16174W        W31983   8.605  12.622   5.961 -0.0695  0.2033  0.0024
16175W        W31984   9.651   5.369   2.195 -0.1981 -0.2941 -0.2024
16176W        W31985   4.986  15.445   3.183 -0.1549 -0.1325 -0.0914
16177W        W31986  17.125  13.315  10.837  0.0942 -0.2801 -0.1556
16178W        W31987   2.252   0.087   4.417  0.0520  0.4003  0.2502
16179W        W31988   4.935  15.626  14.163 -0.0526  0.0843  0.2086
16180W        W31989  10.242   9.019  14.393  0.1013  0.3580  0.2332
16181W        W31990  12.572  17.914  16.542  0.0391 -0.0324 -0.1181
16182W        W31991   7.156   6.872   1.826 -0.0406  0.2210  0.1382
16183W        W31992   8.193  13.884   4.726  0.1356 -0.2643  0.2711
16184W        W31993   1.943   3.875  14.130  0.2303  0.1276  0.2612
16185W        W31994   8.413   8.475  16.285  0.1496 -0.1156  0.1302
16186W        W31995   4.849   2.671  14.289  0.2751 -0.0162  0.0227
16187W        W31996   4.433   2.241  13.437 -0.0381  0.0280  0.1325
16188W        W31997   4.131  15.088  13.825 -0.0115  0.0060  0.1670
16189W        W31998   6.347   8.934  14.965 -0.0049  0.0054  0.0604
16190W        W31999   7.794   2.226  12.367 -0.3479 -0.1294 -0.2078
16191W        W32000   6.640   0.731   1.102 -0.1487  0.2988  0.1860
16192W        W32001  16.100   6.664  15.003  0.1032 -0.2319  0.0559
16193W        W32002   1.533  14.744   5.036 -0.3040  0.1005 -0.0046
16194W        W32003  17.538   7.801   0.237 -0.1560  0.4692 -0.0465
16195W        W32004   0.816  14.817  16.055  0.2221 -0.0301  0.0781
16196W        W32005   8.660  11.189  11.009  0.1392  0.0387 -0.1669
16197W        W32006   3.513   1.029   3.825 -0.0618 -0.3144 -0.0616
16198W        W32007  14.726   2.326   4.082 -0.3542 -0.0424 -0.1794
16199W        W32008   1.291  14.244  12.156 -0.1048 -0.0307 -0.1737
16200W        W32009   8.131   4.262  12.542  0.1548 -0.3015 -0.2106
16201W        W32010   1.231  11.982  13.946 -0.0429 -0.1103 -0.3850
16202W        W32011  11.735  15.837  16.502  0.1211 -0.0229  0.1248
16203W        W32012   3.176  12.921   4.368  0.2269  0.1713  0.3471
16204W        W32013  14.211  17.075   1.055 -0.1144 -0.1177 -0.1488
16205W        W32014   3.261   0.940  13.996 -0.1150  0.0004 -0.1579
16206W        W32015   4.316   8.389  11.139 -0.0663 -0.1163 -0.2927
16207W        W32016  11.951   0.888   3.423 -0.2896  0.0979 -0.1125
16208W        W32017  13.012  16.822   3.232 -0.1544  0.2556 -0.0570
16209W        W32018  10.902   8.701  10.521 -0.1159  0.1016 -0.1363
16210W        W32019  17.345   2.194   1.379 -0.0992  0.0914 -0.1998
16211W        W32020   7.127   9.582   4.436  0.0287 -0.0086 -0.0953
16212W        W32021   5.527   3.178  14.854  0.1350  0.1623  0.2152
16213W        W32022   9.164   5.851   2.506 -0.0338 -0.3557  0.0476
16214W        W32023   4.251   4.451  13.797 -0.3165 -0.1200  0.3615
16215W        W32024  14.560   8.324  15.818  0.1808 -0.0895  0.0379
16216W        W32025   4.071  14.560  11.902  0.1092 -0.3005  0.3952
16217W        W32026  10.825   7.363  14.736 -0.1597  0.2816 -0.2500
16218W        W32027   0.989   2.215  12.681  0.0224  0.0966 -0.0381
16219W        W32028   6.921  15.610  16.427 -0.0263 -0.1753  0.0412
16220W        W32029   2.319   8.756  13.943  0.3650  0.0330  0.3064
16221W        W32030   4.496   7.540   4.730 -0.0544 -0.3349  0.2668
16222W        W32031  14.229   1.948   2.950  0.3929 -0.0386 -0.2250
16223W        W32032   4.853  17.332  13.814  0.0171 -0.1231  0.1545
16224W        W32033   1.441   9.884   3.341 -0.1867 -0.0959 -0.1779
16225W        W32034   3.239  16.170   1.688  0.1592  0.1869 -0.0894
16226W        W32035  15.052  10.674  12.359  0.0027 -0.2443 -0.0518
16227W        W32036   9.605   1.319   5.698  0.1092  0.1135 -0.0666
16228W        W32037   7.695   2.313   5.083  0.1548 -0.1176 -0.1547
16229W        W32038   3.763  17.379  15.641  0.2336 -0.1869 -0.0432
16230W        W32039   2.804  15.685  14.850  0.1113 -0.3947  0.1411
16231W        W32040  16.341  10.236   1.855 -0.2138 -0.0574 -0.3953
16232W        W32041  14.646   0.816  13.858 -0.1314 -0.2443  0.1433
16233W        W32042   5.741  14.207   3.734 -0.0518 -0.0833 -0.3083
16234W        W32043   5.465  15.799  13.453  0.2250  0.2445  0.2147
16235W        W32044   8.999  11.736  12.694  0.2798  0.1126 -0.0240
16236W        W32045  16.402   0.561  13.388 -0.2364  0.0212 -0.0331
16237W        W32046  15.011  16.329   4.118 -0.0282  0.0353 -0.1109
16238W        W32047   4.641   8.922  15.201 -0.1863 -0.4027 -0.3253
16239W        W32048  11.124   7.537   3.952  0.1107  0.2968  0.3395
16240W        W32049   6.671  12.170  11.696 -0.0313 -0.0785  0.1236
16241W        W32050   9.526   8.806  11.718 -0.0693  0.1749  0.1268
16242W        W32051  11.733   4.044   5.842  0.2093 -0.2187  0.2577
16243W        W32052   4.127   2.320   3.981  0.0139 -0.1020 -0.3201
16244W        W32053  14.416   1.913   3.815  0.0515  0.1437  0.2296
16245W        W32054   4.630   9.570   2.801 -0.0525  0.2658 -0.2424
16246W        W32055  17.439  14.929   1.898  0.4466 -0.0589 -0.1521
16247W        W32056  17.954  13.359  12.466  0.2051 -0.1419  0.3221
16248W        W32057   1.098   0.837   0.860 -0.0875 -0.3323  0.1809
16249W        W32058   8.551  13.395   3.441  0.2153 -0.0152  0.2467
16250W        W32059  17.739  10.319   5.466 -0.1295  0.0203  0.2046
16251W        W32060  12.606  10.924  13.771  0.0126  0.0444 -0.1117
16252W        W32061  17.216   6.713   1.922 -0.1401  0.1847 -0.0349
16253W        W32062  16.716  10.477  12.122 -0.0313  0.2015 -0.0330
16254W        W32063  15.452   3.478   2.091 -0.0566 -0.0889  0.0678
16255W        W32064   3.144   2.001   3.711 -0.1618 -0.2772 -0.5422
16256W        W32065  10.483  10.695  13.925  0.0247  0.0656  0.0727
16257W        W32066   5.308   6.056   0.200  0.2216  0.0897 -0.2836
16258W        W32067   3.639   3.404   1.541  0.1528 -0.4239 -0.1256
16259W        W32068  10.131   2.483  13.638  0.1014  0.1289  0.0385
16260W        W32069  15.399   1.732   4.244 -0.0362  0.1016 -0.0093
16261W        W32070  12.102  11.750  12.726 -0.0256 -0.0324 -0.0262
16262W        W32071  13.400   8.459   4.241  0.0555  0.1399  0.1870
16263W        W32072  10.433  12.928  12.056  0.0916  0.1365 -0.0553
16264W        W32073   6.188   3.436  13.162  0.0279  0.0718  0.0894
16265W        W32074   0.086   7.085   3.872  0.2180  0.0359  0.0690
16266W        W32075   1.369   5.490   4.147 -0.2266 -0.0040  0.3006
16267W        W32076  14.874   5.017   1.706 -0.0838  0.3705 -0.0095
16268W        W32077   9.569  15.940  14.907 -0.1613  0.0089  0.0824
16269W        W32078   7.589  14.638  14.755 -0.2669 -0.0049  0.2516
16270W        W32079  12.782  10.623  12.920 -0.1372  0.0317 -0.3111
16271W        W32080  13.542   8.965   4.352 -0.1555  0.0014 -0.0959
16272W        W32081  10.108   7.216  14.529 -0.1367 -0.0575  0.0465
16273W        W32082   1.076   5.768   1.720  0.1052  0.1458  0.0004
16274W        W32083  17.332   2.678   0.240 -0.0951  0.0652 -0.2904
16275W        W32084   7.198   4.645   1.848 -0.0541 -0.0906 -0.1467
16276W        W32085  14.090  11.387   2.398  0.1925 -0.2211  0.0815
16277W        W32086   6.231  12.460  11.357  0.1066  0.0902  0.2516
16278W        W32087   6.885   9.361   1.743 -0.0504 -0.3154  0.2127
16279W        W32088  15.325   5.847  13.464  0.2307 -0.2677 -0.0815
16280W        W32089  15.120  17.334  15.607  0.2760  0.4100 -0.3310
16281W        W32090  12.249  13.676  12.143 -0.0233  0.3863 -0.0498
16282W        W32091   5.165   8.345  15.016 -0.2217 -0.3793 -0.0515
16283W        W32092  11.957  11.926   3.991 -0.1618  0.0912  0.0157
16284W        W32093  16.399   5.366  12.943  0.0363  0.0586  0.1434
16285W        W32094   9.369  15.747  16.602  0.0861  0.1115  0.1140
16286W        W32095  10.534   9.566  12.004 -0.2775  0.0810 -0.0314
16287W        W32096   5.896  15.605  11.509  0.0557  0.0607 -0.2775
16288W        W32097  17.091   7.483   0.139  0.1641  0.0427 -0.1133
16289W        W32098   6.730   3.135   4.023  0.0451  0.0123  0.0366
16290W        W32099  13.152   2.005   3.479  0.1846 -0.0367  0.1567
16291W        W32100  16.138  14.740  12.339  0.0370 -0.0426  0.1165
16292W        W32101   3.410  10.486  14.471  0.2292  0.0218 -0.2283
16293W        W32102   9.522  14.718  13.901  0.0976  0.0065 -0.0740
16294W        W32103   6.805  10.032   4.230 -0.0230 -0.2610  0.0070
16295W        W32104   2.898  17.748  16.531 -0.1233  0.0764 -0.1347
16296W        W32105  11.968  10.747  14.483 -0.0525  0.1165 -0.1600
16297W        W32106   6.245   1.855  16.604 -0.4465 -0.0989  0.1774
16298W        W32107  12.101   3.818  11.954  0.1303  0.2323  0.1796
16299W        W32108   5.374   8.049   2.743 -0.0956 -0.3005  0.0095
16300W        W32109  16.648   2.442  13.729  0.3139  0.0285  0.1552
16301W        W32110  14.477   1.565  13.653 -0.0589  0.2247 -0.0683
16302W        W32111   9.787  14.277   0.614  0.0414  0.2834 -0.0856
16303W        W32112  11.361   8.181  14.441 -0.0605 -0.2426 -0.2906
16304W        W32113   4.096  14.183   1.159  0.3642 -0.1336  0.2278
16305W        W32114  14.067  11.843  12.235 -0.1293  0.1448 -0.3135
16306W        W32115   5.398  15.324   5.447 -0.1450 -0.0614  0.0029
16307W        W32116   1.020  12.714  12.123  0.0192 -0.1148  0.2884
16308W        W32117   0.719  11.644   0.542 -0.0761  0.1095  0.2331
16309W        W32118  16.670   5.548  13.828 -0.1075  0.0405 -0.2964
16310W        W32119  17.202   8.166   2.623 -0.0092  0.1516 -0.2467
16311W        W32120  10.028  14.576   1.712 -0.1743 -0.1068 -0.0136
16312W        W32121  10.402   0.601  12.005 -0.2148 -0.2136  0.1986
16313W        W32122  14.977   5.853  11.464  0.1544 -0.0590 -0.0222
16314W        W32123   1.842   4.542  15.555  0.0651  0.0733  0.1031
16315W        W32124   0.182   7.631   1.314 -0.1290 -0.3117  0.0070
16316W        W32125  14.070   3.561   2.914 -0.0976  0.0379 -0.0260
16317W        W32126  13.657  11.257  14.467 -0.2741 -0.0225 -0.1145
16318W        W32127   2.031   8.607  13.571  0.1651 -0.1625 -0.0217
16319W        W32128   0.884   2.586  12.033  0.2370 -0.1327 -0.1916
16320W        W32129  12.611  13.344   5.636 -0.1758 -0.3815  0.4839
16321W        W32130  15.349   0.439  16.270  0.1429 -0.3167 -0.0386
16322W        W32131  16.426   5.595  16.120  0.1129  0.0873 -0.5828
16323W        W32132   8.898  14.260   2.492  0.1647 -0.3080 -0.0841
16324W        W32133   7.121   3.797  13.501 -0.3466 -0.1443  0.0626
16325W        W32134   2.157   0.161   2.813  0.0983  0.2213  0.0951
16326W        W32135  13.506   8.013  14.617 -0.0227 -0.2608 -0.0092
16327W        W32136   2.034   8.752   2.758 -0.0433  0.0132  0.1870
16328W        W32137   7.298  15.683  12.062  0.0194  0.0449 -0.1745
16329W        W32138  15.293  11.018  15.596 -0.1893  0.3886  0.1880
16330W        W32139   4.072  12.804  11.492  0.0843  0.2474 -0.0664
16331W        W32140  13.371  14.158  13.861 -0.0663 -0.2131  0.0885
16332W        W32141   6.227   2.510   2.646  0.0307 -0.3772  0.1257
16333W        W32142  14.143  17.720   0.386  0.0105 -0.0241 -0.0980
16334W        W32143  10.229   2.328   5.569  0.1671  0.1199  0.1058
16335W        W32144   6.557   0.068  15.135  0.0698  0.1756 -0.2364
16336W        W32145  17.120   6.894   4.052  0.0886 -0.0698  0.0911
16337W        W32146   8.337   3.235  15.680  0.0243  0.0241  0.2297
16338W        W32147  17.644  16.882   1.383  0.0675 -0.0221 -0.2241
16339W        W32148   8.834  15.383  12.415  0.0320 -0.1825 -0.0214
16340W        W32149  17.858   1.327  13.420  0.1342  0.0192  0.0140
16341W        W32150   5.001   1.714  12.151 -0.2620 -0.0217  0.0023
16342W        W32151   7.328   1.951  12.251  0.1735  0.3548 -0.0747
16343W        W32152   7.651   6.142   5.104 -0.1075  0.0306  0.1766
16344W        W32153   7.853   1.543  16.338  0.0465  0.1962  0.1616
16345W        W32154   7.604   4.810   2.614  0.4119  0.0780 -0.4204
16346W        W32155  10.328   5.519  14.301 -0.0699 -0.3071 -0.3548
16347W        W32156  10.850  17.296   4.886  0.0123 -0.0979 -0.0434
16348W        W32157   7.548   7.139  11.082 -0.0473 -0.4023 -0.0309
16349W        W32158   6.681   5.626  16.060  0.3648 -0.0383 -0.1662
16350W        W32159   3.956  10.682   0.799  0.0620  0.0114 -0.0026
16351W        W32160   8.371   9.156  12.126 -0.0076 -0.0783 -0.2388
16352W        W32161   2.479   8.475   4.565 -0.1261 -0.0964 -0.1141
16353W        W32162   8.926   7.067  12.571 -0.1192  0.3964  0.0851
16354W        W32163   8.991   6.087   5.673  0.2088 -0.1606 -0.0109
16355W        W32164   1.548   3.515   1.211  0.1370  0.4362 -0.0433
16356W        W32165  15.887  16.978   2.813 -0.0854 -0.2278  0.2125
16357W        W32166  12.778   7.523  12.355  0.2879 -0.2010  0.3000
16358W        W32167  16.852   1.515  13.320  0.1074 -0.0361 -0.1908
16359W        W32168  10.538   1.095   5.548  0.1076  0.1979  0.0060
16360W        W32169   3.055   0.656   0.014 -0.0371  0.2984 -0.0552
16361W        W32170   0.192  16.981   1.496  0.2127  0.2116  0.0589
16362W        W32171   2.637   8.463  14.635 -0.1937  0.2097  0.0643
16363W        W32172  17.650  10.192   3.892 -0.0767 -0.0289 -0.2741
16364W        W32173   9.070   2.898  13.432 -0.1615  0.1624 -0.0283
16365W        W32174   0.332  16.373   5.586  0.2187 -0.3057  0.1435
16366W        W32175  16.714  13.286  14.502  0.1718  0.3383 -0.2256
16367W        W32176  12.739  11.495   2.519  0.2232  0.0172  0.2772
16368W        W32177   8.460   6.216   3.932  0.0221 -0.1373 -0.1981
16369W        W32178  11.180  14.255   1.564  0.1851 -0.2340  0.0213
16370W        W32179  10.688  10.417  13.520 -0.2926  0.2343 -0.1822
16371W        W32180  17.521  16.178   4.284  0.1031 -0.0685 -0.2773
16372W        W32181  14.207   5.935  15.498 -0.1723 -0.0286 -0.0519
16373W        W32182   9.807  16.067   3.961  0.2580  0.3305  0.1602
16374W        W32183   8.831  13.835   2.204  0.0914 -0.2108  0.1199
16375W        W32184  10.596   9.635   1.163  0.1109 -0.1964  0.3673
16376W        W32185  14.767   8.642   4.332  0.2210 -0.2043 -0.2803
16377W        W32186  10.542   5.201   6.046  0.0353 -0.0406 -0.5158
16378W        W32187   9.487   6.528   0.530 -0.1043 -0.2500  0.0958
16379W        W32188  12.169   0.285  16.381 -0.1174  0.0164 -0.4942
16380W        W32189   3.990   2.564  16.120  0.0755 -0.0333 -0.4125
16381W        W32190  11.968   2.620  16.435 -0.2882 -0.0867 -0.1443
16382W        W32191   4.867  16.357  12.176 -0.0267 -0.1891 -0.0286
16383W        W32192  13.020  12.354   0.087 -0.0372 -0.0731 -0.0770
16384W        W32193   6.798   3.164   3.502  0.1229  0.1251  0.4982
16385W        W32194  17.411   8.582   4.595 -0.1610 -0.2803  0.0579
16386W        W32195   7.513  13.531  16.307 -0.2072  0.0653  0.1598
16387W        W32196  15.868   5.809  13.440 -0.1804 -0.0616 -0.1550
16388W        W32197   3.033   6.731   0.656 -0.1336  0.0162  0.0598
16389W        W32198  11.552  13.069   1.979  0.1139 -0.1048  0.2359
16390W        W32199   4.021   1.280   2.987 -0.2060 -0.0423 -0.0057
16391W        W32200  12.922  10.911   3.256 -0.2205 -0.1272  0.1527
16392W        W32201   1.807  12.152  16.508 -0.1240 -0.2850 -0.1645
16393W        W32202   9.221   3.954  11.851  0.0507  0.0623  0.1271
16394W        W32203  13.960   6.179  14.943  0.0876  0.2133  0.2164
16395W        W32204  14.427   1.628   0.447  0.2052 -0.1813 -0.0832
16396W        W32205  10.115  14.085  14.858 -0.1832  0.2201 -0.0758
16397W        W32206   6.461   5.602   2.486  0.1687 -0.1254  0.0044
16398W        W32207  14.942   7.619  15.636  0.0085  0.0868  0.5879
16399W        W32208  14.791   1.175  14.864 -0.0427 -0.0591  0.1502
16400W        W32209  16.251   7.081   1.188 -0.1820  0.0080 -0.3792
16401W        W32210  15.650  13.957   3.234 -0.1385 -0.0183  0.2981
16402W        W32211  10.142   6.728  11.817  0.2260 -0.0629 -0.1205
16403W        W32212  17.275   4.563  15.343  0.0312  0.1608 -0.1412
16404W        W32213   2.972  11.277  10.721  0.2200  0.0114  0.2684
16405W        W32214   8.595   3.517   0.918  0.3446  0.1139 -0.0628
16406W        W32215   5.681  10.445  16.065 -0.0857  0.1404 -0.0601
16407W        W32216  13.291  17.181   2.102 -0.1083 -0.0193 -0.1928
16408W        W32217  17.265   4.639   4.397  0.0988 -0.0405  0.0114
16409W        W32218  17.831  17.784   6.496 -0.0696 -0.0799  0.1341
16410W        W32219  15.935  11.427  16.038  0.0961  0.1565  0.1948
16411W        W32220  12.364   7.291   0.322  0.2572  0.2396  0.0235
16412W        W32221   9.006   5.147   1.667 -0.0858  0.2717 -0.1625
16413W        W32222  13.814   6.167   0.002 -0.0373 -0.4334  0.4691
16414W        W32223   6.983   4.452   4.396  0.0151 -0.0377  0.0672
16415W        W32224  14.369   7.300  13.858  0.0783 -0.1592 -0.0201
16416W        W32225   5.418   2.952   2.121  0.2099 -0.1965  0.1946
16417W        W32226   0.002  12.518   4.473  0.2020  0.1543 -0.0240
16418W        W32227   9.252   5.763   4.694 -0.1850 -0.0722 -0.2187
16419W        W32228   7.016   9.250   3.950 -0.1275 -0.1002 -0.1939
16420W        W32229   3.899   1.815   0.343 -0.2179  0.3299 -0.2411
16421W        W32230   3.539   9.782   5.059  0.0334  0.1483 -0.1301
16422W        W32231  15.268   0.276   1.149 -0.2183 -0.0327  0.0286
16423W        W32232  12.055  13.721  15.668 -0.1907 -0.1024  0.0560
16424W        W32233  13.846   2.388   4.212 -0.0638  0.0313  0.1245
16425W        W32234  12.851   6.608  13.530  0.0346  0.1670 -0.1007
16426W        W32235  11.976  12.197  12.572  0.1939 -0.2332  0.1382
16427W        W32236   0.781   4.660  15.618 -0.2276 -0.2774  0.0171
16428W        W32237   7.856  17.792  14.920  0.0232 -0.2672  0.1424
16429W        W32238   9.891  16.482   1.641 -0.0501 -0.2758  0.3124
16430W        W32239   5.273   8.784  13.356  0.2315 -0.0285  0.2433
16431W        W32240   8.686   0.287  16.211 -0.1190 -0.1742  0.1671
16432W        W32241   7.146  16.963   1.655 -0.0913 -0.2860  0.0713
16433W        W32242   0.835  13.747   2.438  0.1033 -0.2506 -0.4199
16434W        W32243  14.735   1.328   1.199  0.1566  0.3019  0.2226
16435W        W32244  11.856   8.049  15.756  0.1771  0.4106 -0.1458
16436W        W32245   0.527   5.910   3.818 -0.0384  0.2092  0.0867
16437W        W32246   7.464  16.690   1.336  0.0086  0.0491 -0.2387
16438W        W32247  17.387  14.037   1.851  0.0795 -0.0899 -0.2360
16439W        W32248   6.515   9.484   2.527  0.1721  0.2241  0.0256
16440W        W32249   1.452  17.133   5.667  0.0168  0.0015  0.0935
16441W        W32250  12.884  15.291  16.572  0.0469 -0.0665 -0.1299
16442W        W32251   1.479  12.315  11.387  0.1050  0.0304 -0.2754
16443W        W32252  13.746   3.765  15.191  0.2464 -0.4069 -0.1058
16444W        W32253   4.107  13.786  14.900 -0.0809 -0.1574 -0.2232
16445W        W32254  17.438   2.396   2.750 -0.2708  0.3274  0.0823
16446W        W32255   6.039  12.846  12.627 -0.0035  0.0834  0.1378
16447W        W32256  17.320  13.853   4.701 -0.0603 -0.0740  0.1312
16448W        W32257   1.023  15.605   1.439 -0.0294 -0.1948  0.0321
16449W        W32258   8.979   0.732  14.885 -0.1291 -0.1256 -0.0754
16450W        W32259   4.594  11.314   5.301  0.0579 -0.0683 -0.2558
16451W        W32260  16.638  15.594  15.318  0.2532 -0.0463 -0.0194
16452W        W32261  14.864   9.332  15.571 -0.1010  0.1697 -0.0675
16453W        W32262   7.355   0.086  14.300  0.3791 -0.0664 -0.0995
16454W        W32263  11.788   9.765  15.065 -0.0406 -0.1077 -0.2527
16455W        W32264   3.977  12.194  13.955 -0.1567  0.0084  0.1323
16456W        W32265   7.425   2.320   0.375 -0.0998  0.0623 -0.1546
16457W        W32266   1.557   8.766   0.912 -0.3064 -0.0246  0.0816
16458W        W32267   7.586   1.776   6.897 -0.0403 -0.1936  0.0825
16459W        W32268   9.673   3.356   1.526  0.0690 -0.4027  0.4782
16460W        W32269   2.999   9.973   4.310 -0.0368 -0.1472 -0.1475
16461W        W32270  17.416  17.451  15.709 -0.2121  0.3449  0.0961
16462W        W32271   0.562   3.600   2.908 -0.0646 -0.3381 -0.7779
16463W        W32272   2.772   7.096   0.371  0.0681 -0.1798 -0.0470
16464W        W32273  13.309   5.467   5.542 -0.0756  0.1643 -0.0751
16465W        W32274  15.705  12.938   2.367  0.0150 -0.1062 -0.0785
16466W        W32275  14.545  13.394   0.208 -0.2079  0.0368 -0.1590
16467W        W32276   9.862   6.410  16.479 -0.1085  0.0024 -0.1568
16468W        W32277  13.836  12.382   0.305 -0.0455 -0.0524  0.1365
16469W        W32278  11.032  14.901   1.962 -0.0202 -0.2258 -0.0889
16470W        W32279   6.246   5.957   0.626 -0.1977 -0.3722  0.4462
16471W        W32280   3.624  13.416   2.256 -0.2957  0.1288 -0.2189
16472W        W32281   7.948  13.743  14.810  0.1038 -0.1281 -0.3857
16473W        W32282   7.589  12.467  11.490  0.2372 -0.1906 -0.2673
16474W        W32283   1.556  17.037  11.220  0.1232 -0.1089  0.1433
16475W        W32284  12.040  16.391  12.985 -0.0925  0.0757 -0.0798
16476W        W32285  16.584  10.910   0.439  0.0064 -0.1955  0.1957
16477W        W32286   2.925  12.394  13.774  0.0249 -0.1953 -0.3311
16478W        W32287  16.764   8.555   3.301 -0.1375  0.2232  0.1238
16479W        W32288  15.148   3.996   1.238  0.0098  0.2361 -0.2323
16480W        W32289  14.016   1.347   0.340  0.2266 -0.0706 -0.0768
16481W        W32290   4.190   3.504   4.670  0.1009 -0.0781  0.1890
16482W        W32291   2.446  11.516  13.185  0.2542 -0.0000 -0.3294
16483W        W32292   1.078   9.798  16.131  0.2450 -0.3161 -0.2128
16484W        W32293  11.412   0.290   3.369 -0.2055  0.2267 -0.3993
16485W        W32294  15.317   3.951  13.831 -0.1810  0.1533 -0.0531
16486W        W32295  12.466   2.534  15.220 -0.2710  0.1830 -0.2596
16487W        W32296   2.203   7.942   1.066  0.1978 -0.1935  0.1745
16488W        W32297  11.702   3.414   5.296 -0.0194 -0.2402  0.2371
16489W        W32298  11.047   5.553   1.959  0.2008 -0.1216  0.1155
16490W        W32299  10.148   6.478   4.863 -0.2622  0.6175 -0.1194
16491W        W32300  17.419   5.302   5.157  0.1582  0.0334  0.1597
16492W        W32301   0.559   8.631  11.417 -0.1921 -0.0502 -0.3594
16493W        W32302  12.341  12.822   2.455 -0.3474 -0.1306  0.0125
16494W        W32303  13.074   8.778   4.056 -0.1078 -0.0742 -0.0517
16495W        W32304   6.659  10.998  11.159 -0.1586 -0.1852  0.1076
16496W        W32305   4.383  13.089   3.369  0.1875  0.0179 -0.0555
16497W        W32306   2.909  16.060   2.624 -0.3520  0.0497  0.0700
16498W        W32307   1.632  11.137  13.661  0.3175 -0.1284 -0.2072
16499W        W32308   9.141  14.931   1.525  0.2192 -0.0140  0.1343
16500W        W32309   5.827   2.055   3.785 -0.0915 -0.0616 -0.1255
16501W        W32310  17.320   0.859   2.991 -0.0345  0.0929 -0.0388
16502W        W32311   0.455  15.225   3.888 -0.1610 -0.2022  0.0379
16503W        W32312   2.780   0.681   1.361  0.2141 -0.0828  0.1230
16504W        W32313   8.943  17.422  12.924 -0.0938 -0.1693  0.2151
16505W        W32314   7.157  14.692   4.225  0.0909  0.6474 -0.1081
16506W        W32315   9.856   4.847  16.388  0.0856 -0.2474  0.1782
16507W        W32316  10.229   8.756  16.282  0.0072 -0.0438 -0.0299
16508W        W32317  10.024   2.141   0.743 -0.0761 -0.0701  0.1320
16509W        W32318  17.220   3.337  11.265  0.1518 -0.2086  0.0975
16510W        W32319   0.020  12.071  16.548  0.0417  0.1151  0.0431
16511W        W32320  15.341   1.113  11.020  0.2436  0.0147  0.2396
16512W        W32321  17.604   3.222  16.502  0.3177  0.0345  0.1551
16513W        W32322  11.968   2.982   2.489  0.0953 -0.0459 -0.1021
16514W        W32323  11.882   2.902  12.084 -0.3686 -0.1853  0.0700
16515W        W32324  14.703   5.658   2.889 -0.0873 -0.4655 -0.0986
16516W        W32325   4.961  17.704  11.157 -0.1090  0.1053  0.0678
16517W        W32326   1.993  17.117   4.469  0.1734  0.0018 -0.0933
16518W        W32327   5.741  13.375   4.755 -0.0342  0.0163  0.0161
16519W        W32328   6.382   3.177  14.239  0.0664  0.2762 -0.0438
16520W        W32329   3.358  15.522   5.047 -0.3881  0.0809  0.1018
16521W        W32330  12.763   8.388   1.676 -0.1041 -0.1933 -0.1971
16522W        W32331  11.969  14.005   5.129 -0.1695 -0.1218 -0.1192
16523W        W32332   1.618   8.090  13.060 -0.0433  0.1291  0.1678
16524W        W32333  15.173  15.619   6.500  0.1859  0.0983 -0.1113
16525W        W32334  17.838   0.570   1.782 -0.2397 -0.0403 -0.1754
16526W        W32335  13.343   3.734   0.242 -0.0663  0.2939 -0.1564
16527W        W32336   1.260  17.185   1.569  0.2898  0.3029  0.1660
16528W        W32337   3.477   9.603  15.416 -0.0063 -0.0694 -0.4820
16529W        W32338  12.081  17.838  15.437  0.0428  0.0940 -0.2097
16530W        W32339  12.130   8.899   1.622 -0.0633  0.2239  0.2586
16531W        W32340   5.637  17.528   1.690  0.2706 -0.0572  0.1482
16532W        W32341   5.638   6.028  15.084 -0.2745 -0.0484 -0.0491
16533W        W32342   6.141   3.009   2.529 -0.1679  0.4154  0.0428
16534W        W32343  17.489   8.681  12.588 -0.1775  0.4045 -0.1465
16535W        W32344  11.731   4.476  10.804  0.2729 -0.2336  0.1778
16536W        W32345   8.097   7.123   5.394 -0.2658  0.1250  0.0153
16537W        W32346   4.244  14.418   4.977  0.0487 -0.3124  0.1115
16538W        W32347   7.215   2.688  11.815  0.3161  0.0211 -0.0555
16539W        W32348   2.349   0.352  16.467  0.0212 -0.2277 -0.0116
16540W        W32349   7.080   0.797  12.119 -0.0338 -0.0978 -0.1629
16541W        W32350  16.277   6.190  12.341 -0.2130  0.2664 -0.2362
16542W        W32351  12.769   8.220   5.855 -0.2541  0.1385  0.1161
16543W        W32352   7.374   5.025   5.810 -0.3068 -0.1354  0.2710
16544W        W32353   5.963  16.520   4.851  0.0492 -0.1995 -0.0108
16545W        W32354  15.351  12.900   3.303  0.1095 -0.0944 -0.0341
16546W        W32355   9.042   5.839  16.509 -0.0839 -0.3890  0.1232
16547W        W32356   1.804   9.342  14.712 -0.1717 -0.2429  0.1346
16548W        W32357   4.920   7.729   0.413 -0.0479  0.2329 -0.2899
16549W        W32358  13.888   1.246   6.380 -0.0897 -0.0125 -0.1538
16550W        W32359  13.988  11.121   1.114 -0.0670 -0.1882  0.4874
16551W        W32360   1.887  10.367   4.315  0.0221 -0.0471  0.1286
16552W        W32361   6.605   9.369  11.629  0.0646 -0.1276  0.1651
16553W        W32362   2.058  12.607  14.409 -0.1726  0.0214 -0.0868
16554W        W32363   1.215   0.093   0.551  0.0135 -0.0740  0.0164
16555W        W32364   0.345   7.296  13.109 -0.2629  0.1831 -0.0936
16556W        W32365   9.524   0.060  14.134 -0.1262  0.2019  0.2611
16557W        W32366  13.120  13.348   2.145  0.1339 -0.0830 -0.0595
16558W        W32367  16.833   6.385   3.552 -0.2984  0.1747 -0.3927
16559W        W32368   3.031  16.327  14.968 -0.1824 -0.1243  0.0922
16560W        W32369  16.989  16.189   1.675  0.1634 -0.0643 -0.2717
16561W        W32370   7.148  13.040   4.621  0.0283 -0.1585 -0.1073
16562W        W32371   6.102   5.390  12.053 -0.0968  0.1008 -0.1367
16563W        W32372  12.190  14.812  13.804  0.1242  0.0059 -0.0987
16564W        W32373   5.966   5.073   4.587  0.0793 -0.1513 -0.2451
16565W        W32374   8.534  12.014   1.552 -0.2365 -0.1684 -0.2646
16566W        W32375  14.728  14.643   5.783 -0.1621 -0.2268  0.0990
16567W        W32376  17.901   7.200   1.126 -0.0456  0.0058  0.0503
16568W        W32377   6.378  13.452  13.672  0.0988  0.2132 -0.0180
16569W        W32378  15.648  12.303  13.756  0.1539 -0.1070  0.1407
16570W        W32379  15.575  13.273   5.034  0.0924 -0.1922  0.0637
16571W        W32380  12.864   7.196   2.609 -0.1914 -0.0128 -0.0152
16572W        W32381  15.916  14.232  15.781  0.1464  0.2585  0.1254
16573W        W32382  12.380   5.535   5.379  0.0098  0.0306 -0.3121
16574W        W32383  14.499  10.978   2.440  0.0987 -0.0841 -0.3104
16575W        W32384   1.871   8.166   5.777  0.0852  0.0823 -0.1366
16576W        W32385   0.251  14.899   3.577  0.0644 -0.0218  0.1418
16577W        W32386   9.890  10.855  15.318  0.1099 -0.2178  0.1162
16578W        W32387  13.241  14.925  14.757 -0.0934 -0.2504  0.0031
16579W        W32388   7.958   9.627  11.042  0.0868  0.2897 -0.1829
16580W        W32389  15.185   7.085   4.039  0.0795 -0.1161  0.1494
16581W        W32390   5.424  11.022   0.419  0.2822  0.1326  0.0730
16582W        W32391  13.734  12.131  14.316 -0.0912 -0.0854  0.0365
16583W        W32392   3.621  13.622  12.584  0.0331 -0.1148  0.0927
16584W        W32393  15.071   1.310  16.462  0.0062 -0.0316  0.1410
16585W        W32394   5.057  14.598   4.465  0.0576  0.0545  0.1830
16586W        W32395  17.160   7.258  12.187  0.1709  0.0765 -0.2182
16587W        W32396   9.707   8.187  14.086 -0.2144 -0.0355 -0.2726
16588W        W32397  15.092   4.738   0.592 -0.1845  0.1042  0.3499
16589W        W32398   7.167   5.738   3.072  0.1189 -0.0755  0.0224
16590W        W32399  15.953  14.024   3.640 -0.1296  0.3444 -0.0657
16591W        W32400   9.712   1.336  14.667  0.0207 -0.1492  0.3672
16592W        W32401  15.344   3.633   0.312 -0.1103 -0.2318  0.0277
16593W        W32402  17.451   7.248   4.753 -0.0056 -0.0537  0.1499
16594W        W32403   3.361   0.441  11.684 -0.0084  0.2610 -0.1181
16595W        W32404   5.446  13.303   5.186  0.2236  0.0049 -0.0407
16596W        W32405  14.970   0.270  16.030  0.0661  0.1978  0.0685
16597W        W32406  14.513  11.803  12.934  0.2752  0.4266 -0.0462
16598W        W32407   9.268  16.620  15.004 -0.2934 -0.3545 -0.2648
16599W        W32408   7.738   4.195   3.853 -0.0965  0.1181 -0.1377
16600W        W32409  15.891  17.195  15.075 -0.0741 -0.2303  0.2302
16601W        W32410   6.960  10.014  16.152 -0.1290 -0.0027  0.3207
16602W        W32411   4.427  11.609  11.149  0.1056  0.1396  0.0909
16603W        W32412  13.167  12.186  11.327 -0.1491  0.1191 -0.2986
16604W        W32413  10.546  15.005   5.254  0.1072 -0.2086  0.1459
16605W        W32414   2.794  10.673  16.548 -0.1939 -0.2114 -0.1936
16606W        W32415  17.150  14.437   2.044 -0.1533  0.1427  0.2193
16607W        W32416   9.151  12.810   1.479  0.0438  0.1057 -0.0408
16608W        W32417   8.395  11.639  11.721 -0.2459  0.0222  0.3137
16609W        W32418   8.958  16.939  13.016 -0.0064  0.0815 -0.0070
16610W        W32419  17.823   6.349   4.918 -0.0095 -0.1844 -0.0788
16611W        W32420   8.907  15.213   5.136 -0.1104 -0.3945 -0.0987
16612W        W32421  15.436  17.552   3.661 -0.1487 -0.4097 -0.0423
16613W        W32422   2.980   7.848  14.531 -0.2652  0.0985  0.1084
16614W        W32423   8.061   6.222   0.354  0.0830 -0.0002 -0.1730
16615W        W32424   9.431   9.065   2.392 -0.1229  0.0567 -0.1848
16616W        W32425   2.604   9.604   0.429  0.3051  0.2015  0.0229
16617W        W32426  11.592   1.304   3.312 -0.1081 -0.2222  0.0026
16618W        W32427   3.179  12.190   0.603 -0.0042  0.2255  0.0632
16619W        W32428  14.781   4.938  12.052 -0.2601 -0.1816 -0.1138
16620W        W32429  14.767  16.193  13.953 -0.0847  0.1343 -0.0641
16621W        W32430   3.612   0.492  15.836  0.2240 -0.0021  0.0757
16622W        W32431   8.368   2.081  14.604  0.0215  0.0553 -0.0483
16623W        W32432  11.376   3.305  13.208  0.1195  0.1437  0.0574
16624W        W32433  16.676   6.247   0.142  0.2187  0.2930  0.1325
16625W        W32434  12.024   6.111   4.155  0.0315  0.0737 -0.0249
16626W        W32435   1.504   2.558  14.287 -0.0911 -0.1631  0.0802
16627W        W32436   8.170   8.726  15.811 -0.3418 -0.0657  0.2823
16628W        W32437  11.667  12.346  15.653 -0.1423  0.0883  0.1285
16629W        W32438   0.230  17.748   0.602  0.0576  0.0929 -0.1044
16630W        W32439   5.035   0.715  12.445 -0.1744 -0.1123 -0.2991
16631W        W32440  12.316  16.452   5.769 -0.1622  0.1307 -0.0357
16632W        W32441   9.067   2.702   4.561  0.1768  0.0886 -0.1678
16633W        W32442  15.931  17.749   0.828  0.2536 -0.0955  0.1972
16634W        W32443   8.094   9.422   2.815 -0.1937  0.0190 -0.0598
16635W        W32444   5.508  10.794  16.657 -0.0477 -0.0098  0.2273
16636W        W32445  17.047   1.434   4.663  0.2453 -0.1602  0.0196
16637W        W32446   9.730   1.800   4.166 -0.0704  0.1360 -0.0262
16638W        W32447   5.049  10.888  15.865 -0.1037 -0.0724 -0.1552
16639W        W32448  10.010   0.574   0.874  0.0261 -0.0913 -0.4159
16640W        W32449   6.061  10.905  11.962  0.1439  0.3227  0.2178
16641W        W32450  13.649   4.958  12.001  0.2587  0.2392 -0.0297
16642W        W32451  13.133   8.583  15.885  0.2591 -0.0253  0.1559
16643W        W32452   5.819  17.354   5.142 -0.0043 -0.2403  0.0466
16644W        W32453  12.382  13.398  13.132  0.3124 -0.1281  0.1008
16645W        W32454   5.438  13.853   3.421 -0.0313 -0.0906  0.0332
16646W        W32455  14.592  15.073  14.555 -0.1914  0.0288 -0.2323
16647W        W32456   9.483   3.904   4.396  0.1305 -0.1256 -0.0749
16648W        W32457  16.195  10.205   1.080  0.1418 -0.1121  0.0246
16649W        W32458  16.894  11.068  10.573 -0.0808  0.0636  0.0768
16650W        W32459  16.938  15.060  16.455  0.0760  0.2865 -0.0147
16651W        W32460   4.359   3.995   4.575 -0.3711 -0.1180 -0.2553
16652W        W32461   5.110   2.328  14.701 -0.1365  0.2632  0.3459
16653W        W32462  17.229   6.674  16.178 -0.1134 -0.1405  0.1123
16654W        W32463   6.716   1.000   3.509 -0.0686 -0.1540  0.0606
16655W        W32464   2.072  15.841   5.493 -0.1457  0.1034 -0.0985
16656W        W32465   2.903   1.270  14.785 -0.1992  0.1862 -0.2734
16657W        W32466   2.389   1.598   4.559 -0.0577 -0.1097  0.0738
16658W        W32467  16.377   5.292  10.394  0.1868  0.0565  0.0648
16659W        W32468   5.610   7.879  12.698 -0.0910  0.1255 -0.2704
16660W        W32469   8.011   6.379   4.894  0.1592 -0.0603  0.2075
16661W        W32470  12.732   0.539  15.411 -0.0797 -0.0036  0.0931
16662W        W32471   4.723  17.144   1.811 -0.0158 -0.0667  0.2661
16663W        W32472   8.808   5.246   5.535 -0.1355  0.3590  0.0581
16664W        W32473  12.989   4.032   5.663  0.2877 -0.1147  0.0847
16665W        W32474   0.746  16.657  14.979 -0.0762  0.0370 -0.1154
16666W        W32475   7.961   2.333   2.064 -0.2808  0.4073 -0.0327
16667W        W32476   5.202  11.163  11.307 -0.0026 -0.2354  0.0225
16668W        W32477   8.759   1.958   5.829 -0.1904 -0.2030  0.3455
16669W        W32478  11.583  15.412   5.396  0.1804  0.0943  0.1193
16670W        W32479   6.426   6.650   3.468 -0.1753 -0.0600  0.0298
16671W        W32480  10.804  15.204  15.373  0.0455 -0.0791 -0.2098
16672W        W32481   2.399   0.519   2.621  0.0908  0.3440  0.0490
16673W        W32482  12.725  11.528   0.165 -0.0869 -0.1841 -0.0403
16674W        W32483   0.769  14.827   2.722  0.1121  0.2918 -0.1102
16675W        W32484   3.138  14.697  14.042  0.1093 -0.1370  0.0169
16676W        W32485  16.577  11.829   1.546  0.1199  0.3500 -0.2063
16677W        W32486  14.669   9.495   4.220 -0.0546 -0.1944 -0.3261
16678W        W32487   3.470   3.055   1.995  0.1347 -0.1471 -0.0810
16679W        W32488   5.571  17.042   1.826  0.1941  0.0522  0.2856
16680W        W32489   5.160  13.658  14.933  0.1481  0.1794  0.2299
16681W        W32490   9.192   8.882  16.404  0.0125  0.1435  0.0097
16682W        W32491  10.739   1.701   2.903  0.0499  0.1661  0.1211
16683W        W32492   1.993  17.879   0.174 -0.0440 -0.1243  0.1736
16684W        W32493  17.958   0.756  14.769  0.0073  0.2598 -0.1071
16685W        W32494  12.985  13.446  14.281  0.0175  0.0860  0.0441
16686W        W32495   9.427   2.778  16.270  0.0591 -0.1687  0.1716
16687W        W32496   3.511   2.389  16.119 -0.0152  0.3377 -0.2617
16688W        W32497  13.362  16.076   5.563 -0.1050  0.2215 -0.0254
16689W        W32498   3.214  15.369  14.692 -0.0879 -0.0023  0.1731
16690W        W32499  17.169   9.131   6.129  0.2639 -0.0070 -0.0088
16691W        W32500  15.409  13.939   1.790  0.1371 -0.0129  0.1476
16692W        W32501   6.400   9.412   0.052 -0.2776  0.1891  0.0667
16693W        W32502  11.519   6.477   0.522 -0.1649  0.2789  0.1285
16694W        W32503  14.280  10.222  13.643 -0.1602 -0.0823  0.0580
16695W        W32504  12.986  17.407   1.729 -0.2883 -0.1535  0.1437
16696W        W32505  17.847  15.395   0.108  0.0810 -0.0517 -0.0196
16697W        W32506   9.600   6.280  14.196 -0.0734 -0.1959  0.0703
16698W        W32507   7.363  12.819  12.582 -0.1460  0.0664 -0.0850
16699W        W32508  15.835  16.565   5.275  0.0901 -0.0578  0.1934
16700W        W32509   6.025   6.772   0.933  0.1877 -0.2933  0.0116
16701W        W32510  16.569   9.505   4.300  0.1932  0.2569  0.2234
16702W        W32511  14.801  12.978  13.738  0.0268 -0.0638  0.2738
16703W        W32512   6.904  16.237   5.614 -0.2269  0.0572  0.0509
16704W        W32513  13.451   7.034   4.668  0.0081 -0.0663 -0.0800
16705W        W32514  15.637   4.833  15.112 -0.4213  0.3566 -0.0259
16706W        W32515  12.141   3.880   2.119 -0.1846 -0.0207  0.0603
16707W        W32516   2.414  15.542  12.580  0.3945  0.3466 -0.0093
16708W        W32517  14.122  14.551   5.931  0.0408 -0.2845 -0.1615
16709W        W32518  13.224  11.541   2.358 -0.2466 -0.1957 -0.0858
16710W        W32519   4.012  10.662  15.789 -0.0972  0.0524  0.1408
16711W        W32520   9.308   6.879   1.999  0.2116  0.0044 -0.0164
16712W        W32521   3.997  11.949   1.235 -0.3611 -0.0064  0.0197
16713W        W32522  15.472   1.289   1.873  0.0200  0.0263 -0.0915
16714W        W32523  14.085  15.477   5.463 -0.1243 -0.0799 -0.0964
16715W        W32524   6.600   1.813   1.693 -0.2738  0.2052  0.1376
16716W        W32525  17.794  15.009  15.400 -0.2432  0.0487 -0.0425
16717W        W32526   8.944   8.704   3.031 -0.2691  0.1788  0.0562
16718W        W32527   8.125   1.389   3.258  0.2893  0.1129 -0.1341
16719W        W32528   3.483   6.475   0.336  0.1273  0.0381  0.0948
16720W        W32529   1.910   9.799  14.882 -0.0987  0.2088 -0.0278
16721W        W32530   9.941   6.705  15.570  0.1066  0.3200 -0.0613
16722W        W32531  17.560  16.605  12.785  0.0753  0.0367  0.2189
16723W        W32532  12.513   0.184  12.972  0.5861 -0.0493 -0.3456
16724W        W32533  15.784  13.723  12.331 -0.2568 -0.4372 -0.1419
16725W        W32534   5.193   3.892  16.497 -0.1048 -0.0679  0.2315
16726W        W32535  13.188  16.423   3.620  0.0438 -0.1224  0.2638
16727W        W32536   9.120  11.451   0.172  0.3152  0.3631  0.0915
16728W        W32537  14.579   0.150  14.072  0.3490  0.0597 -0.1008
16729W        W32538   4.771  15.777   0.873  0.0876 -0.4080 -0.1369
16730W        W32539  12.236  11.424  15.859 -0.1166 -0.1564 -0.0379
16731W        W32540  16.908   0.201  11.702 -0.2439  0.1896 -0.0036
16732W        W32541  13.416  15.079   2.225 -0.0273  0.1351  0.2809
16733W        W32542   6.428  17.162   1.056  0.0302 -0.1153 -0.0462
16734W        W32543   9.653  17.901  16.219 -0.1540  0.1952 -0.0075
16735W        W32544   8.854   5.832   5.228  0.0704  0.1550 -0.0199
16736W        W32545   8.877   8.978  16.083  0.0205 -0.2374 -0.0231
16737W        W32546   6.745  16.208  14.855  0.0919 -0.1264 -0.1535
16738W        W32547  10.218   9.619  15.245 -0.0445  0.0082  0.3295
16739W        W32548  12.790  16.700   4.643 -0.4376  0.3646  0.3245
16740W        W32549  17.523  11.098   4.286 -0.2577 -0.1006 -0.3572
16741W        W32550  17.689   2.955  16.031  0.0123 -0.2692 -0.0977
16742W        W32551   4.951   3.178   4.245  0.2994 -0.0267 -0.0133
16743W        W32552  11.312  10.270  16.618  0.1015  0.0477 -0.1335
16744W        W32553   3.410   3.306   3.509  0.0290  0.4651  0.3551
16745W        W32554  16.829  17.864   4.845 -0.3313 -0.0122 -0.1064
16746W        W32555  13.506  10.543   2.727  0.0147  0.0370 -0.1932
16747W        W32556   3.042  14.448   0.277  0.0510  0.0371 -0.0627
16748W        W32557   0.501  13.408  16.141  0.0923  0.0410  0.0718
16749W        W32558   8.503   2.004  11.560  0.0660  0.0227 -0.1441
16750W        W32559  16.306   1.666   0.268  0.2260 -0.1406 -0.1829
16751W        W32560   7.271  12.295  14.641  0.3975 -0.1393  0.1962
16752W        W32561   0.347   1.415  15.218 -0.0766 -0.0011 -0.1631
16753W        W32562  11.940   8.154   3.551  0.1699 -0.1894 -0.1390
16754W        W32563  12.004  15.392   4.376  0.2832 -0.0377  0.0781
16755W        W32564   5.612  11.538  12.136 -0.2320 -0.3446 -0.0033
16756W        W32565  10.811   1.775  10.842 -0.1504 -0.1973 -0.2600
16757W        W32566  10.123   0.110  14.879 -0.2978  0.2035 -0.1741
16758W        W32567  12.929  11.729   2.035  0.0540  0.1450 -0.1351
16759W        W32568  11.391   2.445  13.608 -0.0701 -0.0651 -0.0609
16760W        W32569  10.957  11.784  16.210 -0.2606 -0.0732 -0.2021
16761W        W32570   4.222   5.367  14.937 -0.1172 -0.1042 -0.2208
16762W        W32571   3.339  10.824  11.698 -0.0925 -0.0403 -0.1907
16763W        W32572  10.314   3.969   3.638  0.2596  0.0212 -0.0840
16764W        W32573  17.492  11.333  14.092  0.1819 -0.3611 -0.0514
16765W        W32574  14.562  17.103   2.553 -0.1270  0.1056 -0.0587
16766W        W32575  10.790  16.216   4.326  0.1536  0.1489  0.2459
16767W        W32576   5.546  16.077   1.795 -0.1255  0.0089 -0.0126
16768W        W32577  15.026  13.723   5.418  0.3909  0.1576 -0.1393
16769W        W32578  13.237  10.121   0.078 -0.0244  0.1842  0.0191
16770W        W32579  13.959  17.416  13.341 -0.1549  0.0009 -0.0342
16771W        W32580  15.236  16.128  11.533 -0.0598  0.4693 -0.0147
16772W        W32581  13.655  11.769   5.129  0.1860  0.3349 -0.1045
16773W        W32582   1.256  11.525   3.815 -0.0025  0.1680  0.1135
16774W        W32583   3.368  15.241  15.264  0.2568 -0.1869 -0.4124
16775W        W32584   3.636  12.031  11.927 -0.1146  0.0696  0.0113
16776W        W32585  14.383  13.823  12.413  0.0201  0.1119  0.5186
16777W        W32586   3.409   7.002  11.453 -0.1383 -0.3628 -0.0110
16778W        W32587  10.914   2.856  14.603  0.3023  0.1878  0.0317
16779W        W32588   3.959   3.149   4.298 -0.1024  0.0274 -0.1600
16780W        W32589  10.065   6.080  12.217  0.2220  0.0446  0.3049
16781W        W32590   9.209   2.554   2.053 -0.1747  0.0189  0.1359
16782W        W32591   5.263  14.777  13.200  0.1876 -0.0550  0.1570
16783W        W32592   9.926  12.201   4.588 -0.0328  0.1045 -0.0218
16784W        W32593   2.334  13.976   4.539 -0.2341  0.1676  0.0665
16785W        W32594  14.666   8.483   2.900  0.0428  0.1106 -0.1387
16786W        W32595   6.527   0.329  11.864 -0.1157 -0.0264  0.1536
16787W        W32596   8.960   7.387  15.676  0.0250  0.0037  0.1041
16788W        W32597   1.316   7.183   1.711  0.0798 -0.0134  0.1389
16789W        W32598   1.132   8.612   2.155 -0.1846 -0.1708 -0.2506
16790W        W32599  14.970   1.935  14.812  0.1341 -0.3202  0.0240
16791W        W32600  13.552   5.991   1.240 -0.0520  0.1448 -0.3089
16792W        W32601   6.787  13.458   4.779 -0.0759 -0.0266 -0.0665
16793W        W32602   0.069  16.423   4.164 -0.0331 -0.0194 -0.1781
16794W        W32603   6.208   3.750  11.774  0.2472 -0.0784 -0.0896
16795W        W32604   4.311   6.150  11.943 -0.0983 -0.1335 -0.0035
16796W        W32605   0.049   4.879   0.548  0.0322  0.1471 -0.2554
16797W        W32606  16.514  15.346   4.177  0.1624 -0.1619 -0.2217
16798W        W32607  13.560   8.265   6.508  0.1770 -0.1379  0.3545
16799W        W32608   5.475  14.922  12.304  0.0892 -0.0854  0.0467
16800W        W32609   7.918  12.691  14.218 -0.1248  0.2882  0.1430
16801W        W32610  12.333   5.654   4.359  0.0321  0.1227 -0.0825
16802W        W32611   0.519  15.138   0.983 -0.2042  0.2810 -0.1607
16803W        W32612   1.013   7.532   1.523  0.3056  0.1060  0.3532
16804W        W32613  12.372   2.397   0.409  0.2843 -0.2811  0.3555
16805W        W32614  11.855   7.033   4.972 -0.2675  0.1850  0.1083
16806W        W32615   1.656  15.226   5.083 -0.0533  0.1524 -0.1017
16807W        W32616  13.473   4.865   1.213 -0.2072 -0.1069 -0.1074
16808W        W32617  12.165  15.931   2.964 -0.0938 -0.1892 -0.3244
16809W        W32618  14.688   6.343   6.600  0.0046  0.2223 -0.0248
16810W        W32619  11.261   5.444   1.499  0.2410  0.0693  0.0527
16811W        W32620   1.102   2.050  14.822 -0.1757 -0.1150  0.0527
16812W        W32621   8.302   7.973   4.381  0.1699  0.0056  0.1447
16813W        W32622   1.013  15.208   0.167  0.2225  0.2285  0.1762
16814W        W32623  11.711  13.107   3.131  0.0254 -0.0254  0.0582
16815W        W32624  16.034  10.659   2.742  0.1393 -0.3231 -0.0501
16816W        W32625  16.874  11.543  16.055 -0.1806 -0.1107 -0.0492
16817W        W32626   0.396   4.328  11.220  0.1545 -0.0720  0.2599
16818W        W32627   9.129  14.992  12.511 -0.1745  0.1146  0.0965
16819W        W32628  16.551   4.762   0.163 -0.0756 -0.1704 -0.2767
16820W        W32629   3.742  11.083  11.903 -0.0823  0.0612 -0.1709
16821W        W32630   0.162   7.863   4.442 -0.0603  0.0138 -0.2652
16822W        W32631   5.212   4.650   1.585 -0.0316  0.2269 -0.0519
16823W        W32632   4.661   5.605   1.916 -0.1246 -0.5029  0.0832
16824W        W32633  13.914   4.974   3.000  0.0076  0.0063  0.0162
16825W        W32634   1.521  10.818  16.188  0.0948 -0.0844 -0.0572
16826W        W32635   1.427   5.715   4.680  0.1388 -0.0045  0.3474
16827W        W32636   1.177   5.502   3.565 -0.0132 -0.0449 -0.0359
16828W        W32637  17.230  17.639  16.131  0.0164  0.5619 -0.2448
16829W        W32638  16.612  12.850  16.177 -0.1096 -0.2934  0.0269
16830W        W32639  15.849  15.237   3.435 -0.2156  0.0091 -0.0904
16831W        W32640   1.481   7.493  14.848  0.0051  0.1460  0.0638
16832W        W32641   3.680   8.575   1.204  0.1274 -0.0019 -0.2320
16833W        W32642   6.991   8.203  12.725 -0.3273  0.1750  0.3475
16834W        W32643   4.516   2.967  12.316 -0.5655  0.0135  0.0408
16835W        W32644  16.974  10.801   5.583 -0.0083 -0.0074 -0.2410
16836W        W32645   5.620   8.027  11.209  0.2726 -0.2210  0.1991
16837W        W32646   7.258   3.256   5.790  0.0837  0.1296  0.0317
16838W        W32647   1.018   2.257  15.748  0.3036  0.0268  0.3584
16839W        W32648  14.912   1.544  14.488  0.3301 -0.0243  0.1169
16840W        W32649   4.332  15.159  16.680 -0.1944 -0.2040  0.1527
16841W        W32650   3.477   1.269   1.803 -0.4355 -0.0273 -0.2407
16842W        W32651  12.043   7.049   4.027  0.0733  0.0707  0.3208
16843W        W32652   8.712   0.924  12.754  0.2746  0.2204  0.0383
16844W        W32653   5.477  16.714  16.576  0.1298 -0.1885 -0.1094
16845W        W32654   3.139   9.122   4.439  0.1256 -0.1154 -0.1528
16846W        W32655   4.982   3.228   2.510 -0.2523  0.2018  0.5379
16847W        W32656   5.927   0.687  16.218  0.1656 -0.3972 -0.0958
16848W        W32657   7.177   1.791  16.355  0.2389 -0.1367  0.1131
16849W        W32658   2.218   5.219  10.707  0.0317  0.3014 -0.0810
16850W        W32659   5.238   7.274   4.134 -0.1045  0.0910  0.3723
16851W        W32660  10.809  13.967   5.217 -0.1121  0.0965  0.1034
16852W        W32661  10.703  13.286   0.723 -0.0647  0.0771  0.0799
16853W        W32662   9.311  15.928   2.743 -0.0735  0.1336  0.3009
16854W        W32663   1.612   2.548  11.735 -0.0899 -0.0459  0.0102
16855W        W32664  13.255  16.521  15.075  0.0679  0.0016  0.4297
16856W        W32665  12.849   0.786   1.922 -0.0639  0.1520  0.2616
16857W        W32666  16.676  10.484   5.214  0.1331  0.0427 -0.1975
16858W        W32667   6.756   6.565  12.710 -0.3485  0.1174 -0.0596
16859W        W32668   6.860   3.841  13.913 -0.0582  0.0191  0.2716
16860W        W32669  11.131  11.375  16.393 -0.1265  0.1897  0.1973
16861W        W32670   7.971  14.269  14.538  0.4716 -0.1778 -0.1182
16862W        W32671   5.571   1.635  15.391 -0.0978 -0.0222 -0.3300
16863W        W32672   1.028   3.894  14.477 -0.0135 -0.0181 -0.1161
16864W        W32673   2.996   4.450   4.841 -0.1077 -0.2204  0.0197
16865W        W32674   3.797   8.013  11.741  0.1126 -0.2693 -0.0763
16866W        W32675   0.164   0.022   3.513 -0.1418  0.0624  0.1579
16867W        W32676  15.091  17.314   0.252 -0.1569  0.3199  0.1773
16868W        W32677   4.001   3.890  13.449 -0.0908  0.1021  0.0674
16869W        W32678  12.618   9.599  15.325  0.0122  0.0589  0.0538
16870W        W32679  10.311  15.070  15.373 -0.0978  0.1571  0.4199
16871W        W32680  12.249   9.562  13.237  0.0741  0.3529 -0.1559
16872W        W32681  12.307   1.647  14.787 -0.0114 -0.0705 -0.0038
16873W        W32682   1.426   8.505  11.376 -0.1290 -0.0985 -0.1919
16874W        W32683   1.075   7.831   2.386  0.0758  0.1632  0.0929
16875W        W32684  14.765  17.406  15.163 -0.2729  0.0128 -0.2423
16876W        W32685   1.664  13.684  16.697 -0.0375  0.0427  0.2007
16877W        W32686   0.298  13.322   5.049 -0.0008  0.0478  0.2821
16878W        W32687   6.302   0.755  16.541  0.0860 -0.3565 -0.3835
16879W        W32688   8.278   9.367   2.124  0.2119  0.0716  0.1511
16880W        W32689  16.890  13.436   4.099 -0.0702  0.0446 -0.0330
16881W        W32690   2.507  14.587   0.447 -0.3362 -0.0109  0.2103
16882W        W32691   4.034   1.161  12.378  0.0001 -0.0958 -0.1274
16883W        W32692   4.302  16.790   2.072 -0.0430 -0.0693  0.1080
16884W        W32693  15.267  17.010  11.838 -0.1605  0.3148 -0.3447
16885W        W32694  15.786  17.203   1.023 -0.2534  0.0152 -0.0470
16886W        W32695   5.107   0.797   4.989 -0.3025  0.2643  0.2061
16887W        W32696   0.753  17.694  15.952 -0.0864 -0.0288 -0.0245
16888W        W32697  13.959  11.564   5.463 -0.0408  0.2488  0.2847
16889W        W32698  16.016  12.178  12.516  0.1029  0.3006 -0.0159
16890W        W32699  16.385   0.283  14.192  0.0177 -0.2183 -0.0720
16891W        W32700   1.753  14.261  11.881 -0.0192 -0.1969  0.0542
16892W        W32701   9.194   9.619  16.410  0.0896 -0.1159  0.1291
16893W        W32702  14.332  16.645  15.697 -0.0364  0.0757 -0.0954
16894W        W32703   5.908  14.796  16.325 -0.0865 -0.2731 -0.1341
16895W        W32704  12.161  13.816   4.628  0.2299 -0.0197 -0.1553
16896W        W32705  17.272  14.735  14.747  0.1421 -0.0363 -0.0354
16897W        W32706  17.325   8.228  14.767  0.3813 -0.1187 -0.0637
16898W        W32707   9.120   2.898   2.639 -0.1069  0.0975 -0.1936
16899W        W32708  13.069  10.811  11.094 -0.1555  0.0742  0.0227
16900W        W32709   9.789   0.827  13.862 -0.0803 -0.1463  0.1454
16901W        W32710  15.026   7.126   4.548 -0.1241 -0.3608  0.2172
16902W        W32711  10.950   9.169  11.885 -0.0505  0.0496 -0.0585
16903W        W32712  13.075  11.599  12.980 -0.3536 -0.3217 -0.0842
16904W        W32713  11.218  11.348  11.517  0.1792  0.0851 -0.0683
16905W        W32714  13.200  16.495  12.790  0.0229 -0.2464  0.0297
16906W        W32715   2.692  15.849   0.317 -0.0194 -0.1698 -0.2560
16907W        W32716   0.229   2.432  12.400  0.0300 -0.0397 -0.1151
16908W        W32717  16.613   3.474   4.270 -0.0090  0.0533  0.2666
16909W        W32718   2.888  12.185  16.441  0.1007 -0.2962  0.1302
16910W        W32719  14.206   3.980   2.650  0.0674  0.0246  0.0156
16911W        W32720   6.202   4.094   0.471 -0.1138 -0.1614 -0.0575
16912W        W32721   2.527   9.209   3.611  0.1198 -0.1169  0.0174
16913W        W32722  10.190   0.023   5.878 -0.0153 -0.0226 -0.0440
16914W        W32723  14.057  16.648   1.246  0.3067 -0.2400 -0.0190
16915W        W32724  12.540   9.681  13.751  0.1712  0.2667 -0.2496
16916W        W32725  10.768  12.176   5.036 -0.2382  0.1248  0.0229
16917W        W32726  17.343  14.441   5.533  0.0556  0.2250  0.0496
16918W        W32727   9.147  13.941   5.038  0.3278  0.1635  0.3255
16919W        W32728  16.776   3.218   0.935 -0.1213 -0.3069 -0.0086
16920W        W32729  14.630   9.001  15.224 -0.0821  0.0180  0.0725
16921W        W32730  11.111   3.808  16.113 -0.3191 -0.1061 -0.2367
16922W        W32731  10.248   1.288  14.532  0.1857  0.1065  0.2842
16923W        W32732   2.072   4.833  10.442  0.1156 -0.0225 -0.1658
16924W        W32733   5.411   5.605   3.110  0.0048 -0.1098 -0.0113
16925W        W32734  17.541   6.382  11.241 -0.1029  0.0328  0.0418
16926W        W32735  16.355  12.859   2.784  0.0765 -0.1789 -0.2828
16927W        W32736  17.781   5.471  12.547 -0.2424 -0.1575  0.0620
16928W        W32737  13.013   8.403  16.346 -0.1812  0.4181 -0.0879
16929W        W32738   4.029  12.827  16.233  0.0629  0.1778 -0.2834
16930W        W32739   2.768   0.101  10.729 -0.1024  0.0565  0.2227
16931W        W32740   9.811  10.450   1.244  0.1974  0.1966  0.1365
16932W        W32741  13.453  17.882  15.499  0.0543  0.3900  0.0547
16933W        W32742  15.393  16.185  13.103  0.0714  0.0037 -0.0719
16934W        W32743   6.918  12.432  12.704  0.2436 -0.0285  0.4465
16935W        W32744   3.344   5.227  11.772 -0.1028 -0.1673  0.2583
16936W        W32745  12.923   1.152   0.217 -0.1221  0.1205  0.0200
16937W        W32746   6.783   3.822  14.719  0.3077  0.3244  0.0377
16938W        W32747   1.165   4.145  11.930  0.4748 -0.1127 -0.2121
16939W        W32748  10.951  12.094   3.801  0.2033 -0.0170  0.0547
16940W        W32749  11.357   7.280   1.520  0.0427  0.1054 -0.1480
16941W        W32750   3.067  13.436   4.372 -0.1300 -0.0686  0.1456
16942W        W32751   9.335   6.153   0.111 -0.0815 -0.1988  0.2849
16943W        W32752  14.009   3.535  13.203  0.0865  0.0506 -0.3930
16944W        W32753  12.076  15.431   5.435 -0.0544 -0.0085 -0.0592
16945W        W32754  17.021  13.729  13.949 -0.2384 -0.3664  0.2690
16946W        W32755   2.346  15.353  13.543  0.0493  0.0335 -0.2960
16947W        W32756   6.138  11.489   3.752  0.0216  0.1804  0.3367
16948W        W32757   4.712  14.233   5.168  0.0075  0.1780 -0.1256
16949W        W32758   5.372  13.681   1.084 -0.1416  0.0312  0.0876
16950W        W32759  12.338  14.075  15.269  0.5015  0.0714 -0.0914
16951W        W32760   6.197   4.767  16.158 -0.3667 -0.1674  0.1391
16952W        W32761   1.080   6.254   5.047  0.2523  0.1514 -0.0720
16953W        W32762   4.666   2.210  15.941 -0.0266  0.2452 -0.1509
16954W        W32763   9.559   0.343  13.706  0.1159  0.0073 -0.0366
16955W        W32764  10.120  12.687   2.851 -0.0752  0.1385 -0.2128
16956W        W32765   0.082  17.496  15.959  0.0107  0.3348  0.0263
16957W        W32766   1.344   0.576  11.717  0.1791 -0.0318  0.0170
16958W        W32767   4.080   3.122  12.550  0.2286  0.2822  0.6220
16959W        W32768  17.587   4.084  10.228  0.0701 -0.0500 -0.0484
16960W        W32769   4.037   1.403  11.286 -0.5308 -0.0675  0.2610
16961W        W32770   0.472   3.014  14.745 -0.2555  0.2570 -0.0476
16962W        W32771  10.739  12.318  15.534  0.3777 -0.0290 -0.2453
16963W        W32772   3.599   8.544  12.861 -0.2578  0.0562 -0.1679
16964W        W32773  15.288  12.380  12.703 -0.2505  0.0504  0.0488
16965W        W32774  11.758  15.010   0.854 -0.2204 -0.1258  0.0657
16966W        W32775   6.584   0.731  12.312 -0.3714 -0.1366  0.2398
16967W        W32776   4.333  10.232  12.810  0.2761  0.0658 -0.2116
16968W        W32777   5.429   8.924   2.743  0.0234 -0.0500 -0.3401
16969W        W32778  13.899  17.096  11.823 -0.2705  0.5159  0.1718
16970W        W32779   4.429   5.889   1.024  0.0634 -0.1722 -0.2699
16971W        W32780  12.224  17.439   2.205 -0.1905  0.2147  0.0830
16972W        W32781   7.999   1.817   4.207 -0.1957  0.1074 -0.2011
16973W        W32782  10.072   0.812  15.796  0.0786 -0.1788  0.0645
16974W        W32783   1.446   2.014  14.333  0.2628 -0.2474  0.0046
16975W        W32784  15.621  12.541  13.219 -0.0696  0.2345  0.1021
16976W        W32785   9.069   2.301  12.648  0.0464  0.1228 -0.0853
16977W        W32786   4.117   2.621   1.692  0.1161 -0.0890 -0.0576
16978W        W32787   6.007  15.988   1.617  0.1363  0.0731 -0.0212
16979W        W32788  13.929   1.558   2.953  0.0168 -0.0247 -0.1458
16980W        W32789  10.413   1.267   2.001 -0.0983 -0.0252  0.2117
16981W        W32790   2.612  17.234   3.614  0.1260  0.1363 -0.1246
16982W        W32791   0.905   3.098   5.359 -0.1326 -0.3121 -0.1710
16983W        W32792   3.373  11.188   4.353 -0.1126 -0.0700 -0.0453
16984W        W32793   0.321   3.735  15.995 -0.2951  0.1628 -0.2892
16985W        W32794   2.070  11.198   0.085 -0.0646  0.0380 -0.1982
16986W        W32795   6.202   1.272  11.657  0.1526 -0.3591  0.0377
16987W        W32796   3.133  10.084  12.152  0.3780 -0.3089  0.3202
16988W        W32797   0.647   1.192   2.718  0.2044 -0.3034  0.1621
16989W        W32798   1.516   1.276   4.292  0.7616 -0.3380 -0.2460
16990W        W32799  12.400  10.517   4.899 -0.3305  0.0524  0.0755
16991W        W32800  15.404  15.989   0.306  0.1947  0.1471 -0.1650
16992W        W32801  10.833  14.276   0.179  0.1701 -0.3107  0.1880
16993W        W32802   5.721  15.399   2.358 -0.2029 -0.1014 -0.0442
16994W        W32803  16.487  15.615   2.753 -0.0575 -0.1455  0.3352
16995W        W32804  16.228   4.978   6.093  0.0278  0.0980 -0.2079
16996W        W32805   0.379  12.951  16.270  0.1725 -0.2978 -0.2039
16997W        W32806   5.270   8.061   4.530 -0.0808 -0.2505 -0.3106
16998W        W32807   2.381   4.656   5.978 -0.0833  0.0437 -0.0427
16999W        W32808   4.839  12.907   5.439 -0.2189  0.0651  0.2319
17000W        W32809  11.564  10.177  13.705  0.2685  0.2972  0.2849
17001W        W32810  13.864   5.471   0.408  0.1111 -0.2595  0.3646
17002W        W32811  14.819  14.257  11.244 -0.1734 -0.3571 -0.0133
17003W        W32812   0.886  12.512  15.060  0.0867 -0.0806 -0.0194
17004W        W32813  10.050   7.680   1.387  0.0502 -0.1102 -0.0055
17005W        W32814   7.357   2.503  13.822  0.0209 -0.0760  0.0559
17006W        W32815   7.771   1.128  13.923 -0.1011 -0.0392  0.1530
17007W        W32816   4.779  12.943   3.950 -0.0850  0.1197 -0.1603
17008W        W32817  16.206   7.309  15.734  0.2892 -0.1767 -0.0436
17009W        W32818   4.966   8.372   1.072 -0.3642 -0.2560 -0.0165
17010W        W32819  15.233   3.929  15.917  0.4333 -0.0426 -0.0505
17011W        W32820   6.978   5.498   2.698  0.1184  0.1254  0.0368
17012W        W32821   0.486   5.274  16.603 -0.0948 -0.3162 -0.0480
17013W        W32822   8.021   3.877   1.278 -0.1195  0.0883 -0.0778
17014W        W32823   1.799  10.736  16.651  0.3604  0.1212 -0.0632
17015W        W32824  10.358   9.096  16.590  0.1400  0.2027  0.1783
17016W        W32825   7.112   9.500   5.248  0.0268 -0.1459  0.3028
17017W        W32826   5.573   8.533  12.139  0.1393 -0.0521  0.0530
17018W        W32827   2.783   4.775   0.630 -0.1338  0.1772 -0.3614
17019W        W32828  17.891   0.319  12.012  0.2569 -0.1216 -0.4317
17020W        W32829  10.131   7.169   4.124 -0.2133  0.0243 -0.4095
17021W        W32830  15.016   2.524   0.934  0.0634 -0.0270 -0.1108
17022W        W32831   6.735   5.976  13.646 -0.1262 -0.2974 -0.0560
17023W        W32832   2.818   8.789  16.166 -0.1003  0.1108  0.2878
17024W        W32833  16.925  14.728  12.535  0.1660  0.0691 -0.2735
17025W        W32834   9.983   3.833   1.308  0.0156  0.1608  0.1610
17026W        W32835   4.980  16.604  14.585 -0.2278 -0.2023 -0.2512
17027W        W32836   4.456   7.876   4.059  0.0570 -0.2308  0.0437
17028W        W32837   1.989  13.374  15.409  0.0131  0.1240 -0.1718
17029W        W32838  10.644   4.320   3.794  0.1029  0.0634  0.0671
17030W        W32839  11.757  13.806  12.561 -0.1967 -0.2811  0.0840
17031W        W32840   8.784   0.251   5.764  0.1225  0.2720  0.0110
17032W        W32841  13.928   0.398  11.625 -0.2137  0.4004 -0.1713
17033W        W32842  16.900  16.881  16.370  0.1777  0.1084 -0.0125
17034W        W32843   3.881  14.517   3.038 -0.1648 -0.0999  0.2302
17035W        W32844   2.540   2.770   1.924 -0.0753  0.1028  0.1057
17036W        W32845   2.408   2.072   2.270  0.0410  0.2450 -0.2799
17037W        W32846   5.974  13.747  15.642 -0.0331  0.0874  0.3106
17038W        W32847   4.561   3.026  13.988 -0.0227  0.1222 -0.0828
17039W        W32848  17.020   5.021  13.683 -0.0244 -0.3624 -0.3289
17040W        W32849   4.293  12.287  12.732 -0.1474 -0.2191 -0.0289
17041W        W32850  11.586  13.314  15.178 -0.3332 -0.0769 -0.0574
17042W        W32851   0.706   1.003  13.544 -0.1200  0.1185  0.0627
17043W        W32852   9.787  15.990  16.383 -0.1018 -0.0066 -0.4289
17044W        W32853   9.853  13.577   3.768  0.2660 -0.0341 -0.1055
17045W        W32854   5.964  16.366   1.302 -0.3393 -0.1927  0.1648
17046W        W32855   3.868   3.030   3.504 -0.1342  0.0093 -0.1788
17047W        W32856  10.060  11.153   0.221  0.1878  0.0385  0.0043
17048W        W32857   0.578   1.787  13.622 -0.2922 -0.3601 -0.1632
17049W        W32858   6.713  11.761   4.873  0.2001  0.2463  0.0896
17050W        W32859  17.399  17.270   1.192 -0.1051 -0.0741  0.0849
17051W        W32860  11.992   1.362   5.780  0.1639  0.0801 -0.0874
17052W        W32861   2.991   5.976  14.524  0.3035  0.1247 -0.0260
17053W        W32862  15.872   2.329   1.872  0.0527 -0.0961 -0.1228
17054W        W32863  10.239   4.482  15.300  0.2249 -0.0198 -0.1056
17055W        W32864   9.936  13.881   2.046  0.4352 -0.1007 -0.1973
17056W        W32865   4.717  17.189  13.286  0.3383 -0.2033 -0.1729
17057W        W32866  14.739   1.939   3.159 -0.3914  0.0545  0.0744
17058W        W32867  10.649   6.862  13.659  0.0414  0.0384  0.0434
17059W        W32868  16.950   7.231  14.810 -0.2994 -0.0500 -0.0502
17060W        W32869  16.141   0.069   3.083  0.2827 -0.0040 -0.2473
17061W        W32870   8.185  11.242   5.224  0.0070  0.0830 -0.0980
17062W        W32871   7.624   2.472   1.247 -0.0607  0.1744 -0.0014
17063W        W32872  13.509   1.130  11.150 -0.0912  0.1669 -0.0593
17064W        W32873   3.280   0.171  16.689 -0.0086 -0.0303  0.1152
17065W        W32874  10.576   8.568  15.773 -0.1136  0.0495 -0.4955
17066W        W32875   9.471   1.018   4.600 -0.0237  0.0255 -0.2244
17067W        W32876  10.929   2.315  16.313 -0.1279 -0.0306 -0.0874
17068W        W32877  10.189   1.802   3.858 -0.0857 -0.1473  0.0141
17069W        W32878  17.792   0.404   1.258  0.1039  0.1755 -0.2689
17070W        W32879   7.738   1.086   4.266 -0.1563  0.0616  0.3091
17071W        W32880  12.854  16.860   5.126 -0.1538  0.1130  0.0042
17072W        W32881   7.594  13.075   0.795  0.0292  0.4314 -0.1613
17073W        W32882   2.437   1.412   0.983  0.1263 -0.0443  0.0248
17074W        W32883   1.906   7.462  13.269 -0.0635 -0.1219  0.0299
17075W        W32884  11.257   7.666   0.961  0.1866 -0.2382  0.1461
17076W        W32885   7.145  13.372  15.110 -0.2509  0.3207 -0.1118
17077W        W32886   0.167   9.805   0.176 -0.0770  0.3934  0.1218
17078W        W32887  13.437   2.070  13.715  0.2813  0.1483 -0.1754
17079W        W32888   2.908   3.616  11.082  0.1270  0.2022 -0.0292
17080W        W32889   5.672  14.123   2.088  0.2839 -0.1413  0.0376
17081W        W32890   2.955   9.163  14.330  0.2251 -0.0541 -0.1097
17082W        W32891   2.273  13.430   3.917 -0.3147  0.1080  0.0011
17083W        W32892   7.292   1.953   4.308  0.1097  0.1310 -0.0928
17084W        W32893   8.306  12.869  15.614 -0.0895 -0.1402  0.0486
17085W        W32894  11.692   6.282   2.498  0.2155  0.1342 -0.0866
17086W        W32895  15.101   8.180   4.248 -0.0072  0.1465  0.0102
17087W        W32896   1.204   3.212   2.184 -0.2190  0.0633  0.0183
17088W        W32897   1.204  14.712  13.500 -0.1487 -0.0405  0.1458
17089W        W32898  15.027   6.389   5.297 -0.4228  0.0448  0.1394
17090W        W32899  13.593  12.654   5.276  0.0166  0.3303 -0.2379
17091W        W32900   7.614  11.248   3.929  0.2168  0.0394 -0.0326
17092W        W32901  15.357   7.832  14.864  0.1139  0.0267  0.1459
17093W        W32902   9.433   1.306   3.764 -0.1690 -0.1460  0.1759
17094W        W32903   7.738   6.962  15.957 -0.1832 -0.2548 -0.2309
17095W        W32904  16.326   3.695  12.276 -0.0018  0.1825  0.0332
17096W        W32905  10.239   5.144  16.061  0.1841  0.0582  0.2226
17097W        W32906  14.709  14.211   3.231 -0.0374 -0.2121  0.0062
17098W        W32907  15.483   7.339  14.826  0.0353  0.4272  0.5272
17099W        W32908   4.731   5.514   4.604  0.2113  0.0910 -0.2019
17100W        W32909  17.349   9.593   6.051  0.0347  0.0041  0.0856
17101W        W32910   8.404   9.294  10.900  0.1680 -0.0932 -0.1453
17102W        W32911  16.852   2.077  11.950 -0.0973 -0.0781  0.2321
17103W        W32912   0.891   1.812   4.758 -0.1941  0.1408  0.2427
17104W        W32913   4.519  12.897  13.913  0.2066  0.1574  0.1988
17105W        W32914  13.462  15.261   1.676  0.1061 -0.1705  0.0984
17106W        W32915   8.613  10.203   1.832  0.0322 -0.0822  0.0178
17107W        W32916  12.194   5.778  14.269  0.1282 -0.0997 -0.0161
17108W        W32917  16.858  12.724  13.391  0.1192 -0.0573 -0.1598
17109W        W32918   4.394  16.305  12.975 -0.1346 -0.1178 -0.2378
17110W        W32919  10.592   5.554   4.683 -0.0629 -0.0434 -0.1223
17111W        W32920  14.273   1.302  16.045  0.0922 -0.0317  0.1182
17112W        W32921   3.872   8.275   2.128 -0.2453 -0.0220  0.2405
17113W        W32922  17.295  13.301   4.635 -0.1413 -0.1103  0.0153
17114W        W32923  17.508   5.877  13.937  0.0553 -0.2716  0.1602
17115W        W32924   7.392  12.366  12.864  0.0654 -0.2657 -0.0569
17116W        W32925  11.062   3.307  14.819  0.0705  0.0362 -0.0858
17117W        W32926  16.545   6.722   3.266 -0.0585  0.0543  0.3289
17118W        W32927  15.557   5.729  16.016  0.3450 -0.0553  0.0142
17119W        W32928   6.814   4.664   1.527 -0.1361  0.2344  0.3164
17120W        W32929   2.178  10.098  11.853  0.0747 -0.0890  0.2308
17121W        W32930   7.973  14.939  16.320  0.1726 -0.1675 -0.0550
17122W        W32931   8.331   7.249  14.318 -0.1621 -0.2278  0.2583
17123W        W32932   0.102  16.814   3.637  0.3321 -0.3405 -0.2531
17124W        W32933  12.580  10.720   0.656 -0.3068  0.1033 -0.1542
17125W        W32934  13.994  12.087   3.648 -0.0656  0.1118 -0.2430
17126W        W32935   1.712   5.585  12.849 -0.0191 -0.5164 -0.1453
17127W        W32936   3.650  14.618  15.940 -0.1564  0.0735  0.1491
17128W        W32937   0.409   3.795  12.807 -0.1974 -0.0998  0.0849
17129W        W32938   4.582  17.201  14.732  0.0106 -0.0377  0.0225
17130W        W32939  16.659   6.388   2.031 -0.0503  0.0059  0.2498
17131W        W32940   3.685   9.958  10.808  0.2063  0.0748 -0.0714
17132W        W32941  11.049  17.305   3.810  0.0940  0.0520 -0.1832
17133W        W32942  11.389   6.748   4.819 -0.3953  0.1272 -0.1770
17134W        W32943   2.906   0.557  12.186 -0.0276 -0.1195 -0.0332
17135W        W32944   8.697  12.225  13.464  0.1498 -0.0284  0.0527
17136W        W32945   3.027   5.586  11.776  0.2853  0.0631 -0.2703
17137W        W32946  16.275   8.349   2.576  0.0997  0.2584  0.1756
17138W        W32947  15.383   3.314  14.641 -0.1684 -0.1877 -0.0002
17139W        W32948   9.587  12.981   4.499 -0.0376  0.1236  0.0690
17140W        W32949   6.862  17.748   2.632 -0.2877  0.0743  0.2526
17141W        W32950  12.210   1.756   4.976 -0.0487  0.1582  0.4044
17142W        W32951  16.350  12.807  10.574 -0.3264  0.3283 -0.0933
17143W        W32952   5.170   7.579  12.075  0.1095  0.1860  0.0858
17144W        W32953   3.950  15.697  14.548 -0.0763 -0.1420 -0.0872
17145W        W32954  17.078   4.626   2.388 -0.0617  0.0457  0.0183
17146W        W32955   0.697   9.165   2.111  0.0823  0.1220 -0.0472
17147W        W32956  10.581   2.298   3.880  0.1638  0.0540  0.0683
17148W        W32957   7.482   1.805  14.505 -0.0678  0.0054  0.1024
17149W        W32958   3.022  11.759   2.942 -0.0382 -0.1833 -0.2481
17150W        W32959   4.105  11.051   0.478 -0.1887 -0.1574  0.0670
17151W        W32960   3.534  10.238   2.313 -0.0142 -0.0068 -0.1904
17152W        W32961  16.372  10.901  11.461 -0.1946  0.0584  0.0957
17153W        W32962  16.583  14.847   0.098 -0.5173  0.2274 -0.0584
17154W        W32963   3.297   5.282   3.654 -0.2322 -0.0381  0.1462
17155W        W32964   4.939   6.053   2.909 -0.1453 -0.2344 -0.1209
17156W        W32965  11.687   8.434  12.163  0.0236 -0.1473 -0.1888
17157W        W32966   5.848   8.536  14.164 -0.0057  0.0263 -0.0539
17158W        W32967  12.547   6.249  11.728  0.2659 -0.1393 -0.1776
17159W        W32968   4.271   5.239  15.454  0.1822  0.2845 -0.1206
17160W        W32969   4.709  15.872   3.072 -0.0018 -0.0760 -0.0185
17161W        W32970   3.303   0.665   4.254 -0.0997  0.2076  0.1653
17162W        W32971   9.741   3.600  12.953  0.2231  0.2920  0.0459
17163W        W32972  16.710   3.468  15.309  0.0916 -0.1867 -0.3894
17164W        W32973   2.763   3.132  11.280 -0.2437 -0.2127  0.1233
17165W        W32974  11.237   1.923   6.852 -0.2512  0.2624 -0.0075
17166W        W32975   8.805   8.056   5.690  0.0580 -0.3673 -0.1412
17167W        W32976  12.964  17.231  11.709 -0.0107  0.0892 -0.0128
17168W        W32977   5.047   0.499  11.934  0.5324 -0.1138 -0.0340
17169W        W32978  13.860   6.371   1.228 -0.0232 -0.3678 -0.2220
17170W        W32979  10.875   7.591   0.693 -0.0579 -0.2559  0.0384
17171W        W32980  10.353   2.795   2.136  0.0237 -0.1031 -0.0614
17172W        W32981   2.960   6.304   1.845 -0.1534 -0.1306 -0.0394
17173W        W32982  15.461   5.668   5.845 -0.0876  0.0928  0.1251
17174W        W32983  15.454   3.039  16.431  0.3042 -0.1733  0.2896
17175W        W32984  13.592   0.370   1.284  0.1913 -0.0976 -0.1438
17176W        W32985   5.159   9.774   1.593  0.2123  0.0949 -0.0703
17177W        W32986  12.487   6.792  15.090 -0.1379  0.0001 -0.0965
17178W        W32987  16.064  10.243  13.082  0.1271  0.4403  0.1344
17179W        W32988   3.991  12.012  13.495 -0.1145 -0.1769 -0.0118
17180W        W32989   1.426   8.888   5.032  0.3884  0.4060 -0.4970
17181W        W32990   2.661   6.649  16.085 -0.0468 -0.1109 -0.0512
17182W        W32991   1.608   3.018  14.694 -0.1531 -0.0038  0.0634
17183W        W32992   7.751  10.382  16.169  0.1356  0.1812  0.3992
17184W        W32993   1.880   7.443   2.640  0.2200 -0.1220  0.4609
17185W        W32994  12.821  14.274  11.732 -0.1769 -0.0733 -0.3315
17186W        W32995  15.767   3.611   3.639  0.1645 -0.1112 -0.1381
17187W        W32996  10.941  11.677  11.872  0.1432  0.3234 -0.1794
17188W        W32997  15.885  14.595   0.316 -0.4112  0.3338  0.0984
17189W        W32998  14.574   5.104   4.843 -0.1242 -0.0229  0.3822
17190W        W32999   8.242   9.506   1.615  0.0996  0.0691  0.0744
17191W        W33000  11.375   2.332   2.311  0.0690  0.2125  0.0983
17192W        W33001  12.865   4.333  11.507 -0.0293  0.0424  0.4239
17193W        W33002   6.995  17.430  13.614 -0.1677  0.0218 -0.1952
17194W        W33003   9.761   0.903   3.664 -0.1095 -0.0621 -0.1223
17195W        W33004   3.813   2.686   0.445  0.1295  0.0517 -0.1904
17196W        W33005   3.869  13.691   4.710  0.0829 -0.1049  0.1713
17197W        W33006  10.791   9.616   4.584 -0.1605  0.1036  0.2600
17198W        W33007   0.723  16.128   3.574 -0.2254 -0.2547  0.0503
17199W        W33008  15.828   0.553   3.009 -0.1039 -0.1044  0.0668
17200W        W33009   7.099   0.890  16.103  0.2047  0.1270  0.1091
17201W        W33010  10.091   4.644   0.184 -0.0002  0.1596  0.0757
17202W        W33011   6.303   9.807   4.058  0.1125  0.1459 -0.1219
17203W        W33012   5.410   7.320  13.601 -0.1558 -0.3620 -0.0805
17204W        W33013  12.272  11.483  14.399  0.3185  0.0103 -0.0102
17205W        W33014   9.196   9.997  11.584  0.1609 -0.0339  0.0205
17206W        W33015   0.933   4.816   4.623  0.2962 -0.0509 -0.2891
17207W        W33016   4.900   6.186  16.676 -0.1467  0.0432 -0.1161
17208W        W33017  11.127  14.286  14.343  0.0024 -0.0279  0.4601
17209W        W33018  16.023  16.908  16.231 -0.0667 -0.2301 -0.1365
17210W        W33019  17.209   2.637   1.470 -0.0293  0.1486 -0.0116
17211W        W33020  17.060   6.674  12.818 -0.4222 -0.1225 -0.0656
17212W        W33021   8.634   8.647   5.173  0.3044  0.0030  0.1777
17213W        W33022   2.112  15.210  16.403 -0.1502  0.3424 -0.1038
17214W        W33023   3.951   6.282  13.014  0.1534 -0.0887  0.0678
17215W        W33024   3.092  14.072   4.914  0.2596 -0.0283  0.1237
17216W        W33025  13.667   3.102   4.824  0.0882 -0.0312  0.0604
17217W        W33026   8.535  13.201   1.283 -0.0384  0.4619  0.2802
17218W        W33027   9.981   6.298   1.307  0.3508 -0.1377 -0.1917
17219W        W33028   3.099   8.840  13.897  0.2368 -0.3910 -0.0979
17220W        W33029   6.323  14.158  16.544  0.0942 -0.2806 -0.0099
17221W        W33030  16.449   8.740   5.561  0.0875 -0.0148  0.0391
17222W        W33031   6.452   5.287  11.679 -0.3029 -0.3301 -0.0412
17223W        W33032  10.393   1.745  16.291 -0.0834  0.1697 -0.3285
17224W        W33033   9.584   3.043  14.599 -0.4989 -0.0190 -0.4351
17225W        W33034  15.467   6.399   1.955  0.2197 -0.3885 -0.2977
17226W        W33035  11.905   3.647  16.662 -0.0390 -0.2010  0.2950
17227W        W33036   5.593  17.171  11.970  0.1222 -0.0536 -0.2143
17228W        W33037  17.735   5.575  16.709 -0.1000 -0.1469 -0.0582
17229W        W33038   1.825   7.373   1.745 -0.0304 -0.1012 -0.2985
17230W        W33039   9.415   0.080   1.226 -0.0116  0.1068  0.0635
17231W        W33040  14.738  10.456   1.194  0.0555 -0.1318 -0.0313
17232W        W33041  15.203  12.834   2.348  0.3145  0.0504  0.1619
17233W        W33042  11.580  10.765   4.519  0.0229 -0.0529 -0.0281
17234W        W33043  16.664   1.114   3.824 -0.2319  0.0251 -0.3250
17235W        W33044   7.877  10.447   0.248  0.3732  0.1979 -0.2072
17236W        W33045   6.269   4.652   0.593  0.0225 -0.0025 -0.0398
17237W        W33046  16.766   6.930   6.038  0.0734  0.0602  0.0791
17238W        W33047  10.962  10.468   0.273 -0.2428  0.3417 -0.0882
17239W        W33048   1.792  10.566   4.741 -0.1065  0.0367 -0.0722
17240W        W33049   4.890   9.538   3.230 -0.1792 -0.0446 -0.0081
17241W        W33050   1.847  13.289  11.587  0.1584  0.0044  0.0533
17242W        W33051   5.779   0.657  16.695 -0.0741 -0.1532  0.0047
17243W        W33052  17.095   9.347   5.046  0.3456  0.0318  0.0724
17244W        W33053   3.601  16.807  16.348  0.0040  0.0197  0.1929
17245W        W33054   0.333   0.083  14.044 -0.2968  0.1729  0.1607
17246W        W33055   1.810   5.661   4.333  0.1013  0.1249  0.2218
17247W        W33056  16.525   8.549   4.586 -0.1343 -0.2083  0.0794
17248W        W33057   9.215   5.477  13.103 -0.1386  0.1200 -0.1687
17249W        W33058  11.655   8.781   1.835 -0.1309 -0.1194  0.1357
17250W        W33059  15.247  15.112   1.508  0.2803  0.0298  0.0598
17251W        W33060  15.166   7.984  15.392 -0.0670  0.1816  0.0462
17252W        W33061  12.878   6.437   1.027 -0.1175 -0.2927 -0.1097
17253W        W33062  12.262  12.024   5.547 -0.1264  0.0795 -0.1797
17254W        W33063   2.322   3.854  12.596  0.0248 -0.1025  0.2202
17255W        W33064   3.203  16.775   4.235  0.1625 -0.2447 -0.1220
17256W        W33065   0.448   7.388  16.586 -0.0947  0.0381 -0.1803
17257W        W33066   4.505   2.737  13.632  0.0031  0.1821 -0.0903
17258W        W33067   0.588   4.744  14.993  0.1073 -0.0573 -0.3779
17259W        W33068   1.736  14.482   1.944 -0.0089 -0.1254  0.3150
17260W        W33069   8.449   5.787   3.407 -0.2137 -0.2783 -0.0133
17261W        W33070   9.786   6.608  13.787 -0.1023  0.3272 -0.1017
17262W        W33071  15.776   3.347   0.606  0.0769  0.2068 -0.0279
17263W        W33072   4.261  15.503   0.566  0.1086  0.3514 -0.2139
17264W        W33073   4.473  16.727  15.044  0.4222 -0.2253  0.5162
17265W        W33074   7.207  15.709   1.412  0.3693 -0.1348 -0.2348
17266W        W33075   9.564  15.468  13.538  0.2881 -0.2828  0.1318
17267W        W33076   0.547   6.770  15.766  0.4042 -0.0561 -0.0468
17268W        W33077  16.403  17.128   6.238  0.0285  0.0652  0.2354
17269W        W33078   8.232   0.429   0.188 -0.0467 -0.1798  0.1271
17270W        W33079   5.723   5.183  12.948 -0.0694 -0.0347 -0.2721
17271W        W33080  10.746  15.086   6.537 -0.2036 -0.1908  0.2743
17272W        W33081  16.460   2.259   4.832  0.0448 -0.2213  0.1281
17273W        W33082   1.442   3.696   5.157  0.1654  0.3918  0.2454
17274W        W33083   1.653  10.408  14.373  0.1738 -0.0210  0.2019
17275W        W33084  13.854   3.003  14.736 -0.0787 -0.1997  0.2404
17276W        W33085  13.773   4.746  14.280  0.1507  0.2798 -0.1411
17277W        W33086  12.789  11.634  14.858  0.0994 -0.0771 -0.1299
17278W        W33087   4.509  10.201   4.149 -0.2295 -0.1502  0.0242
17279W        W33088   4.598   8.171  13.565  0.1228  0.2978  0.0117
17280W        W33089   6.127  10.013  15.095 -0.0006  0.0161  0.0249
17281W        W33090   8.829  15.544   4.211 -0.1092  0.3627 -0.1639
17282W        W33091   3.804   6.630  11.456  0.0984 -0.1220  0.1759
17283W        W33092   1.246  14.079   4.591  0.1430 -0.0645  0.0481
17284W        W33093  15.182   4.513   1.099 -0.3692  0.0846 -0.0220
17285W        W33094   3.271  16.952  12.098 -0.4392  0.1189  0.1184
17286W        W33095   8.049  13.337   3.517  0.0093 -0.0864 -0.0035
17287W        W33096   7.027  13.124   4.132 -0.1513 -0.1276 -0.0130
17288W        W33097  15.589   0.218  13.227  0.1093 -0.1012  0.0353
17289W        W33098   3.060   4.127   0.393 -0.2965 -0.0006  0.0210
17290W        W33099  17.664   3.793  14.454 -0.1225 -0.0571  0.0718
17291W        W33100   8.284  12.162  11.844  0.1172 -0.2698 -0.1418
17292W        W33101  16.146   5.143   0.218 -0.1800  0.0788  0.0339
17293W        W33102  10.013   5.892   5.774  0.0300  0.0443  0.0331
17294W        W33103  16.916  11.181   5.065 -0.0736 -0.4629 -0.0284
17295W        W33104  11.005  13.069  11.970 -0.0380  0.1866  0.0208
17296W        W33105   7.060   1.974   2.786 -0.0538  0.3208 -0.0680
17297W        W33106  16.220   8.483  12.070  0.2087 -0.0020  0.0207
17298W        W33107  15.446   4.314   1.571 -0.1430 -0.1679 -0.4757
17299W        W33108  17.265  16.669   5.654 -0.2216 -0.0408  0.1246
17300W        W33109  10.829  12.500   2.062  0.1381 -0.1560 -0.0750
17301W        W33110   2.103  11.847   0.100  0.3492 -0.0278  0.1526
17302W        W33111   1.618  17.457   2.555 -0.0649 -0.2427 -0.1129
17303W        W33112   6.828  11.750   3.580  0.3728  0.2169 -0.4710
17304W        W33113  12.558   9.048  11.365  0.2264  0.1123  0.1606
17305W        W33114   8.335  16.332   3.837  0.0285 -0.0004  0.2293
17306W        W33115   3.797   4.949  11.668  0.2945 -0.4116 -0.0392
17307W        W33116   1.351   2.476   4.853  0.1819 -0.1961 -0.2433
17308W        W33117  10.882   3.345   3.818  0.0988 -0.0287 -0.2181
17309W        W33118   8.604  17.257   5.460 -0.1852 -0.2187  0.1227
17310W        W33119   5.104   0.892   3.462 -0.2524 -0.1999 -0.0138
17311W        W33120  16.890  10.395   4.403  0.1207  0.2455  0.2080
17312W        W33121  12.710   2.462  13.269 -0.0152  0.0579 -0.1189
17313W        W33122  17.889  17.190   1.076 -0.0981  0.1526 -0.1923
17314W        W33123  13.696   7.527   3.486 -0.1077 -0.1836 -0.0955
17315W        W33124   1.484  10.899  14.374 -0.0840  0.0568  0.1858
17316W        W33125   2.639   7.133   3.801 -0.1649  0.1002 -0.0324
17317W        W33126  12.022  10.203  15.795 -0.0453  0.0073 -0.3122
17318W        W33127   7.763  16.883  11.030 -0.1047  0.0041  0.0345
17319W        W33128  13.247  13.008   5.264  0.0281 -0.0611  0.0403
17320W        W33129  15.540  16.554  11.797  0.0240  0.2421  0.0779
17321W        W33130   8.699   1.303  14.217 -0.2521 -0.1055 -0.1946
17322W        W33131   9.137   1.617   2.096  0.2926 -0.2958  0.2323
17323W        W33132   9.888   0.456  15.357  0.1685 -0.0997 -0.0380
17324W        W33133   6.792   9.104   0.378 -0.2499  0.0336  0.0397
17325W        W33134   3.417  13.601   3.158  0.1520  0.2692  0.0113
17326W        W33135   1.447   0.762  13.956  0.1575 -0.0615  0.0662
17327W        W33136  10.975   3.780   4.770  0.0376 -0.1125 -0.0897
17328W        W33137  15.872   2.269  11.633 -0.1110  0.0890  0.2385
17329W        W33138  12.714  11.225   1.650  0.1552 -0.0193  0.0900
17330W        W33139  15.195   5.825  16.496 -0.0048 -0.1228  0.1730
17331W        W33140   4.451   1.120   2.179  0.2335  0.1219  0.0610
17332W        W33141   6.241   4.112  15.272  0.2795  0.2562  0.2878
17333W        W33142  14.617  15.497  14.270 -0.0853  0.0883 -0.0168
17334W        W33143  10.373   2.263  14.497  0.1999 -0.0654  0.0702
17335W        W33144  10.807  16.653  14.166 -0.1843  0.0007  0.1901
17336W        W33145  16.608  11.582  12.797  0.2299  0.0353  0.2325
17337W        W33146   4.876  17.674  12.966 -0.0402  0.0896  0.2673
17338W        W33147   2.700  15.058   5.676  0.0148  0.1895 -0.0407
17339W        W33148   4.571  16.887  11.222 -0.2471 -0.0245  0.2036
17340W        W33149   1.146   9.907   4.834 -0.2568  0.0102 -0.3660
17341W        W33150   1.642  14.946   0.554  0.1757  0.3316  0.1986
17342W        W33151   0.874  15.428   4.523 -0.0016  0.0258  0.1070
17343W        W33152   9.802   6.981   1.746  0.1573 -0.1000 -0.0001
17344W        W33153  11.011   1.204   5.793  0.2185 -0.0273  0.0016
17345W        W33154   2.839  13.111   4.029  0.0133 -0.0506 -0.3341
17346W        W33155  17.368   3.648  15.890 -0.0514 -0.0430 -0.0662
17347W        W33156  16.920   1.755  12.824 -0.3790 -0.0998  0.0907
17348W        W33157   4.535   3.106   0.010  0.1080  0.2707  0.0330
17349W        W33158  17.029   6.236  16.471  0.0236 -0.1543  0.2065
17350W        W33159   0.664   0.057   3.545  0.2641  0.0855  0.1959
17351W        W33160  14.722  16.719   2.861 -0.0503  0.0391 -0.4293
17352W        W33161   0.567   1.656  12.066 -0.2182 -0.2118  0.1062
17353W        W33162  17.038   0.725  15.142 -0.2409 -0.0740 -0.0739
17354W        W33163  17.219   3.641  14.227  0.1909  0.0056 -0.1949
17355W        W33164   8.765  13.348   2.509  0.2799  0.2464 -0.1258
17356W        W33165  11.155   9.200   0.487  0.1432  0.0566  0.0283
17357W        W33166  17.661  11.201   1.405  0.0201  0.0128 -0.0192
17358W        W33167   0.475  17.446  14.917 -0.4117 -0.3570  0.2713
17359W        W33168  12.169   1.911  10.875  0.1859  0.2031 -0.2191
17360W        W33169   4.114   7.878   0.821 -0.1337  0.1327 -0.2327
17361W        W33170   4.594   6.103  13.479  0.1752 -0.2742 -0.1511
17362W        W33171   5.128   6.024  13.215  0.4449 -0.1683  0.0076
17363W        W33172   8.215  12.355   2.882 -0.1559 -0.2063 -0.0338
17364W        W33173  12.533   8.480   4.200  0.2206  0.1967 -0.0961
17365W        W33174   8.569  11.399  16.251 -0.0169  0.0973  0.0734
17366W        W33175  15.964   9.589  15.697 -0.3043  0.0136  0.1890
17367W        W33176   2.550   8.732   1.926 -0.2754 -0.2691  0.0543
17368W        W33177   8.082   5.877  15.022 -0.1583  0.0585 -0.1498
17369W        W33178  14.930  14.036   2.824  0.1747 -0.0420 -0.0199
17370W        W33179   0.179   3.916   3.836 -0.1099  0.1464  0.1212
17371W        W33180  14.260  13.707  14.357 -0.0713 -0.1055 -0.1141
17372W        W33181   4.084   5.342   2.166  0.2842 -0.0824 -0.0113
17373W        W33182   3.820  13.736  11.286  0.0505 -0.0966  0.1429
17374W        W33183   5.777  17.364   2.140 -0.2658  0.0418  0.0273
17375W        W33184   2.813   1.514  13.158 -0.1023  0.2155 -0.0502
17376W        W33185  14.482  15.195  12.502  0.1669  0.1186 -0.2245
17377W        W33186  11.920   2.184   3.684 -0.1924  0.2416  0.0822
17378W        W33187   6.648   8.940  14.581  0.2151 -0.2771 -0.0858
17379W        W33188   6.230  11.795   5.406 -0.2970 -0.7128 -0.2615
17380W        W33189  14.102   3.102  16.030  0.1545  0.0690 -0.1500
17381W        W33190   9.875   9.450   1.228  0.1972 -0.0115 -0.2219
17382W        W33191  12.485   1.244  14.392  0.2239  0.1800  0.1522
17383W        W33192   6.794  13.328   5.530  0.0774 -0.5200 -0.0204
17384W        W33193  14.765   1.219   0.695 -0.1633 -0.0273 -0.1333
17385W        W33194   6.718  11.329   3.189  0.1325 -0.1018  0.0613
17386W        W33195  11.235   7.521  12.623  0.0684 -0.1163  0.2675
17387W        W33196   3.382  12.809   2.747 -0.1295 -0.2215 -0.1037
17388W        W33197   9.736  16.143   2.994  0.0113  0.2541 -0.1681
17389W        W33198  10.190   0.005  16.473 -0.0672 -0.0358 -0.0165
17390W        W33199   5.761  17.552  16.542 -0.0815 -0.0246  0.0660
17391W        W33200   7.131  16.388   6.175 -0.0256  0.4913  0.1880
17392W        W33201   6.115  12.629  14.236 -0.0301  0.4404 -0.1989
17393W        W33202  15.140   9.081  15.856  0.1571  0.0899  0.1966
17394W        W33203   5.937  10.766  16.476 -0.0654  0.3787 -0.0511
17395W        W33204  12.007  12.229   1.006  0.0798  0.1085 -0.0385
17396W        W33205  16.044   5.121   4.110  0.2949  0.2382  0.0164
17397W        W33206  12.094   0.676   2.542 -0.0925  0.0820  0.2386
17398W        W33207  17.223   9.230   0.026  0.3914 -0.1270 -0.1240
17399W        W33208   0.638   1.182  10.821  0.0238 -0.1086  0.0663
17400W        W33209  11.390  11.428   5.328 -0.2839 -0.1851 -0.0296
17401W        W33210  14.154  11.138   2.784  0.0241  0.5415 -0.1785
17402W        W33211  14.004   9.752  16.411 -0.0113 -0.0284 -0.2907
17403W        W33212   7.761  11.961   3.324  0.3688 -0.0549 -0.0129
17404W        W33213  16.963  15.931  14.966  0.0626 -0.5328 -0.1360
17405W        W33214   1.849  10.030  10.916 -0.0133 -0.0907 -0.1303
17406W        W33215   3.543   9.483   0.253  0.2959 -0.4002  0.1904
17407W        W33216  17.359  13.617   3.280  0.0345  0.1381  0.0880
17408W        W33217   0.213   5.377   4.629 -0.2339 -0.1913 -0.2264
17409W        W33218  11.263  10.265   5.812  0.1326 -0.0931  0.0566
17410W        W33219  16.270   2.885  14.276  0.2143  0.1170 -0.1714
17411W        W33220  11.017  10.640   2.820  0.1524 -0.0976 -0.0036
17412W        W33221   8.512   9.427  13.473 -0.0197  0.1715 -0.0899
17413W        W33222   2.843  17.003  11.782 -0.2443  0.1420  0.0514
17414W        W33223   8.215   9.427  14.560  0.0035 -0.0716 -0.0121
17415W        W33224   9.131  16.146  14.784 -0.1169  0.1326 -0.1064
17416W        W33225  14.443   3.530  11.344  0.1700  0.0588  0.1934
17417W        W33226  12.439  14.262  12.041  0.1851  0.4444  0.1720
17418W        W33227  15.115  13.945  16.012 -0.0988  0.3699 -0.1825
17419W        W33228   7.324  17.077   2.153 -0.2194 -0.3260  0.1735
17420W        W33229   9.996   1.812  15.449 -0.1422 -0.1192 -0.1224
17421W        W33230   6.864  12.847  16.614  0.1706  0.3748 -0.3243
17422W        W33231  11.614  10.248   4.854 -0.0289 -0.1370 -0.0417
17423W        W33232   2.288   6.583  11.228 -0.0750 -0.0234  0.0575
17424W        W33233   7.116  14.777  13.515 -0.0828  0.1901  0.0906
17425W        W33234  16.183   9.274  14.252  0.0005 -0.1567  0.1737
17426W        W33235   2.908  14.835   4.803 -0.2653  0.1668 -0.1351
17427W        W33236   7.002   7.159  14.097  0.5075  0.0600 -0.0200
17428W        W33237   2.869  17.796   5.220  0.0118  0.0617  0.0373
17429W        W33238   7.400   0.831   3.429  0.1202  0.2500 -0.3200
17430W        W33239  16.173  13.108  12.636  0.1032 -0.2839 -0.1763
17431W        W33240  16.646   4.370   2.612  0.0530  0.0970 -0.1548
17432W        W33241   4.078   8.988  14.971 -0.2754 -0.1833  0.2694
17433W        W33242   8.351  11.174   5.687  0.0465 -0.2657 -0.3262
17434W        W33243   1.780  11.239  14.168  0.1746  0.1413  0.0351
17435W        W33244   7.301  12.281  13.808  0.1485  0.4854  0.0186
17436W        W33245  15.846   6.077   3.470 -0.0870 -0.2128  0.0682
17437W        W33246  12.852  15.773   0.424  0.0810 -0.1200 -0.1158
17438W        W33247  17.804   2.924   4.410  0.1167  0.1977  0.1226
17439W        W33248  10.367   6.770   0.923 -0.1161 -0.0857  0.0829
17440W        W33249   4.886   5.400   1.535  0.0082  0.7022  0.1513
17441W        W33250   3.882  17.955   2.325  0.3512 -0.0799  0.0319
17442W        W33251  15.829  14.071   1.043  0.2068 -0.2571 -0.1116
17443W        W33252  16.377   3.108  15.623 -0.3232 -0.0194  0.0398
17444W        W33253   9.376   5.141  15.536 -0.1041  0.1460  0.4417
17445W        W33254  15.168   6.247  15.614 -0.0942 -0.0080  0.3522
17446W        W33255   8.133   0.984   1.332  0.1330 -0.1698  0.0774
17447W        W33256   5.488   4.646   2.007  0.0737  0.3199  0.0404
17448W        W33257   5.718  11.168  11.212 -0.2819 -0.0040 -0.3062
17449W        W33258  15.605   8.397  11.759  0.1772 -0.2298 -0.2591
17450W        W33259   7.415   8.541  14.048 -0.3187 -0.0025 -0.1093
17451W        W33260  16.336  11.668   4.288 -0.1994 -0.1047  0.2742
17452W        W33261  17.948   7.504   0.031 -0.1132  0.4248 -0.1783
17453W        W33262   4.550  11.613   0.183  0.1751 -0.0981 -0.0039
17454W        W33263   6.025  10.058  13.220  0.5174  0.1368 -0.2211
17455W        W33264  17.618  12.846   0.421  0.0434 -0.0724  0.0052
17456W        W33265   8.218   7.836  14.797  0.0301 -0.2996 -0.3292
17457W        W33266   1.633   3.739   0.774 -0.1400 -0.0502  0.0135
17458W        W33267   8.020   3.177   5.129  0.2344  0.1973 -0.0148
17459W        W33268   0.222  16.553  12.702  0.1664  0.0504  0.0971
17460W        W33269   1.742   3.318  12.103 -0.1058 -0.0007 -0.3884
17461W        W33270  13.289  16.689  13.758 -0.1419  0.0114  0.4232
17462W        W33271  13.489   4.280   4.204 -0.0571 -0.0378 -0.0511
17463W        W33272   9.285   8.140  15.117  0.1363  0.0684  0.0031
17464W        W33273   1.046  12.289   0.969  0.0999 -0.0388 -0.0384
17465W        W33274  10.462  10.779   3.971 -0.0173 -0.0689 -0.1639
17466W        W33275  15.859   7.472  12.406  0.0593  0.0485 -0.1776
17467W        W33276   2.148   8.188   1.494 -0.2429  0.0355  0.3930
17468W        W33277   4.481   7.652   2.778  0.2368  0.1017 -0.2387
17469W        W33278  14.362   8.655   2.045 -0.0583 -0.1582 -0.0885
17470W        W33279   4.063   8.952  16.293  0.0019 -0.0217  0.0277
17471W        W33280  13.063   6.019   3.245 -0.0688 -0.0429 -0.0041
17472W        W33281   0.631  12.138   0.694  0.3058 -0.3609 -0.0907
17473W        W33282  12.339  13.509  14.941  0.1328 -0.0892 -0.1105
17474W        W33283   7.981   4.091   2.124  0.0397  0.0887  0.0632
17475W        W33284   5.760  13.365  15.996  0.1651 -0.2776 -0.2313
17476W        W33285   9.225  12.844   3.589 -0.0249  0.0696 -0.1266
17477W        W33286  16.965   5.447   5.192 -0.0114 -0.2556 -0.0545
17478W        W33287   6.489  11.252  14.464 -0.1385 -0.1552  0.2346
17479W        W33288   3.739   6.202  16.134  0.4367  0.1802  0.1634
17480W        W33289  11.486  11.486   2.041 -0.0023 -0.0651  0.1545
17481W        W33290   5.667   9.750   4.255 -0.1135  0.2490 -0.0904
17482W        W33291  14.138   7.952  10.482 -0.1806  0.1280  0.2117
17483W        W33292   8.068   9.071   0.270 -0.0707 -0.1995  0.3760
17484W        W33293   2.039  10.561   0.861 -0.0873 -0.2506 -0.0088
17485W        W33294   1.029   6.787   3.754 -0.2818 -0.0417 -0.1133
17486W        W33295  16.058  16.798   0.831  0.0847  0.4219  0.1599
17487W        W33296   7.088   2.982   2.081  0.0190  0.1155  0.1897
17488W        W33297   8.216   0.466   1.512 -0.2664 -0.0053  0.1552
17489W        W33298  16.821   2.087  13.409 -0.2103 -0.1186 -0.0958
17490W        W33299   5.682  13.564  10.957  0.0870  0.1204  0.3195
17491W        W33300   6.880  16.001   1.810  0.1892 -0.2355 -0.0130
17492W        W33301  16.478  14.933  12.713  0.1205 -0.1644 -0.0460
17493W        W33302  14.734   5.806  15.457 -0.0400  0.2432 -0.3081
17494W        W33303   4.597  16.014   5.580 -0.1244 -0.1624  0.0759
17495W        W33304   8.684  12.792  12.518  0.4438  0.2195 -0.0564
17496W        W33305  14.244   9.734  14.898 -0.0851 -0.5752 -0.1316
17497W        W33306   8.864   3.357   1.805  0.0308  0.0687  0.2568
17498W        W33307   3.030   8.257  15.492 -0.2199 -0.2777 -0.0480
17499W        W33308  11.055   5.121   4.063 -0.0663 -0.0135 -0.2619
17500W        W33309   7.028   7.978   1.870  0.1923 -0.1093 -0.2525
17501W        W33310  17.530   2.801  13.795  0.2655  0.2519 -0.0919
17502W        W33311   7.198   6.660  13.877  0.2274  0.1104  0.0499
17503W        W33312  15.225   0.539   0.707  0.2381 -0.2028 -0.2238
17504W        W33313  17.007   1.689  15.417  0.0645  0.1320 -0.0165
17505W        W33314   3.310  16.016   3.679 -0.1070 -0.1348  0.1354
17506W        W33315   9.575  10.227   1.695  0.2762  0.2563  0.0695
17507W        W33316   4.055   3.928   5.506  0.2979 -0.1287  0.2372
17508W        W33317   3.535   7.876   0.974 -0.1802 -0.2273  0.2221
17509W        W33318  13.293   5.057  14.323 -0.2326 -0.0803 -0.2050
17510W        W33319   2.979  17.077   5.078 -0.2022 -0.1055  0.1409
17511W        W33320   5.413   2.577   1.416 -0.2130  0.4189 -0.0312
17512W        W33321  11.334  15.049   5.782 -0.5784 -0.0762 -0.3452
17513W        W33322  17.100   4.536  13.364 -0.1224  0.0827 -0.0271
17514W        W33323  14.028   7.289  12.217  0.2570  0.0947 -0.2629
17515W        W33324  10.818   6.880  14.576  0.0849  0.2044  0.1180
17516W        W33325  17.003  12.685   0.476 -0.4833 -0.1701  0.0169
17517W        W33326   2.515   0.900  13.404 -0.0552  0.3687 -0.4119
17518W        W33327   4.023  11.234   3.471  0.0917 -0.2019 -0.1848
17519W        W33328   7.841   0.021  15.494  0.1290 -0.0252 -0.1443
17520W        W33329  11.513  17.584   2.110  0.3170  0.1547  0.0455
17521W        W33330  11.662  17.878   3.595 -0.1259 -0.0402 -0.1385
17522W        W33331  14.530   0.586   4.176 -0.3191 -0.0011  0.0024
17523W        W33332  12.890  14.188  10.829  0.1560 -0.0900 -0.0188
17524W        W33333  15.700   5.630   1.420 -0.0156  0.1353  0.1475
17525W        W33334   1.274   8.323  12.742 -0.0062  0.0796  0.0560
17526W        W33335  10.432   4.776  15.636  0.0006  0.1293  0.4473
17527W        W33336   6.642  14.749  11.506 -0.1473  0.2332 -0.2016
17528W        W33337   1.496   7.229   2.806  0.1868  0.3202  0.0643
17529W        W33338   2.739   4.349  13.237 -0.1087 -0.2153  0.1706
17530W        W33339   4.408   2.842  11.862  0.2025  0.1023 -0.0175
17531W        W33340  10.078   3.402  14.725  0.3150  0.2262 -0.3220
17532W        W33341   3.106  11.658   2.394 -0.4157 -0.0872 -0.1180
17533W        W33342  14.258  16.163   3.623 -0.0781  0.0370 -0.1921
17534W        W33343  13.515   0.995  15.757 -0.0917  0.1264 -0.0928
17535W        W33344   9.825   4.293   4.385  0.0445 -0.2375  0.0438
17536W        W33345   7.212  12.325   4.677  0.0211  0.1659 -0.2193
17537W        W33346   5.483   7.947   2.290  0.0365 -0.0778  0.3108
17538W        W33347   4.927  11.572  10.874  0.0104  0.1954 -0.0630
17539W        W33348   3.664   4.943  12.160 -0.0033  0.0711 -0.0241
17540W        W33349  15.418   0.451   3.786 -0.2888 -0.0623  0.0259
17541W        W33350  14.144  10.401   0.205 -0.0461  0.1078  0.3843
17542W        W33351   1.593   8.464  11.862  0.0315 -0.1363  0.0319
17543W        W33352   9.797   1.986  15.018 -0.0381  0.1978 -0.1380
17544W        W33353   9.906  13.378  14.032 -0.1114  0.0745 -0.2002
17545W        W33354   4.131   5.364  12.911  0.0098  0.0158  0.2730
17546W        W33355   1.945   5.958   3.945  0.1354  0.2602  0.4092
17547W        W33356   7.007  11.262  13.292 -0.1695  0.0263 -0.0097
17548W        W33357   5.074   2.922   3.848 -0.0971  0.1844  0.0865
17549W        W33358   5.546  17.886  13.557 -0.0385 -0.1918  0.0499
17550W        W33359  16.932  11.727  13.741  0.0879  0.2300  0.0957
17551W        W33360  16.942  11.353  12.539 -0.2846  0.1656 -0.1455
17552W        W33361   5.448   9.169  14.657 -0.0090  0.0302  0.0795
17553W        W33362   1.146   4.673  14.965 -0.2395 -0.0596  0.3534
17554W        W33363  16.582   9.436  11.870  0.0179 -0.1351 -0.2923
17555W        W33364  12.198   6.375  16.153  0.0656  0.2945 -0.2199
17556W        W33365   8.740  15.026  11.589 -0.0729 -0.1500 -0.1820
17557W        W33366  10.568   6.563   4.537  0.1811 -0.1426 -0.2534
17558W        W33367   6.052   9.741  11.881 -0.0501 -0.0574  0.0163
17559W        W33368  12.435  10.317   5.410 -0.0699 -0.1140 -0.2716
17560W        W33369   5.373   0.729   2.281 -0.0477 -0.3202 -0.3074
17561W        W33370  13.130   0.578   1.152 -0.1989  0.1097 -0.1437
17562W        W33371  17.432  17.481  13.263 -0.2529  0.2928 -0.2061
17563W        W33372  10.809   3.757   0.711  0.2583 -0.2575 -0.4271
17564W        W33373   9.265   3.247   1.310 -0.1264  0.0486  0.1960
17565W        W33374   5.119  15.791   5.424 -0.1013  0.0870 -0.0179
17566W        W33375  12.333  10.598  14.115 -0.5182 -0.3411  0.3993
17567W        W33376   2.681  12.597  15.184  0.1817 -0.2126 -0.4401
17568W        W33377   9.346  17.238  11.668  0.2348  0.1337  0.1112
17569W        W33378  11.940   6.701   0.703 -0.1889  0.0273  0.0465
17570W        W33379  12.527  15.163  14.543 -0.1414 -0.3918 -0.4720
17571W        W33380   9.177  15.884   3.563  0.2503 -0.1360  0.0378
17572W        W33381   2.242  17.588   3.625 -0.1771  0.0449 -0.1007
17573W        W33382   6.447  13.447  11.367 -0.0550 -0.1986  0.1894
17574W        W33383  15.524  15.698   6.160  0.5160  0.3289  0.1035
17575W        W33384  12.451  12.235  12.598 -0.0475 -0.0094 -0.1781
17576W        W33385  14.787   9.575   0.989  0.1610 -0.2800  0.2177
17577W        W33386  14.272  14.277  14.859 -0.0553 -0.1550  0.2729
17578W        W33387   0.247  11.042  12.938  0.0291 -0.3479  0.0447
17579W        W33388  14.681  16.948  14.857 -0.1057  0.0199  0.0616
17580W        W33389  14.507   6.953   0.710 -0.1142  0.1119 -0.2078
17581W        W33390   5.300  16.715   6.021 -0.0007 -0.2729  0.2408
17582W        W33391  12.824   2.809  11.462  0.6095 -0.1824 -0.0812
17583W        W33392   2.591  15.733  15.645 -0.2651 -0.0173 -0.0454
17584W        W33393  15.795   8.883   3.544  0.1358 -0.0297  0.0242
17585W        W33394  11.863  17.354  16.319  0.0402  0.4133 -0.1764
17586W        W33395   2.089   2.191  12.300 -0.4043  0.0283 -0.0194
17587W        W33396  15.801  13.039  13.117  0.0167 -0.0147  0.1821
17588W        W33397  12.061   5.459  14.673 -0.1571  0.0836 -0.0145
17589W        W33398  15.770  12.774   5.857  0.0137 -0.0202 -0.0906
17590W        W33399   2.340   2.859   4.827 -0.3090 -0.1425  0.2427
17591W        W33400   5.925  15.741   2.022  0.0037  0.1780 -0.1500
17592W        W33401   5.855   7.618  11.205 -0.2125  0.3245  0.1651
17593W        W33402  15.736  15.583  12.049 -0.0417 -0.2185  0.3625
17594W        W33403   9.468   4.145  16.257 -0.2412 -0.0508 -0.2779
17595W        W33404   7.937   4.580   3.622 -0.2000  0.0212  0.3445
17596W        W33405  13.792  15.871   2.362  0.0528  0.1030 -0.1684
17597W        W33406  14.006  17.268   5.845 -0.1533 -0.0920 -0.0895
17598W        W33407  14.451  13.353   5.343 -0.1672  0.0560  0.0381
17599W        W33408   1.150  13.588  15.358  0.2681  0.0359  0.1902
17600W        W33409  17.582  14.307  16.339  0.0016  0.1860 -0.0561
17601W        W33410  17.252   4.819  11.436  0.3047 -0.0815  0.3354
17602W        W33411   1.207  14.702  16.550  0.1839  0.2247 -0.2553
17603W        W33412  14.046   0.313  12.837  0.2567  0.1065  0.0942
17604W        W33413  12.775   5.130  14.267 -0.0807  0.0453 -0.0144
17605W        W33414   8.345  11.908  15.353 -0.1238  0.0536  0.1168
17606W        W33415  12.721  12.472   2.662 -0.2269  0.0574  0.1066
17607W        W33416   2.262  16.723  11.622 -0.1051  0.1289  0.1506
17608W        W33417  15.879   5.246  14.247 -0.1658  0.1129 -0.0703
17609W        W33418  16.451   7.529  14.957  0.1689  0.1358  0.0476
17610W        W33419   6.246   5.526  14.290  0.1876  0.0508  0.0796
17611W        W33420   6.015   1.573   0.322 -0.3200  0.1168 -0.0141
17612W        W33421  15.251  10.347   2.358 -0.4428 -0.1290  0.1004
17613W        W33422  17.057  17.796  13.537 -0.2149 -0.2910 -0.2933
17614W        W33423  17.761   7.907  15.437  0.2349  0.0098  0.1965
17615W        W33424  15.645   1.470   5.220 -0.3551 -0.3982  0.0133
17616W        W33425   7.927  13.041   2.171  0.3341 -0.2051  0.0382
17617W        W33426  15.792   3.218  11.583 -0.1898 -0.3433 -0.0402
17618W        W33427  10.466   1.311  14.999  0.2539  0.1956 -0.0039
17619W        W33428  11.791   6.448   2.999  0.1770 -0.1064 -0.1648
17620W        W33429   9.658  13.169  14.414 -0.3551 -0.0611 -0.1334
17621W        W33430  14.916  17.044  16.423 -0.2641  0.0168 -0.1175
17622W        W33431  14.039  13.541   0.307 -0.0477  0.0564 -0.3531
17623W        W33432  14.839  13.080  12.261  0.0404 -0.3416  0.1191
17624W        W33433   5.051   2.231  15.640 -0.1338 -0.1717 -0.1134
17625W        W33434   1.771   9.382  15.787  0.0639  0.0644 -0.1295
17626W        W33435   0.307  16.515  13.190  0.0962 -0.0246 -0.1822
17627W        W33436  13.506  11.148   4.382  0.1418  0.2278 -0.2448
17628W        W33437   1.983   3.110  12.526  0.2549 -0.2039  0.3296
17629W        W33438   5.622  17.253   0.487  0.3266 -0.0335 -0.2441
17630W        W33439  13.611  13.532  15.000 -0.2634 -0.0472  0.1017
17631W        W33440   2.646   1.390  12.697 -0.0978  0.3057  0.2467
17632W        W33441  15.473  13.028   5.485 -0.3997  0.0769  0.3707
17633W        W33442   4.061  15.804   3.263 -0.1912  0.3167  0.0369
17634W        W33443   2.265   5.562   4.128 -0.0369 -0.1229  0.2550
17635W        W33444  12.448   8.147   0.941 -0.1791  0.1258  0.2565
17636W        W33445  14.690  15.845   2.812  0.2055  0.0106 -0.0486
17637W        W33446   2.470   7.893   3.016 -0.0153  0.1816  0.0107
17638W        W33447   5.777   4.185  12.156 -0.1416  0.0219  0.2490
17639W        W33448   8.569  17.244  12.609 -0.1725  0.2829  0.4448
17640W        W33449   6.073  15.598   3.653 -0.0631  0.2921 -0.3248
17641W        W33450   1.335  16.806   4.777 -0.0582 -0.0501  0.1668
17642W        W33451  17.163  15.868   4.397  0.3422  0.0087 -0.3103
17643W        W33452   3.849  12.363   1.830  0.0533  0.2345  0.1089
17644W        W33453   4.069  17.746  13.400 -0.0907  0.0314 -0.0939
17645W        W33454  10.511   7.466  10.892  0.6610 -0.2162  0.0575
17646W        W33455  10.548   0.931  16.354 -0.2570  0.0786  0.1673
17647W        W33456   6.558   0.997  11.295 -0.1874  0.0569 -0.0935
17648W        W33457  15.238  14.734   6.424 -0.0342 -0.0625 -0.2079
17649W        W33458   1.173  11.478   5.512  0.1560 -0.2657 -0.0445
17650W        W33459   3.876  14.588   3.743 -0.3481 -0.1670  0.0126
17651W        W33460   0.078  10.254  14.247  0.0435 -0.0022 -0.1055
17652W        W33461  10.437   0.894  13.206 -0.1109 -0.0955 -0.0820
17653W        W33462   7.814   2.658   0.362 -0.0776 -0.0109  0.0342
17654W        W33463  16.465  14.065   4.593  0.0386 -0.1903 -0.0476
17655W        W33464  11.947   7.723   5.355  0.0089 -0.0397 -0.1624
17656W        W33465  15.022  10.696  16.075  0.2497 -0.0065 -0.0950
17657W        W33466   6.988  15.112  14.315 -0.2794  0.1119  0.0646
17658W        W33467   2.678   3.520  11.632 -0.1137  0.1740 -0.1243
17659W        W33468  10.011  14.819  16.167 -0.1473  0.0216  0.0541
17660W        W33469   0.632   7.062  14.788 -0.1790  0.0824 -0.1658
17661W        W33470   9.412  14.726  12.172  0.1139  0.3514 -0.1917
17662W        W33471  11.958  17.316  12.954  0.1454 -0.0949 -0.0473
17663W        W33472   1.455  12.217   4.721 -0.0697  0.0647  0.1646
17664W        W33473  12.363  17.944   2.108 -0.0970 -0.1183 -0.0009
17665W        W33474  12.584   5.688   0.144 -0.0220  0.2094 -0.3825
17666W        W33475  15.095  17.048   4.951  0.0073  0.0766 -0.0349
17667W        W33476   0.228  11.996   0.393 -0.2502  0.2199 -0.3586
17668W        W33477   6.492   8.441   1.902 -0.3069  0.3314  0.3125
17669W        W33478  17.495  11.990  11.375 -0.0477 -0.0588  0.0998
17670W        W33479   2.796   2.316   2.134 -0.0374 -0.3316  0.2065
17671W        W33480  17.743   3.476  11.295 -0.1426 -0.0831 -0.1183
17672W        W33481  12.004   3.975   3.194  0.2614  0.1997  0.3480
17673W        W33482   0.419  13.819   0.684  0.1067  0.1740 -0.1403
17674W        W33483  15.084   6.720   2.031  0.3085  0.0090  0.2923
17675W        W33484   0.060   6.193   2.348  0.1759  0.0010 -0.2494
17676W        W33485   5.366  17.815  13.997 -0.2585  0.0853 -0.1147
17677W        W33486  13.720  11.424  16.495  0.0106 -0.0490  0.0633
17678W        W33487  15.875   1.240  15.752  0.1715  0.1619  0.3138
17679W        W33488   8.398   2.496   3.716 -0.2104 -0.2248 -0.0355
17680W        W33489   9.432  16.836  13.151  0.0568 -0.1302 -0.0592
17681W        W33490   0.540  10.578  12.875 -0.1192  0.0753  0.2596
17682W        W33491   7.050  13.683  16.519 -0.2444  0.0343  0.1222
17683W        W33492   1.613  11.199  12.448 -0.1668 -0.2624 -0.0397
17684W        W33493  14.345   5.189  15.016  0.1335  0.0683 -0.0832
17685W        W33494   2.603  13.657  16.116 -0.0534  0.2828 -0.2782
17686W        W33495   0.386  10.123  13.122  0.0946 -0.3912 -0.1376
17687W        W33496  12.024   2.803   5.030  0.3526  0.3606  0.0309
17688W        W33497   8.793   0.721  12.300 -0.2177  0.1162 -0.0935
17689W        W33498  17.748   8.466   3.807  0.1861 -0.3336 -0.0741
17690W        W33499  10.487  11.615  11.099  0.0565 -0.5114 -0.2710
17691W        W33500  10.138  15.633  15.394  0.0539  0.0673 -0.3669
17692W        W33501   7.062  10.912   0.959 -0.0527 -0.2419 -0.2989
17693W        W33502   7.889   0.590   0.502  0.2196  0.0807  0.2448
17694W        W33503   6.023  14.010   6.328 -0.0036  0.4033 -0.3472
17695W        W33504   3.360  10.799   2.848  0.2659 -0.1267  0.0608
17696W        W33505   8.387  17.926  14.858 -0.0700 -0.3079 -0.0882
17697W        W33506   1.072  17.488   0.480  0.0500  0.3319  0.1499
17698W        W33507  12.956   1.346  14.584 -0.2936 -0.0259 -0.3124
17699W        W33508  16.145  17.463   2.950  0.2582  0.0194 -0.1966
17700W        W33509  17.549   2.692   3.123  0.0297  0.2758  0.0537
17701W        W33510  10.277  17.577   0.071  0.2235 -0.1297 -0.1164
17702W        W33511  12.796   0.221   0.877 -0.0943 -0.1420 -0.1731
17703W        W33512   7.621   6.286  11.733  0.3233 -0.0603  0.0331
17704W        W33513   7.145   2.119   3.798 -0.0098  0.0420  0.0174
17705W        W33514  10.631  10.868  11.923 -0.0513 -0.0505 -0.2244
17706W        W33515  11.183  11.094   4.447  0.0691  0.1700  0.1762
17707W        W33516  15.837  14.688  14.272  0.1048 -0.2046 -0.1276
17708W        W33517   0.454   4.884   4.758 -0.3170 -0.0168 -0.0769
17709W        W33518   4.080   6.288   4.846  0.0927 -0.3494 -0.1200
17710W        W33519  12.237   9.009  11.822 -0.3278  0.0226  0.0470
17711W        W33520   9.451   5.269  12.531  0.1077 -0.0853  0.1470
17712W        W33521   4.008   0.646  13.479  0.2275  0.1668 -0.1133
17713W        W33522  15.558   1.558  13.250  0.0757  0.1166  0.0966
17714W        W33523  13.516   7.667  16.139  0.0127  0.1176 -0.0412
17715W        W33524   9.289   7.133   1.554  0.2158  0.0843  0.2645
17716W        W33525   9.682   3.296  16.423 -0.3420 -0.0364  0.2160
17717W        W33526   4.243   5.669  11.682  0.1084 -0.1227  0.1615
17718W        W33527  14.479   5.090  16.139  0.2677 -0.1137 -0.1579
17719W        W33528   2.726   1.652   2.327 -0.1655 -0.0391 -0.4512
17720W        W33529  15.036  12.589  15.262  0.1349 -0.0973  0.2710
17721W        W33530  15.758  10.266   2.464  0.0750  0.1966  0.0279
17722W        W33531  14.323   2.776   2.940 -0.1129  0.0367 -0.1255
17723W        W33532  15.657   9.470   3.505 -0.1848  0.2549  0.2043
17724W        W33533  10.453  15.065  13.725  0.1756 -0.0635 -0.0447
17725W        W33534  16.106  10.174   2.805 -0.0362 -0.0128 -0.1583
17726W        W33535   2.636   4.412  11.066  0.4946  0.1762 -0.2844
17727W        W33536  13.920  13.137   5.379 -0.1217 -0.1380 -0.4280
17728W        W33537   8.144   3.030   5.674  0.1507 -0.0990 -0.2812
17729W        W33538   7.054  13.599  14.679  0.0334  0.2141  0.0023
17730W        W33539  12.529   5.663   2.372  0.3410 -0.0545 -0.0695
17731W        W33540   5.826  10.626  14.606  0.0026 -0.0696 -0.2301
17732W        W33541   6.190  14.929  15.416 -0.1680 -0.0237  0.0676
17733W        W33542   2.536   4.822  10.800 -0.0046  0.0260 -0.0041
17734W        W33543   5.442  11.559   1.167  0.0638  0.1953 -0.2596
17735W        W33544  17.601   4.170  16.109  0.0703 -0.0840  0.1726
17736W        W33545   3.702   0.512   3.966 -0.0710  0.0064  0.0484
17737W        W33546  17.900  16.350  15.170 -0.2068 -0.0099 -0.2384
17738W        W33547   8.199   7.650   1.480 -0.1033  0.3286 -0.0237
17739W        W33548   4.223  14.308   2.185 -0.2237 -0.0722  0.2335
17740W        W33549   9.334  11.141  15.463  0.2146 -0.2243 -0.3935
17741W        W33550  14.613  17.143   0.104  0.0113  0.2110  0.2342
17742W        W33551  16.279   6.664   1.503 -0.0497 -0.0376  0.0896
17743W        W33552   2.009  16.352   6.163  0.2855 -0.0828 -0.4810
17744W        W33553  14.030   7.681  13.857  0.0630 -0.0820  0.3479
17745W        W33554   7.152   4.772   3.986  0.0273  0.3395 -0.0875
17746W        W33555  14.318  17.882  14.821  0.3653  0.0148 -0.0768
17747W        W33556  13.854   5.738   5.658  0.1103  0.1584 -0.1438
17748W        W33557   3.681  17.874   1.110 -0.2075  0.0613 -0.0606
17749W        W33558  13.588   5.533   4.340  0.1424 -0.2409  0.0353
17750W        W33559  14.850  14.468  11.706  0.2340 -0.0264  0.3741
17751W        W33560   4.428   0.804   5.020  0.2538 -0.1741  0.2782
17752W        W33561   3.537  12.475  12.771 -0.2258  0.1795 -0.1631
17753W        W33562   9.984   5.484   0.830 -0.2980  0.0573  0.0141
17754W        W33563   8.801  15.587  11.820  0.2138 -0.3476 -0.1234
17755W        W33564  12.931  17.346  14.814  0.1195  0.2142 -0.2724
17756W        W33565   8.529  15.656   3.045 -0.0502 -0.1121  0.2204
17757W        W33566  17.613  16.779   0.372 -0.2613  0.0974  0.0805
17758W        W33567  10.338   7.600   3.884  0.0412  0.5357 -0.1089
17759W        W33568  14.505   0.071   4.956  0.1899 -0.0113  0.0059
17760W        W33569  14.713  13.976  12.083  0.1162  0.1777  0.0415
17761W        W33570  14.937  12.669  16.649  0.0450 -0.2671  0.1686
17762W        W33571   8.549  12.762  11.642 -0.1622  0.0265  0.1983
17763W        W33572  11.042   2.094   2.610  0.2861 -0.1926  0.0471
17764W        W33573  13.807   4.186   6.011 -0.1823  0.0417 -0.0618
17765W        W33574  14.670  13.084  11.638 -0.2583 -0.1557 -0.0357
17766W        W33575   7.922   0.857  12.397  0.0582 -0.0080  0.0513
17767W        W33576  13.838  15.944   3.942 -0.0357 -0.0358 -0.3435
17768W        W33577   6.071   0.886   5.200  0.3700  0.1394 -0.1143
17769W        W33578   8.916  11.077  13.658 -0.3283  0.2406  0.0170
17770W        W33579  16.479   6.539   5.078  0.1680 -0.0311  0.0745
17771W        W33580   3.985  14.544  12.390 -0.0144  0.1784 -0.0057
17772W        W33581   7.866  11.689  15.704 -0.3009 -0.1610 -0.0651
17773W        W33582   6.140   8.990  11.349 -0.1003  0.0217  0.1227
17774W        W33583   3.142   1.454  16.118 -0.2759 -0.0604 -0.0223
17775W        W33584   1.559  12.149   1.718  0.0722  0.1001  0.0574
17776W        W33585  13.124  13.068   5.994  0.1449  0.1389  0.0286
17777W        W33586   7.333   9.934   0.768  0.4946 -0.0075  0.3964
17778W        W33587   2.752   9.447  12.915 -0.0439 -0.1216  0.2683
17779W        W33588  13.543   1.544   2.579 -0.2377  0.2745  0.0876
17780W        W33589  10.734  11.371  11.505 -0.1604  0.0146 -0.1897
17781W        W33590   7.076   7.399   2.090 -0.2011  0.1877 -0.2672
17782W        W33591   4.539   7.176   2.695  0.0332  0.0969  0.3074
17783W        W33592  14.883   4.378   0.091 -0.0190 -0.0894  0.0804
17784W        W33593  14.223   2.069   0.860 -0.0297  0.0263  0.0235
17785W        W33594   9.407   2.242   5.316 -0.2105 -0.0168  0.3981
17786W        W33595  10.284   9.112   1.842 -0.0788 -0.2071 -0.0969
17787W        W33596   2.579  11.028   3.183 -0.0847  0.2469 -0.3224
17788W        W33597   4.571  12.970  16.252 -0.1706  0.4256 -0.1783
17789W        W33598   8.894   8.317   1.542 -0.3209 -0.3000  0.3101
17790W        W33599   9.690  11.382  14.460 -0.3547 -0.2282  0.1545
17791W        W33600  17.630   6.584   1.048  0.0520  0.1192  0.0348
17792W        W33601  15.822  15.589   5.721  0.0321 -0.1281 -0.1174
17793W        W33602  17.874  17.614  14.886 -0.1231  0.0291  0.0767
17794W        W33603  14.554   8.228   0.141  0.0571  0.2614 -0.0929
17795W        W33604  12.756  10.242   3.980 -0.1383  0.3178 -0.0652
17796W        W33605   0.853   6.123   0.607  0.2614  0.0456  0.1417
17797W        W33606   2.090   2.824  11.702  0.3232  0.0446  0.1864
17798W        W33607  12.708   7.654   2.696 -0.0959  0.0164 -0.0237
17799W        W33608   3.585   4.128  16.499 -0.0844  0.1120  0.3109
17800W        W33609   9.070   3.476  14.646  0.0244  0.0824  0.1281
17801W        W33610   4.051  12.940   1.100  0.0232 -0.0462 -0.2162
17802W        W33611  11.220  10.930   2.461  0.0122 -0.1471 -0.0193
17803W        W33612   4.475   3.898   0.240  0.0261  0.3002 -0.1017
17804W        W33613  13.440   7.956   3.425  0.4738 -0.1435 -0.0302
17805W        W33614   7.704  14.476   3.983 -0.0518  0.0751  0.1163
17806W        W33615  16.101  17.856   2.608  0.0485 -0.4006 -0.1190
17807W        W33616   7.515   0.169   0.427  0.1553 -0.3791  0.1248
17808W        W33617  10.022   2.994  13.768 -0.0567 -0.0070  0.1559
17809W        W33618  14.174  13.317  12.509 -0.0345  0.1428 -0.3004
17810W        W33619   3.258  11.330  14.137  0.3361  0.4730  0.0848
17811W        W33620   3.634  11.875   3.141 -0.0266 -0.2475  0.1030
17812W        W33621   0.916   7.907  10.993 -0.1983  0.1925  0.3550
17813W        W33622  11.826  16.230   2.362 -0.0099  0.1772  0.3025
17814W        W33623   6.610   1.448   6.292 -0.1118  0.0481 -0.0067
17815W        W33624   1.847   6.437   3.245 -0.0829 -0.2089  0.3063
17816W        W33625   2.468   2.034   5.504 -0.0892 -0.4208 -0.1890
17817W        W33626  11.268  10.888   1.005  0.3039 -0.1632 -0.2426
17818W        W33627   5.670  16.120  13.822  0.2498  0.1451  0.0212
17819W        W33628   7.398   5.441   2.144  0.3776  0.2843 -0.1401
17820W        W33629  15.578  16.287   5.004  0.0680  0.0233 -0.0977
17821W        W33630   0.455  11.185  15.220 -0.0945  0.0086 -0.0927
17822W        W33631   5.634  10.501   4.960 -0.0175  0.1144  0.0053
17823W        W33632   7.783   5.939   0.009 -0.0416  0.0694 -0.1000
17824W        W33633   1.144   3.749  11.477 -0.1163  0.0058 -0.2614
17825W        W33634   3.201   3.181  12.242 -0.2392 -0.1566 -0.0649
17826W        W33635  10.315   3.581   4.015  0.1445  0.1405  0.1056
17827W        W33636   1.184   3.315   0.854 -0.1322 -0.0363  0.1519
17828W        W33637   1.270   9.791  11.765  0.0440 -0.2833  0.2694
17829W        W33638  12.242   5.631   3.722  0.0026 -0.1329  0.5370
17830W        W33639  17.600  14.381   3.429 -0.4248 -0.1253  0.1559
17831W        W33640  12.298   3.730  12.476  0.3256 -0.1159  0.1502
17832W        W33641  11.178  13.203  14.052 -0.3187 -0.0609 -0.0547
17833W        W33642   6.302  13.845  12.157  0.1684 -0.2077 -0.0737
17834W        W33643   7.620   6.162  13.083 -0.1302 -0.2831 -0.0503
17835W        W33644  11.525   9.223   5.623 -0.5027  0.0353  0.1713
17836W        W33645  10.980  13.890  14.676 -0.0143 -0.1045 -0.2629
17837W        W33646   0.733  14.038   4.502 -0.1465 -0.1331  0.2777
17838W        W33647  14.324  15.031  15.342 -0.0933 -0.0616 -0.1616
17839W        W33648   5.393   3.690  15.160 -0.3750  0.1497  0.0348
17840W        W33649   1.718  10.850  11.453  0.0507  0.0350  0.1180
17841W        W33650   0.147   1.802  12.660  0.1176 -0.2467  0.1406
17842W        W33651  13.300  11.516   0.882  0.1427 -0.2298  0.2313
17843W        W33652  15.332   2.587   0.072 -0.1676 -0.2260 -0.0794
17844W        W33653  11.764  16.869   0.155  0.2250  0.2510  0.0106
17845W        W33654   6.331   5.046  15.732  0.1054  0.0169 -0.1603
17846W        W33655  10.810  12.488   2.967  0.0455 -0.0503  0.3027
17847W        W33656  14.374   9.899  12.337  0.0080  0.1396 -0.3999
17848W        W33657  13.856  13.055   1.309  0.1064 -0.1936 -0.0774
17849W        W33658   1.068   9.737   2.991 -0.1529  0.1859  0.2214
17850W        W33659  16.359   3.442  11.655 -0.1479  0.1802 -0.2209
17851W        W33660   9.348  12.624  15.586 -0.2520  0.0140  0.1910
17852W        W33661   2.642  10.162   5.831  0.3816  0.1566  0.2015
17853W        W33662  11.472  14.713  12.131  0.0913  0.2778 -0.1077
17854W        W33663  13.682   5.016   6.271  0.0467 -0.2081  0.2275
17855W        W33664  14.326  13.908  15.618  0.0832 -0.1979  0.0646
17856W        W33665   2.384   8.189   4.939 -0.0625  0.3772  0.2658
17857W        W33666  14.379  12.049  16.165  0.0630  0.3303  0.3574
17858W        W33667  12.824  16.766  13.330  0.2193  0.1738 -0.0160
17859W        W33668  11.990   9.502   5.393  0.0615  0.1121 -0.0872
17860W        W33669  10.858   0.132   0.558 -0.1161 -0.1061  0.0224
17861W        W33670  11.872  15.005  12.282  0.0232  0.1497  0.1881
17862W        W33671   7.872  11.591  12.585 -0.1926 -0.3122  0.2230
17863W        W33672   1.894   3.976  11.255 -0.1160  0.0386  0.1287
17864W        W33673   5.780   2.848   2.817 -0.1400 -0.2457  0.0390
17865W        W33674   8.804  11.867  13.146  0.1395  0.1441 -0.1766
17866W        W33675  16.099   8.190  11.704  0.0473  0.2632 -0.1026
17867W        W33676  14.669  17.149   3.106  0.0091  0.1256 -0.1510
17868W        W33677   1.321  12.916  16.149 -0.1729 -0.0142  0.0579
17869W        W33678   7.608  17.536   2.215 -0.0688  0.0462 -0.2054
17870W        W33679   4.875  15.917  15.730  0.2261 -0.3819 -0.1218
17871W        W33680   7.548  10.224  15.463 -0.1833  0.3695  0.1799
17872W        W33681  16.707   9.180   5.702  0.2732  0.0388 -0.3299
17873W        W33682  12.442  10.875  11.940 -0.0166 -0.2207  0.0197
17874W        W33683  15.937   3.825   0.885 -0.0861 -0.2698  0.0756
17875W        W33684  14.929  10.162   4.779 -0.1923 -0.1738  0.0221
17876W        W33685  10.859  10.200   3.309 -0.1123  0.4775 -0.0678
17877W        W33686   7.237  13.388   2.821  0.1797 -0.1656  0.1170
17878W        W33687  17.772  10.267   2.139 -0.2177 -0.0148  0.2102
17879W        W33688  10.243   7.349   3.434  0.1405 -0.0779 -0.1318
17880W        W33689  16.880  12.149  15.428 -0.1306 -0.0209  0.0940
17881W        W33690   6.518   8.241  12.608 -0.1060  0.1505 -0.0961
17882W        W33691  12.612  17.511  12.124 -0.1134 -0.1573  0.1123
17883W        W33692   7.063  14.996  15.981  0.0407  0.1767  0.1783
17884W        W33693  10.724  13.511  14.408  0.0360  0.0327 -0.1191
17885W        W33694   4.593   8.096   1.239  0.3995 -0.1635  0.3568
17886W        W33695   2.610   6.744  13.063  0.0461  0.0531  0.1606
17887W        W33696   3.246  15.093  11.414  0.2827  0.1368  0.0238
17888W        W33697   1.877  12.026   6.151  0.2009  0.1357 -0.0269
17889W        W33698  17.361  14.516  13.877 -0.0904  0.0305 -0.1236
17890W        W33699   4.923  14.687   5.417 -0.1958  0.3103  0.3525
17891W        W33700  12.952   3.022   1.455  0.0584 -0.1242 -0.1232
17892W        W33701   7.171   3.196  15.446 -0.1725 -0.2826 -0.2631
17893W        W33702  16.584   2.089   0.307  0.2067 -0.0686  0.0950
17894W        W33703  13.095   9.613   1.218  0.2136 -0.2155 -0.0703
17895W        W33704   3.606   7.377  12.994  0.0199  0.0386  0.0202
17896W        W33705   7.652  14.248  14.095 -0.0313  0.0448 -0.3179
17897W        W33706   4.105   8.950  15.779 -0.0834 -0.2545 -0.0750
17898W        W33707   3.138  11.955  13.419  0.3469 -0.0914 -0.0889
17899W        W33708   1.111   2.062   2.597  0.3312  0.0970  0.0092
17900W        W33709  12.304   6.911  14.565 -0.0403 -0.0303  0.1331
17901W        W33710   2.039   1.295  11.318  0.0174  0.3499 -0.4871
17902W        W33711  10.590   5.140   2.445  0.2081 -0.1320  0.1018
17903W        W33712  12.669   6.356  12.597  0.1826  0.2804  0.0140
17904W        W33713   9.934   0.998   4.785 -0.2847 -0.0483  0.2938
17905W        W33714  16.378  15.101   5.295  0.2124 -0.0123 -0.0882
17906W        W33715   5.063  16.657   5.070 -0.4192  0.3231  0.0261
17907W        W33716   8.550  11.140   0.911 -0.0257  0.0453  0.3078
17908W        W33717  14.491   0.579   1.982  0.1156 -0.0133 -0.1124
17909W        W33718   8.533   4.379   1.405 -0.1110 -0.0660  0.0962
17910W        W33719  11.723   4.810   1.077 -0.1486  0.1744  0.0845
17911W        W33720   9.546   4.815  13.754 -0.0281 -0.2451 -0.3402
17912W        W33721   8.586  13.430   5.506  0.0697  0.2659  0.1503
17913W        W33722   0.350   9.472  15.807 -0.1068 -0.2261 -0.3681
17914W        W33723   7.331   4.020  16.016  0.0750 -0.3200 -0.1400
17915W        W33724   7.802  14.931   3.550  0.1101  0.3152  0.0560
17916W        W33725  13.606   7.190   5.140 -0.2857 -0.0615  0.0322
17917W        W33726   6.803   4.311  12.437  0.1169 -0.1753  0.0858
17918W        W33727   0.405  15.309  12.610  0.0775 -0.0127 -0.1672
17919W        W33728   3.531  10.980  13.617 -0.2219  0.0440 -0.2458
17920W        W33729   1.102   4.765  14.015 -0.1802 -0.2405  0.2135
17921W        W33730   2.048  12.480   2.602  0.0197 -0.2282 -0.0334
17922W        W33731  13.716   1.947   3.357 -0.1198 -0.1501 -0.0588
17923W        W33732  16.438   8.489  15.425 -0.3159  0.0413 -0.0640
17924W        W33733   4.404  14.373  12.237 -0.0944  0.2440 -0.3292
17925W        W33734  15.508  12.639  16.697 -0.0057 -0.0843  0.4047
17926W        W33735   7.720   0.562  16.153  0.1425  0.1949  0.1023
17927W        W33736   5.785  17.046   0.061  0.1776 -0.0413 -0.2090
17928W        W33737   4.859   2.700  13.099  0.1810  0.1006 -0.2698
17929W        W33738   0.111  14.019  14.106 -0.0215  0.3003  0.2644
17930W        W33739  12.908   4.421   1.812 -0.3393  0.1313  0.0175
17931W        W33740   4.770  12.326  13.856 -0.1310  0.0358  0.0306
17932W        W33741   2.522  10.923   2.686  0.2740  0.0852 -0.0628
17933W        W33742   6.759  17.876   1.075  0.1309 -0.1566  0.1099
17934W        W33743  10.695  14.141   3.860 -0.0727 -0.0728 -0.0345
17935W        W33744  15.357  14.208  12.406  0.1125  0.0531 -0.0198
17936W        W33745  10.937   8.709   0.201  0.0789 -0.1515 -0.0260
17937W        W33746  10.666  13.187   2.329  0.0739 -0.0385 -0.0470
17938W        W33747  15.861  16.116   3.138 -0.0281 -0.1475  0.1280
17939W        W33748  16.751  13.128   4.544 -0.1157 -0.0100  0.0395
17940W        W33749   2.737   5.148  12.485  0.2413 -0.2111  0.1730
17941W        W33750   3.502   2.505   1.298 -0.0274 -0.0365 -0.1455
17942W        W33751  13.079  16.897   5.600 -0.2300 -0.3108  0.0094
17943W        W33752   0.174   9.554   2.586 -0.0415  0.0139 -0.0365
17944W        W33753  15.987  10.330   1.538  0.0636 -0.1188  0.3056
17945W        W33754   6.958   6.419  15.562 -0.0931 -0.0106 -0.1054
17946W        W33755   0.100   6.505   0.649 -0.0493 -0.0629 -0.1491
17947W        W33756  10.651   0.316   1.010  0.0111 -0.1477 -0.2350
17948W        W33757   5.829  13.731   0.782 -0.2866  0.4708  0.0470
17949W        W33758   0.563   3.918  14.620  0.0733 -0.3268  0.1064
17950W        W33759   9.017  14.874   0.446  0.1956  0.0552 -0.2185
17951W        W33760   9.203   8.249   2.865  0.2136 -0.2062 -0.0275
17952W        W33761  16.243   6.723   4.379  0.0665  0.3777 -0.1301
17953W        W33762   4.271   7.468   3.229  0.1835  0.1067 -0.2347
17954W        W33763   4.977   0.118   1.526  0.1115 -0.0709 -0.0458
17955W        W33764  17.140  14.865   1.262  0.0862  0.1369  0.1072
17956W        W33765  13.640   7.888   2.488 -0.1077  0.1352  0.1341
17957W        W33766   2.116   3.624  13.050 -0.2101  0.3180  0.0525
17958W        W33767  12.371   1.190  16.665  0.2525  0.2897 -0.1502
17959W        W33768  11.823   3.642  12.598 -0.2080  0.1063 -0.1150
17960W        W33769  11.952   4.101  11.548  0.1565  0.1295  0.1353
17961W        W33770  17.558   0.903  13.536 -0.1207 -0.1110  0.1612
17962W        W33771   5.754  10.353  15.136 -0.1584 -0.3282 -0.3483
17963W        W33772   5.790   8.163   4.837 -0.1608  0.2555 -0.0775
17964W        W33773   8.360   3.521  12.199 -0.1732 -0.0783 -0.4315
17965W        W33774  15.075  13.836  11.101  0.0886 -0.0103 -0.2532
17966W        W33775  16.152   1.989   1.678  0.0951 -0.0717  0.1470
17967W        W33776   8.713   3.817   1.738 -0.1000 -0.1690 -0.0258
17968W        W33777  16.175   4.745  16.554 -0.0918 -0.0353  0.0766
17969W        W33778   4.704  14.806  14.107  0.0749 -0.2733 -0.0603
17970W        W33779   2.289  13.308   1.855 -0.1322  0.0138  0.3820
17971W        W33780  10.907  15.913  15.924 -0.0237  0.0152 -0.0450
17972W        W33781   7.421   7.082   0.378  0.1914  0.0518  0.0024
17973W        W33782  10.641   8.378   0.402 -0.0731 -0.0705  0.0470
17974W        W33783   8.336   1.494  14.490  0.0159  0.0303  0.0753
17975W        W33784  12.569   1.803   1.035 -0.0668  0.1281 -0.0884
17976W        W33785   4.677  16.554  15.594  0.2096  0.0507  0.0524
17977W        W33786   5.244   4.110   2.951  0.1384 -0.2706  0.0740
17978W        W33787   0.309   8.038   1.576 -0.0238 -0.0458  0.0604
17979W        W33788  10.605  11.858  12.203 -0.1609  0.1989 -0.0499
17980W        W33789   6.064  14.446   2.296 -0.2007  0.1789  0.0227
17981W        W33790   7.004  12.075   5.187  0.0014  0.1005  0.4007
17982W        W33791  14.063   0.108   0.016 -0.1304  0.1704 -0.0176
17983W        W33792  10.862   7.524   1.419  0.0588 -0.3720 -0.1942
17984W        W33793   5.833   2.775   2.254 -0.2476  0.1906  0.0083
17985W        W33794   7.072   9.921  12.163  0.3881 -0.0884 -0.1125
17986W        W33795  12.588   9.320   0.217 -0.1593 -0.2512 -0.1131
17987W        W33796   2.386   7.722   4.715  0.1143 -0.0154 -0.0756
17988W        W33797   4.826   3.773   4.543  0.0720 -0.0262 -0.1109
17989W        W33798   1.283   9.618  10.121 -0.0834  0.0029  0.2453
17990W        W33799   9.167   1.296  16.545  0.1732 -0.3455  0.1599
17991W        W33800   3.539   4.746  16.288 -0.2251 -0.4349  0.3727
17992W        W33801   6.984  10.622   4.874  0.0837  0.2499  0.2093
17993W        W33802  14.405   6.425   0.412  0.0381 -0.1251 -0.0612
17994W        W33803   6.999   1.232  11.142  0.0875  0.1264  0.0571
17995W        W33804   6.657  16.720   1.834  0.2273 -0.0917  0.2258
17996W        W33805   0.935  12.106   1.570  0.2874 -0.0262  0.0138
17997W        W33806  11.716   5.563  15.701  0.0472 -0.0581  0.1395
17998W        W33807  14.813   5.362  11.278  0.0010 -0.1994  0.4157
17999W        W33808   5.489  11.645  11.191  0.0571 -0.2921  0.0005
18000W        W33809   4.121   2.455  11.281  0.1276  0.0178  0.0881
18001W        W33810   3.902   4.067  15.763  0.1150 -0.0609  0.0032
18002W        W33811  12.063   1.642  14.339 -0.0774  0.0832  0.2414
18003W        W33812   7.933   7.245   3.622  0.1791 -0.0331  0.0093
18004W        W33813  12.901  10.021  14.349 -0.0114  0.2265  0.1015
18005W        W33814  17.602   5.432   1.941  0.1558  0.0535  0.0136
18006W        W33815  14.197   2.327  16.239  0.2024  0.0107  0.2054
18007W        W33816  15.018   6.103  12.800  0.3361 -0.0516 -0.0694
18008W        W33817   2.290  17.771  14.094 -0.1468  0.0585  0.0003
18009W        W33818   3.862  11.116   2.384  0.0295  0.0647 -0.3270
18010W        W33819   3.300   1.977   4.231  0.1012 -0.0284  0.1448
18011W        W33820  14.107  13.490  14.752 -0.0789  0.1150 -0.0703
18012W        W33821  13.740   3.627  13.599  0.1980 -0.2117 -0.0791
18013W        W33822   3.043  15.423   5.766 -0.1011 -0.1015  0.1385
18014W        W33823  13.245   4.792   2.126 -0.1010 -0.0422 -0.0450
18015W        W33824   3.847  16.339  12.714  0.0186 -0.0381 -0.1243
18016W        W33825   5.716  16.434   0.354  0.0246  0.0429  0.1211
18017W        W33826   6.887   4.337  13.944 -0.1998  0.0236  0.0989
18018W        W33827  16.378  13.588   4.402 -0.0047 -0.2552  0.0115
18019W        W33828   0.023   4.671  12.824 -0.0867 -0.2341  0.2597
18020W        W33829   8.194  10.455   3.684 -0.1837  0.0389 -0.0235
18021W        W33830  16.450   2.764  14.717 -0.3301  0.1095  0.1828
18022W        W33831  15.638   0.092   2.912 -0.1123 -0.1655  0.0522
18023W        W33832  12.169   0.064   2.841  0.1677 -0.0402  0.0508
18024W        W33833  14.119  12.141   0.622  0.2961  0.0070  0.1156
18025W        W33834   0.186   3.864  16.545 -0.1442  0.0746 -0.1526
18026W        W33835   2.407   0.369   3.263 -0.0382  0.1604 -0.3718
18027W        W33836  15.985   0.964  15.260  0.0367 -0.2365  0.0605
18028W        W33837   8.044   1.680   3.736  0.1495  0.0675  0.1103
18029W        W33838   6.561   2.926  14.866 -0.3262 -0.1877  0.0301
18030W        W33839   5.829   9.140  10.917 -0.0910 -0.0111  0.1607
18031W        W33840  10.966   3.784   1.572 -0.2226 -0.2183  0.2521
18032W        W33841  10.082  15.741  13.656  0.0141  0.1048 -0.2184
18033W        W33842  11.428  17.848   5.020  0.1292  0.1195  0.1460
18034W        W33843   2.275   1.021   2.517 -0.1687  0.2497 -0.1571
18035W        W33844   2.872   5.733   2.723  0.0308  0.4318  0.0004
18036W        W33845   5.533  15.986   2.410 -0.3072  0.1908  0.1263
18037W        W33846  16.705  17.378  16.141 -0.0888  0.1220 -0.0075
18038W        W33847   6.139  14.114   1.815  0.0363 -0.0862  0.0572
18039W        W33848   1.755   3.694  15.310 -0.1231 -0.1339 -0.3512
18040W        W33849   2.311  14.511  15.939 -0.2254  0.0670  0.3648
18041W        W33850  10.680  16.017  10.768  0.0063 -0.1615  0.2041
18042W        W33851   0.132  16.500  15.718 -0.0140  0.3508  0.0968
18043W        W33852   5.187  15.463  16.290  0.2460 -0.2309 -0.0080
18044W        W33853  11.659  16.315  14.154  0.0197  0.0595 -0.0737
18045W        W33854  15.670  11.288   1.845 -0.1407  0.0824  0.3228
18046W        W33855   4.781   4.918  15.531  0.0483  0.2859 -0.0994
18047W        W33856   6.521  11.789  11.989  0.1661  0.1088  0.0534
18048W        W33857   8.415   5.949   1.741 -0.3064  0.2803 -0.1484
18049W        W33858  13.854   8.009  15.040 -0.1940 -0.0051  0.0145
18050W        W33859   3.297  17.810   5.554  0.1807 -0.1526  0.0414
18051W        W33860  11.577   0.306   4.596 -0.0466 -0.5680  0.0046
18052W        W33861   4.814   3.591   0.049  0.0625 -0.1111 -0.3868
18053W        W33862  11.872  17.159  11.738  0.0842 -0.1906 -0.4528
18054W        W33863  11.638  16.226   1.301  0.1250  0.3688 -0.1290
18055W        W33864   2.673   3.207   3.935 -0.0804 -0.0393  0.0156
18056W        W33865   6.382   9.470   5.449 -0.1156  0.1112  0.1718
18057W        W33866   7.294   0.566   0.314  0.2095 -0.1059 -0.1432
18058W        W33867   0.691  11.734   2.387  0.0025 -0.0829  0.0887
18059W        W33868  10.024   2.654   2.881 -0.1124  0.0153 -0.0336
18060W        W33869   8.944   2.955   1.491  0.1478 -0.0642 -0.2043
18061W        W33870   5.217   8.485   4.288 -0.0770 -0.3244  0.2918
18062W        W33871   5.055   2.564   4.274 -0.2489 -0.0481 -0.1787
18063W        W33872  15.227  11.692  16.609 -0.2790 -0.0127  0.1625
18064W        W33873  12.414   4.288   0.476  0.1855  0.1738 -0.1577
18065W        W33874  11.896   0.065  14.044  0.2599  0.0345 -0.0227
18066W        W33875  15.546  13.420   2.457  0.1594  0.1175 -0.1587
18067W        W33876  14.748   6.056  16.408 -0.0960  0.1580 -0.1393
18068W        W33877   9.582   7.474   4.728  0.1733  0.0985 -0.1512
18069W        W33878  16.916   8.404  15.618 -0.1586  0.1854 -0.3142
18070W        W33879  14.140  17.090  14.041 -0.0273 -0.3989 -0.4194
18071W        W33880  11.394  17.745  15.292  0.0061  0.1703  0.1593
18072W        W33881  17.241  12.793  12.728 -0.1239 -0.1158  0.3783
18073W        W33882   1.252  14.089  15.328 -0.1299  0.1666  0.2394
18074W        W33883  12.228   7.462   5.009  0.0156  0.2207 -0.3960
18075W        W33884  13.579  10.212   4.331  0.0600 -0.0223  0.1769
18076W        W33885  11.266   8.979   4.310  0.0073 -0.2735  0.2294
18077W        W33886   2.705   8.940  13.035  0.0334  0.0729  0.0123
18078W        W33887  10.987  11.833  12.675 -0.1926  0.1009  0.1988
18079W        W33888   3.273  16.284   0.044 -0.1001 -0.1776 -0.0613
18080W        W33889   4.815   0.310   4.950 -0.3418  0.0729  0.0251
18081W        W33890   3.965   7.772   1.806  0.1934 -0.1654  0.1332
18082W        W33891   0.649   9.993   4.478  0.1513 -0.0848  0.1775
18083W        W33892   2.818  13.518  15.686 -0.1046  0.1214 -0.1517
18084W        W33893   0.113  15.404   3.010  0.0178  0.0363  0.2588
18085W        W33894   0.539   0.561  16.268  0.1878 -0.2581  0.2913
18086W        W33895  13.506   0.151  13.236  0.2946  0.0223  0.1748
18087W        W33896  10.975   2.991   3.488 -0.1056  0.1127  0.0187
18088W        W33897   0.307   6.318  15.778  0.3291  0.0214 -0.2084
18089W        W33898  17.103  14.994  14.073 -0.0832  0.2640 -0.2358
18090W        W33899   4.366  12.550   0.361 -0.0874  0.1004  0.2213
18091W        W33900   5.684   9.076  16.626  0.0519 -0.0499  0.3711
18092W        W33901  16.741   7.633  14.526 -0.2698  0.0048  0.0853
18093W        W33902   4.542   0.430   1.378 -0.1360  0.0979 -0.1545
18094W        W33903   1.624  14.721  13.792  0.2532  0.0844  0.1080
18095W        W33904  12.414   8.597   0.632  0.1310  0.2741 -0.1027
18096W        W33905  11.348   0.672  13.536  0.0726  0.1346 -0.0696
18097W        W33906  11.592  13.727  13.578 -0.2097 -0.3079  0.1148
18098W        W33907  11.476   5.730  12.690 -0.0598 -0.0151  0.3293
18099W        W33908   9.099  14.831  16.213  0.1566  0.0310  0.0709
18100W        W33909   5.119  14.891   0.525 -0.4490  0.2970  0.3933
18101W        W33910  10.708   0.327   0.149 -0.3080 -0.1295  0.1731
18102W        W33911   4.694   5.476  14.657 -0.0682  0.1407  0.0579
18103W        W33912   2.455   2.833  15.618  0.0071 -0.1829  0.1703
18104W        W33913   9.741  16.211  14.504  0.3930 -0.0236  0.2132
18105W        W33914  12.687   3.203   5.785  0.1624  0.0973 -0.1400
18106W        W33915  13.469   7.053   3.300  0.0713  0.0828 -0.0399
18107W        W33916  13.002   2.043   1.916  0.1457 -0.3415 -0.1069
18108W        W33917  11.908   1.991  14.693 -0.0413  0.1535  0.0543
18109W        W33918  11.942   8.395   0.967  0.1645  0.0756  0.2221
18110W        W33919  17.383   5.466   2.391  0.0954 -0.0627  0.0689
18111W        W33920  15.510   6.876  14.595  0.1569  0.1731  0.3071
18112W        W33921  13.015   7.192   5.565  0.0809 -0.4517 -0.0622
18113W        W33922  13.565  11.656   5.711 -0.2173 -0.1201 -0.1535
18114W        W33923   8.703  12.815  13.469 -0.0553 -0.2374 -0.1581
18115W        W33924  17.213   0.031   5.117  0.0097  0.2998  0.2450
18116W        W33925  16.122   2.540   2.427  0.3256  0.0934 -0.0453
18117W        W33926  13.107   5.811   5.190 -0.1001 -0.0753 -0.1003
18118W        W33927  16.399   1.834  13.340 -0.2970 -0.0392  0.0598
18119W        W33928   5.288  10.586  15.225  0.1849  0.1826 -0.0033
18120W        W33929  17.002  13.741   5.822  0.1742  0.1667  0.1344
18121W        W33930   4.634   3.524   3.252 -0.1941 -0.2746 -0.2184
18122W        W33931  10.809  15.929  12.561  0.2406  0.0182 -0.1519
18123W        W33932  15.786  15.318  13.005  0.1701 -0.1517  0.2473
18124W        W33933  14.685  17.381  14.643 -0.1007  0.0400 -0.2449
18125W        W33934   5.539  12.690  14.891 -0.0178  0.0784  0.1217
18126W        W33935  13.190   7.241  14.663  0.0963  0.0422  0.1710
18127W        W33936  15.952  16.332  15.330 -0.2991  0.3552 -0.0127
18128W        W33937  12.056  13.818   2.789 -0.0384 -0.1226 -0.2949
18129W        W33938  14.836  10.095   0.811  0.0952 -0.2690 -0.2402
18130W        W33939  15.931  17.243   4.923 -0.0754 -0.0590  0.1408
18131W        W33940  14.802   6.157   4.630 -0.2432  0.0770 -0.2794
18132W        W33941   5.612  17.781   2.516  0.1393  0.2650  0.2654
18133W        W33942  11.365  12.835  14.357 -0.2102 -0.0947  0.0172
18134W        W33943   7.979   2.924   3.674  0.2974  0.1479  0.1469
18135W        W33944  13.382  16.680   1.200  0.3476 -0.0396  0.2729
18136W        W33945   1.617  17.279  15.291  0.0168  0.0056  0.0612
18137W        W33946  11.147   2.252   5.824 -0.1506  0.0017 -0.0645
18138W        W33947   2.839   4.548  11.811  0.0863  0.2264  0.0438
18139W        W33948  13.943   3.575   2.387  0.0547  0.3206 -0.0406
18140W        W33949   4.406  17.424  13.610 -0.0482  0.0555  0.1818
18141W        W33950   2.579   9.260   2.153  0.2120  0.0624  0.1476
18142W        W33951  11.819   0.477  13.717 -0.0697  0.3969 -0.0294
18143W        W33952   6.028  10.564  11.052 -0.0044  0.0456  0.0612
18144W        W33953  15.830  17.889  15.449  0.1223  0.1059  0.1573
18145W        W33954   5.362  10.153   4.268 -0.0851 -0.2816  0.2453
18146W        W33955  12.483  12.367  13.666 -0.0389  0.2600  0.1431
18147W        W33956  10.343   1.229  13.541  0.1822 -0.3740  0.0210
18148W        W33957   9.684  14.167  14.532  0.1106  0.2708  0.0137
18149W        W33958  13.044  14.346  12.159 -0.5336 -0.1930 -0.0377
18150W        W33959  11.122  10.011   5.454  0.3685  0.0832  0.1903
18151W        W33960  10.014   9.614  11.888  0.2827  0.0702 -0.0151
18152W        W33961  14.527  14.832  15.928 -0.1116 -0.1465 -0.1460
18153W        W33962  15.674   7.873  16.225  0.3463 -0.2621  0.0101
18154W        W33963  11.828   9.145   3.464  0.1632  0.0862 -0.2852
18155W        W33964  11.607  14.445   3.742 -0.2063  0.1330  0.0523
18156W        W33965  14.970   9.839   3.116 -0.0006  0.0833  0.2549
18157W        W33966  13.467  15.473   2.553 -0.1076 -0.0843  0.0073
18158W        W33967   1.124   6.555   0.870  0.1224 -0.0629 -0.2498
18159W        W33968  14.809  16.173  13.422  0.1020  0.1489 -0.1417
18160W        W33969   2.479   3.950  11.016  0.2023 -0.0904 -0.2360
18161W        W33970   2.601  11.170   2.094  0.3534 -0.0459 -0.0046
18162W        W33971   1.056  10.753  14.584  0.0909  0.1565  0.0930
18163W        W33972  16.856   6.251  13.091  0.0133  0.1340 -0.1640
18164W        W33973   1.165  16.433  12.811 -0.1047  0.1361  0.0477
18165W        W33974  12.804  16.482  16.598 -0.1607 -0.1637  0.0411
18166W        W33975  17.659  11.628  12.630  0.0195 -0.0653  0.0766
18167W        W33976  14.243  13.031   0.392  0.1300 -0.0227  0.0266
18168W        W33977  16.136   7.277  11.969 -0.2058 -0.2102  0.2234
18169W        W33978   9.379  10.964  16.028  0.1812 -0.3040 -0.0560
18170W        W33979  15.230  15.097  15.335 -0.0892 -0.3468  0.1330
18171W        W33980   2.485   8.729   0.483 -0.0478  0.2734  0.1641
18172W        W33981   1.604   5.812  11.846  0.0949 -0.1121  0.1224
18173W        W33982  10.432   8.119   0.842 -0.0661 -0.1520  0.1045
18174W        W33983   3.849   5.422  11.935  0.1974 -0.5460  0.2889
18175W        W33984  13.514   0.708  12.495  0.1782  0.0734 -0.1192
18176W        W33985   1.837   6.070  12.399  0.1041  0.0211  0.0319
18177W        W33986   5.599   8.914  12.816  0.2298 -0.1597  0.1256
18178W        W33987  11.128  17.092   5.197  0.1927  0.1866 -0.0179
18179W        W33988   8.395   3.552   3.928  0.0033 -0.3298 -0.1018
18180W        W33989   2.591  13.320  16.535 -0.1038  0.1834  0.1856
18181W        W33990   3.038  15.446   2.955  0.0642 -0.3236 -0.0570
18182W        W33991   9.097   7.401  14.609 -0.0079  0.0292 -0.0438
18183W        W33992   2.909  15.729  16.090 -0.2301  0.0120 -0.1074
18184W        W33993   8.345   5.794   2.525 -0.0731 -0.2248 -0.2166
18185W        W33994   8.927   8.599  11.502  0.0180  0.3900  0.1602
18186W        W33995  17.224  16.907  11.306  0.0552 -0.2986 -0.3424
18187W        W33996   3.581   0.136   4.260  0.1532 -0.0976  0.1769
18188W        W33997  11.312  15.010  14.598 -0.1447 -0.1219  0.0144
18189W        W33998   7.745  12.090   1.370  0.0320  0.0251  0.2624
18190W        W33999  15.319   9.933  11.791 -0.0024 -0.0381 -0.2458
18191W        W34000  17.685  17.209  12.785 -0.1487 -0.1922  0.0407
18192W        W34001  11.516   3.764  14.131 -0.0609  0.1785  0.5193
18193W        W34002   1.991  12.090  13.644  0.1277  0.3108 -0.2184
18194W        W34003  16.933  13.694  11.697  0.0187  0.1781  0.1346
18195W        W34004  13.501   2.930   1.289 -0.1897  0.2455  0.1220
18196W        W34005  12.749  14.638   1.846  0.0661 -0.0644  0.1288
18197W        W34006  11.443   2.686  11.995  0.2292 -0.1219  0.0864
18198W        W34007   3.224  17.683   4.228  0.1517  0.0012  0.1102
18199W        W34008  17.657   5.625   1.404  0.1190  0.2655  0.1671
18200W        W34009  11.585  15.767  15.809 -0.3155  0.0357 -0.0425
18201W        W34010  16.894  15.620   4.047 -0.0240  0.1918  0.1772
18202W        W34011   8.065  17.079  15.542 -0.1052 -0.1981 -0.0895
18203W        W34012   5.749  13.274   0.961 -0.1889  0.5922 -0.1646
18204W        W34013   0.910  17.803  11.429  0.2804  0.4252  0.0658
18205W        W34014   1.447   6.082  13.140  0.0342 -0.1522  0.0689
18206W        W34015  10.807  15.663  11.489 -0.1129 -0.1627 -0.1863
18207W        W34016  17.691   4.544   1.746  0.1478 -0.2499  0.0362
18208W        W34017   5.438   9.486   2.890 -0.0770  0.0974  0.0238
18209W        W34018  17.867  11.696  16.253  0.0915  0.1073 -0.3486
18210W        W34019  15.579   9.989   1.483  0.1916  0.0101 -0.3472
18211W        W34020  13.102   6.175   3.929  0.0148  0.1370  0.2349
18212W        W34021   0.722   9.129   3.666  0.0808  0.0588 -0.1372
18213W        W34022  14.924  12.874   2.952 -0.3741  0.1563  0.0664
18214W        W34023  17.122   7.111  14.365  0.0728  0.1319 -0.2288
18215W        W34024  12.490  13.793   5.786  0.0328 -0.3990  0.2038
18216W        W34025  14.717   2.961  15.261  0.2295 -0.0248  0.1187
18217W        W34026   1.057   0.941   5.772  0.4572  0.0593  0.1495
18218W        W34027   3.992  17.290   1.875  0.0097  0.0913 -0.0392
18219W        W34028   7.858   4.150   4.415  0.1266  0.2642  0.0669
18220W        W34029   5.249   4.355   5.038 -0.1238  0.0513  0.5108
18221W        W34030   7.251   3.367   3.353  0.0798 -0.2185 -0.1722
18222W        W34031  15.791   6.614  14.150 -0.5567  0.1589  0.1213
18223W        W34032   0.612   6.010  13.642  0.1316  0.0765 -0.0689
18224W        W34033   6.785   8.504  11.447  0.0751  0.0032  0.0648
18225W        W34034  11.751   3.508   4.776 -0.1061 -0.1415  0.1918
18226W        W34035   2.809   3.180  13.645 -0.0513  0.0584 -0.0775
18227W        W34036   9.555   2.267   3.752 -0.0772  0.0221  0.0955
18228W        W34037   6.369  11.836   0.322  0.0269  0.0467 -0.1401
18229W        W34038   5.327   6.414  12.296  0.0931  0.1452  0.4725
18230W        W34039   7.993  15.735  15.338  0.0902  0.1697  0.1621
18231W        W34040  16.183   0.101   4.709  0.0163  0.0356 -0.0853
18232W        W34041  16.638  11.214   3.995 -0.0121  0.1460 -0.1239
18233W        W34042   0.987  17.357  16.249  0.0682 -0.1125  0.2535
18234W        W34043  17.252  13.006  13.205 -0.1702  0.1019 -0.1956
18235W        W34044  17.401  12.323   0.623 -0.1154  0.0539  0.1817
18236W        W34045   5.494   2.400  16.477  0.0001  0.0768 -0.0385
18237W        W34046   9.528  12.454   0.762 -0.0029  0.2514 -0.1078
18238W        W34047   5.228   3.000   1.658  0.1011 -0.3838  0.0489
18239W        W34048  16.923   1.357   2.434  0.3279 -0.3277 -0.3077
18240W        W34049  13.048   5.499  12.162 -0.1183 -0.0975 -0.1888
18241W        W34050   6.548  12.145   2.741 -0.0415 -0.2597 -0.0996
18242W        W34051   6.462  11.901  13.949 -0.1219  0.1584 -0.1757
18243W        W34052   1.665   4.566  15.027  0.1959 -0.1157 -0.1980
18244W        W34053   9.330   7.511   6.117 -0.0092 -0.0784 -0.1742
18245W        W34054  16.878  11.708  16.618 -0.0610  0.2651 -0.2882
18246W        W34055   1.490  12.883  13.853 -0.2837 -0.0973  0.1398
18247W        W34056   5.788   9.843  12.820  0.2528  0.3488  0.1469
18248W        W34057  11.607   1.573   0.619 -0.2381 -0.1567 -0.0693
18249W        W34058   1.353  10.121  10.814  0.2382  0.1325 -0.3253
18250W        W34059   2.239  12.624   4.745 -0.0722 -0.1780  0.0558
18251W        W34060   8.205   2.816   2.823 -0.2251 -0.0317  0.0123
18252W        W34061  11.631   2.437   4.004 -0.2572 -0.1103 -0.2020
18253W        W34062   4.351   4.768  15.292  0.3055 -0.1049 -0.1329
18254W        W34063  13.429  10.778   5.362  0.0319 -0.1168 -0.1454
18255W        W34064  11.995  11.678   2.041  0.0512  0.4574 -0.1283
18256W        W34065  17.688  11.477  11.319 -0.2028  0.1951  0.3426
18257W        W34066  15.793   4.808   5.185  0.1110 -0.1845  0.2511
18258W        W34067  12.536   9.796  14.569 -0.0150 -0.3322 -0.1957
18259W        W34068  14.235  14.808   0.639  0.0927  0.0172  0.1406
18260W        W34069  16.166  14.049  16.421 -0.1078  0.1720 -0.6418
18261W        W34070  11.601  11.484   2.624  0.0422  0.0526  0.1222
18262W        W34071   1.399  11.421   5.059  0.2942 -0.0663 -0.2888
18263W        W34072  11.901   7.619   3.889  0.0721 -0.0326 -0.0392
18264W        W34073  10.353  13.585  14.127  0.0803  0.1495 -0.0429
18265W        W34074  16.646  13.973  11.982  0.1123 -0.0590  0.0558
18266W        W34075  11.945  10.987  12.216 -0.3057  0.0989  0.1809
18267W        W34076   8.628   7.798  11.675  0.2281  0.1730  0.5573
18268W        W34077   2.360   2.262   0.788  0.0999  0.1416  0.2291
18269W        W34078  14.073  10.301   5.772 -0.2488 -0.0378  0.1982
18270W        W34079   4.148   2.101   1.938  0.1150 -0.2001 -0.1525
18271W        W34080   5.112   5.210  15.340  0.1785 -0.2745 -0.2485
18272W        W34081  16.516   1.186   0.346 -0.2107 -0.1381 -0.0860
18273W        W34082  13.364   2.456  10.772  0.1296 -0.1011  0.0738
18274W        W34083  10.936  15.064   4.001  0.0584  0.3335 -0.1425
18275W        W34084   5.874   2.150  13.497 -0.1393 -0.0173 -0.2947
18276W        W34085   6.257  16.312  12.888  0.3531  0.1070  0.0871
18277W        W34086  16.331   6.078   5.061 -0.0898  0.1862  0.0217
18278W        W34087   4.565  10.475   0.252  0.3418  0.1495  0.2132
18279W        W34088   2.769   7.362  14.051 -0.0311  0.4749  0.1063
18280W        W34089  12.606   5.888   5.185 -0.0747 -0.2721 -0.0323
18281W        W34090  17.070   5.930   3.150 -0.3064 -0.5154 -0.1167
18282W        W34091  14.856  14.906   4.556  0.0087 -0.0262  0.2034
18283W        W34092   6.207  14.394  12.098 -0.1944 -0.1193 -0.1319
18284W        W34093  14.512  12.903  16.682 -0.2264 -0.3583  0.0165
18285W        W34094   5.752   6.628   4.613  0.3021 -0.2645  0.2263
18286W        W34095   7.667  13.751   4.312 -0.3707 -0.1172 -0.0538
18287W        W34096   9.600  17.444   4.869  0.2357  0.0849  0.3042
18288W        W34097  10.670  16.975   3.695 -0.3222 -0.0548 -0.3102
18289W        W34098  14.276  16.768  11.878  0.0258 -0.0565  0.2120
18290W        W34099  16.813   0.299  13.432  0.1199  0.0380  0.4048
18291W        W34100   0.449  16.264  15.381  0.0801 -0.0372  0.0187
18292W        W34101   5.248  15.692   0.022  0.1487 -0.0297  0.1712
18293W        W34102  14.775   7.259   2.693 -0.0169 -0.1492 -0.0319
18294W        W34103   3.422   2.757  11.538 -0.1978 -0.1302  0.1741
18295W        W34104  15.338  16.749  12.273 -0.0654  0.1794  0.2338
18296W        W34105   8.007   5.141   2.891 -0.0358  0.0302  0.1855
18297W        W34106   8.615   7.529   5.690 -0.0757 -0.0060  0.3329
18298W        W34107  10.336   4.194   0.499  0.0086  0.0956  0.0543
18299W        W34108   7.203  10.689  11.852  0.0003 -0.1525 -0.1675
18300W        W34109  15.510  14.009   4.395  0.1062  0.3461  0.1539
18301W        W34110  14.064  11.813  14.711  0.5457 -0.2648 -0.0000
18302W        W34111   1.925  15.423  12.550  0.2164 -0.0229  0.1099
18303W        W34112   6.055  17.081  15.783 -0.3183  0.1277 -0.1078
18304W        W34113   1.787   2.779  15.088  0.2007 -0.3337  0.2486
18305W        W34114  14.647  10.769  12.704  0.0402  0.2690 -0.1966
18306W        W34115   4.709  16.726   3.254 -0.0886 -0.0609 -0.0623
18307W        W34116  11.219  13.820  11.248 -0.0225  0.0507 -0.0612
18308W        W34117   5.072  16.774  13.278  0.0140 -0.1138 -0.2128
18309W        W34118   3.126   8.248  14.979 -0.1595 -0.2153  0.0749
18310W        W34119  10.319  15.312   2.903  0.1304 -0.0176  0.1645
18311W        W34120  15.523  14.404   2.214 -0.1926  0.0945  0.1245
18312W        W34121  11.357  12.786   4.892  0.1939  0.0546  0.3081
18313W        W34122   4.977   9.050  15.846  0.0278 -0.2566  0.1261
18314W        W34123   4.785   0.960  12.093 -0.0700  0.1245  0.1267
18315W        W34124   6.263   6.808  12.006  0.3221 -0.0621 -0.0161
18316W        W34125  10.094  11.802  11.944  0.1181  0.2628 -0.0892
18317W        W34126  10.125  14.737  13.468  0.3163  0.2684  0.1543
18318W        W34127   4.179   6.644   4.572 -0.2585 -0.1932  0.3277
18319W        W34128  14.079  11.045   1.686  0.0758  0.2700  0.0691
18320W        W34129   9.127  11.227  12.202  0.0582 -0.0321  0.1088
18321W        W34130  15.800  12.670   3.540 -0.0428 -0.4026  0.1475
18322W        W34131  12.228   7.902   1.709 -0.2294  0.4106  0.0939
18323W        W34132  14.825  17.620   3.165 -0.0776  0.0857 -0.3804
18324W        W34133   1.012   2.647   4.417  0.2217 -0.2283  0.1002
18325W        W34134  13.544   9.959   1.970  0.0621  0.3242 -0.3929
18326W        W34135   4.329   7.645  10.943 -0.1949  0.1882  0.1395
18327W        W34136   1.738  12.955   3.823 -0.0553  0.0961 -0.1671
18328W        W34137  15.066   5.887   5.082  0.0241 -0.2677  0.1433
18329W        W34138  16.371   7.653   3.347  0.0066  0.0764  0.1212
18330W        W34139   1.033  12.385   2.892 -0.1778 -0.0575 -0.0118
18331W        W34140  11.113   1.419  13.052 -0.2943  0.1347  0.2741
18332W        W34141  11.717   6.560  12.855  0.4232  0.3024  0.0592
18333W        W34142  17.700   6.893  11.304  0.2204  0.4175 -0.1721
18334W        W34143   0.818   5.661  15.136  0.3287  0.0901  0.1791
18335W        W34144   2.917   9.652  13.719  0.2177 -0.0471  0.0684
18336W        W34145  11.630  11.697   5.990  0.0348 -0.0475 -0.0809
18337W        W34146  10.798  12.294  11.877  0.0603 -0.0479 -0.1613
18338W        W34147   2.257  10.250  15.298 -0.4449  0.0258  0.0664
18339W        W34148   3.638   9.504  10.730  0.2240  0.2399  0.1470
18340W        W34149  12.430  15.975   1.678 -0.2163  0.0851  0.0879
18341W        W34150   2.057   9.325   3.397 -0.0611 -0.2239 -0.4097
18342W        W34151   4.532  15.762  11.570 -0.1807  0.0151  0.0681
18343W        W34152   9.179  17.876  14.498  0.1638 -0.0652  0.2309
18344W        W34153  14.914  15.563   4.051  0.1416  0.1645  0.0820
18345W        W34154  16.674   9.526  14.963  0.1135  0.0120 -0.0657
18346W        W34155   6.238  17.835  11.840 -0.1654 -0.2077 -0.1777
18347W        W34156   2.351   1.795  13.412  0.1099  0.2583 -0.0688
18348W        W34157  17.389   9.775  11.905  0.1052  0.1596  0.1183
18349W        W34158  14.862  14.469  13.206 -0.0036 -0.0302  0.1960
18350W        W34159  11.984   7.070   2.240  0.2882  0.3450 -0.2597
18351W        W34160   2.716  12.852  12.446  0.0888 -0.0966  0.1351
18352W        W34161   9.255   8.223   3.738 -0.0380 -0.0859 -0.0137
18353W        W34162  16.512  10.339   3.074  0.1308 -0.0928  0.0533
18354W        W34163   4.939   1.152   4.431  0.0344  0.1134 -0.1593
18355W        W34164   4.510  17.746  13.946 -0.3028  0.1884 -0.2534
18356W        W34165  13.153   5.277   1.927  0.0861 -0.0697 -0.0003
18357W        W34166  15.285  15.280  13.162  0.1032  0.0437 -0.3334
18358W        W34167   0.706   0.609   3.396 -0.1840  0.1721 -0.0321
18359W        W34168  13.342  10.634   4.424 -0.2118 -0.3392  0.1796
18360W        W34169   5.970  12.551   2.889 -0.0569 -0.2017 -0.2726
18361W        W34170  14.253  10.545  11.898 -0.0212  0.0552  0.2703
18362W        W34171  13.232   3.315   0.986 -0.1902  0.1531  0.0796
18363W        W34172   2.709   8.657   3.643  0.0039  0.0436 -0.0626
18364W        W34173   9.846  11.594   3.695 -0.1284  0.3629 -0.4408
18365W        W34174   2.503  12.922   5.062  0.1103  0.0231 -0.1976
18366W        W34175   9.041   8.569   5.744  0.0187  0.1682 -0.1672
18367W        W34176  15.702  16.073   4.174 -0.0641  0.0147 -0.0742
18368W        W34177  12.195   8.236  12.164  0.4441  0.1783 -0.2653
18369W        W34178   7.108  15.959  13.739  0.0511  0.1084 -0.1586
18370W        W34179   4.843   1.727   0.498 -0.2210  0.0556  0.0192
18371W        W34180   1.920  10.319  11.380 -0.0935 -0.0634 -0.0141
18372W        W34181  10.900   2.213  12.057 -0.2114 -0.1522  0.1054
18373W        W34182   8.938  14.403   5.020 -0.3057  0.0594 -0.0735
18374W        W34183  16.289   6.082  13.261  0.0418  0.1359 -0.1040
18375W        W34184  11.563  11.226  16.477  0.3338 -0.3133 -0.0761
18376W        W34185   5.486   4.799  11.736 -0.2040 -0.0530  0.2227
18377W        W34186  14.050   8.998   0.518 -0.1197  0.2344 -0.0247
18378W        W34187   5.802   3.243   6.089  0.1754 -0.2216  0.0263
18379W        W34188  11.959   1.091  12.777 -0.0807  0.0481 -0.3567
18380W        W34189   8.681   3.602  15.811 -0.0348  0.3428  0.2655
18381W        W34190   6.547   1.530  12.091  0.1757 -0.0277 -0.0260
18382W        W34191  13.844  15.962   2.878 -0.3124  0.0062 -0.2995
18383W        W34192   4.101  10.171  15.895 -0.3234 -0.4324  0.0076
18384W        W34193   6.435   8.732  16.212 -0.0601  0.2196 -0.0135
18385W        W34194  17.331  16.468   4.749 -0.1137 -0.0992  0.2163
18386W        W34195  13.365  14.754  15.942  0.0711  0.1364  0.0486
18387W        W34196  15.424   8.385   4.572  0.3967 -0.1616  0.1926
18388W        W34197   0.029  15.470   0.553  0.0815  0.1352  0.1296
18389W        W34198   0.658  16.949   0.599  0.0031 -0.1453 -0.0946
18390W        W34199   1.940  14.064   1.839 -0.0921 -0.0264  0.1696
18391W        W34200  12.899  17.841   5.316  0.0119  0.0334  0.3365
18392W        W34201   9.098   1.556  14.412 -0.0352 -0.1438  0.0270
18393W        W34202  13.704   8.090  14.092  0.2454 -0.0718  0.0500
18394W        W34203   3.560  13.269   2.852  0.0193 -0.1885  0.1142
18395W        W34204   2.456   8.592   5.418  0.0816  0.0497 -0.3672
18396W        W34205  10.678  17.735  14.387  0.2239  0.4376 -0.1332
18397W        W34206   8.564   0.727   4.245  0.0200  0.3314 -0.2796
18398W        W34207   6.753   2.407  16.159 -0.0266 -0.1137  0.1986
18399W        W34208   2.031  15.098   4.240 -0.0476 -0.0494 -0.0200
18400W        W34209  13.543  13.105  15.938 -0.1582 -0.1436 -0.1955
18401W        W34210  11.162   7.200  15.779 -0.1756  0.1990  0.3194
18402W        W34211   5.557   1.689   1.723 -0.2509  0.0440  0.1203
18403W        W34212   0.556  12.869   4.613  0.1079 -0.0487 -0.1257
18404W        W34213  12.285  16.558  11.093 -0.0149  0.0137  0.1970
18405W        W34214   3.780  10.996   4.045  0.3414 -0.0679  0.1688
18406W        W34215   0.765  14.801  14.282  0.0141  0.1129 -0.4332
18407W        W34216  16.560  15.909   1.436 -0.0294  0.0947  0.0933
18408W        W34217   1.741   6.607   5.419 -0.2399  0.0316 -0.2311
18409W        W34218   0.737   0.589   4.070 -0.0869  0.3528 -0.1870
18410W        W34219  12.499   4.811  16.431 -0.1193  0.0757  0.0139
18411W        W34220   1.747   8.928   1.791 -0.2427  0.2871 -0.1514
18412W        W34221  10.229  17.861   4.724 -0.1224  0.3754  0.1472
18413W        W34222  12.637   5.899  13.023  0.3918  0.0545  0.0436
18414W        W34223   0.862   6.974  12.707 -0.0351  0.0157  0.0746
18415W        W34224   8.729   3.973   0.725  0.2008  0.2418 -0.0839
18416W        W34225   3.287   8.280   1.003 -0.3273  0.0823  0.0412
18417W        W34226  10.711  11.197  14.047 -0.3521  0.0114 -0.0612
18418W        W34227   2.037   7.445   1.173  0.1055 -0.1492  0.1618
18419W        W34228   3.146   5.165  15.615 -0.1616 -0.0579  0.0343
18420W        W34229  10.904  10.960   4.890  0.0603 -0.1259 -0.0650
18421W        W34230   5.485  10.537  10.132  0.2157  0.0380  0.1598
18422W        W34231  14.431   2.047   2.233  0.1084 -0.0411 -0.2269
18423W        W34232  15.823   1.112  13.238  0.0338  0.1873  0.2478
18424W        W34233   9.533   1.197  14.208  0.0175 -0.0764  0.0751
18425W        W34234  11.105   4.415  13.529  0.0709 -0.2066 -0.0551
18426W        W34235  11.986   8.669   3.450  0.2384  0.1204  0.1053
18427W        W34236   6.782  12.945   5.240  0.0413  0.2983 -0.0346
18428W        W34237   3.378   9.282   0.682  0.0789 -0.0038 -0.3302
18429W        W34238   4.502  11.206  10.757  0.0392  0.0021  0.1505
18430W        W34239  10.733   9.089  14.559 -0.1579  0.0625  0.2761
18431W        W34240   6.772   6.924  16.674 -0.2175  0.2363 -0.1939
18432W        W34241   4.563  17.895   2.413 -0.1836  0.0414  0.0608
18433W        W34242   7.152  14.284  12.224  0.0011 -0.1374 -0.1038
18434W        W34243   5.893   0.974  12.301 -0.0599  0.4278  0.1979
18435W        W34244   6.064   4.376   0.920  0.3140 -0.1093 -0.0426
18436W        W34245  16.248   4.200   2.845 -0.1531  0.1390 -0.0976
18437W        W34246  16.954   5.581  14.500  0.2169  0.1619 -0.3021
18438W        W34247   5.453  12.311  15.271 -0.2030  0.1553 -0.0312
18439W        W34248   0.211   1.008  15.573  0.1639  0.0564 -0.1176
18440W        W34249   4.316   8.796   2.449 -0.2397  0.3117  0.1637
18441W        W34250  11.991   9.146   2.692 -0.1013  0.0737 -0.1867
18442W        W34251   3.347   1.896  16.247  0.0159 -0.2780 -0.1126
18443W        W34252  16.472   7.547  16.261 -0.1470  0.0307 -0.2120
18444W        W34253  10.415  14.746   2.906  0.0976  0.0566  0.1069
18445W        W34254  14.659   2.640  14.944 -0.0607 -0.0328 -0.0680
18446W        W34255   8.963  12.196  14.125 -0.0372  0.2078 -0.0655
18447W        W34256  15.575   2.677  11.530 -0.1832  0.0437 -0.2376
18448W        W34257  14.111  15.648   1.164  0.0012  0.1558  0.2902
18449W        W34258   9.219   3.694  13.985  0.1390 -0.0252  0.1646
18450W        W34259  17.582  17.737  12.742 -0.0897  0.2227  0.1364
18451W        W34260   0.070   1.647   3.897  0.1605  0.1098  0.0709
18452W        W34261  13.281   4.622  13.579  0.2583 -0.1765  0.1315
18453W        W34262   7.658  12.196   3.769 -0.1482 -0.0335 -0.1993
18454W        W34263  12.772  17.874   1.697  0.0382 -0.0071 -0.1426
18455W        W34264   3.000  14.842  16.367 -0.0118  0.2305  0.2266
18456W        W34265  16.086   3.641   2.725  0.2439  0.2366  0.2894
18457W        W34266   1.495   0.598  12.192 -0.0362  0.0533 -0.1738
18458W        W34267   5.025   7.849  15.132  0.0334 -0.0606  0.1186
18459W        W34268   6.524   7.216   0.304  0.0298 -0.0968  0.1751
18460W        W34269  15.130   7.055   2.406 -0.0572  0.1449 -0.3170
18461W        W34270   7.936   7.243   4.401 -0.0897  0.2111 -0.1349
18462W        W34271   2.024  10.417   5.176  0.0671  0.0370 -0.0686
18463W        W34272   9.401   4.230   6.672  0.0287  0.1389  0.1073
18464W        W34273   2.443   3.421   2.782 -0.0088 -0.2143  0.0331
18465W        W34274   7.902  15.471   0.130  0.0271 -0.2621 -0.1885
18466W        W34275   6.446   5.559   0.806 -0.0616  0.4633 -0.2956
18467W        W34276  11.756  13.489   1.863  0.1080 -0.0119  0.0505
18468W        W34277  14.605   1.765  11.426 -0.0392 -0.0499  0.0166
18469W        W34278   3.045  15.962   4.897  0.0824  0.3990 -0.1966
18470W        W34279   5.902   3.489   5.230  0.0843  0.1450 -0.0450
18471W        W34280  12.360   0.770  16.319 -0.2557  0.0196  0.1464
18472W        W34281  14.395   4.469   6.433 -0.1678  0.0392  0.1501
18473W        W34282   1.176  15.498  13.141 -0.2880  0.0719 -0.2907
18474W        W34283   5.749  14.236  13.831 -0.1173  0.1682 -0.0491
18475W        W34284  17.575   4.541   2.276  0.2877 -0.0279 -0.2737
18476W        W34285   1.758   8.101  11.419  0.1153 -0.2014 -0.0845
18477W        W34286  14.674   0.133   0.002  0.0937 -0.1049 -0.0982
18478W        W34287   4.747   0.301  12.259 -0.1844  0.0492  0.0721
18479W        W34288   5.633  15.330  16.696  0.2828  0.2365  0.0741
18480W        W34289  10.634   7.882   5.569  0.3331  0.0821  0.2924
18481W        W34290  10.204  17.587   3.585  0.0446  0.4738 -0.1212
18482W        W34291   2.270  14.411  10.350  0.0840 -0.0578 -0.0854
18483W        W34292   7.452  13.306  13.813  0.0195  0.0881  0.2809
18484W        W34293   5.776  15.138   4.342  0.2910 -0.0564 -0.1734
18485W        W34294  14.362   4.521  11.560 -0.0063  0.2581 -0.5325
18486W        W34295   1.465  14.174  14.229 -0.1833 -0.0987 -0.1835
18487W        W34296   8.244  16.827  16.441  0.1073  0.2150 -0.1499
18488W        W34297   8.733  17.006   6.034  0.0986 -0.0637  0.2153
18489W        W34298  15.789  13.146   3.331  0.0892  0.0407 -0.2116
18490W        W34299  14.861   2.615   4.477  0.0672 -0.1352  0.0896
18491W        W34300  12.772  17.835  14.380  0.1571  0.2706  0.2145
18492W        W34301   7.789  11.980  13.421  0.1589  0.0515  0.4401
18493W        W34302   6.227   8.243  14.968 -0.2858  0.2141 -0.1701
18494W        W34303  10.667   7.894   4.678  0.0337 -0.0318 -0.1802
18495W        W34304   0.178  12.816   1.140  0.2364  0.1381 -0.3139
18496W        W34305  14.505  15.309   2.807  0.1471  0.1595  0.3176
18497W        W34306   5.805  17.165   5.622  0.1602 -0.4608  0.0105
18498W        W34307   8.591   6.329   2.000  0.0027 -0.1745  0.2047
18499W        W34308  16.886  17.433   4.544 -0.1304  0.3301  0.1241
18500W        W34309  17.527  15.753  16.605 -0.0617  0.0432 -0.0001
18501W        W34310   1.292   8.527  13.898  0.0581 -0.1773  0.2818
18502W        W34311  11.055  12.271   4.370  0.1194 -0.2771 -0.1363
18503W        W34312  11.860   1.128   2.293  0.0440  0.2622  0.0841
18504W        W34313  10.309   1.471   4.798 -0.1645  0.1875 -0.1401
18505W        W34314   8.779   6.858  16.674 -0.3697  0.4500  0.0956
18506W        W34315  17.228  12.876  15.790  0.2929 -0.0812 -0.2046
18507W        W34316  11.728   8.683   5.678  0.2322 -0.0169 -0.0213
18508W        W34317   3.981  11.351   1.969 -0.0013 -0.0431 -0.1513
18509W        W34318   8.742   2.236   4.550 -0.2380  0.1048 -0.1424
18510W        W34319  10.979  15.080  12.679  0.0823  0.1653  0.1469
18511W        W34320  15.018   4.219  15.551 -0.0110  0.1587  0.0371
18512W        W34321  10.898   6.958  11.523 -0.0384 -0.1583  0.1850
18513W        W34322   7.729  12.312  11.971  0.1170  0.0517 -0.0308
18514W        W34323   9.468  15.536   0.402  0.0725  0.0752 -0.0715
18515W        W34324   5.558  10.809   3.547  0.1638  0.4316 -0.1656
18516W        W34325  12.537   3.448   4.341  0.0292  0.0006  0.1142
18517W        W34326   5.489   8.661  14.616  0.0887  0.1545  0.3286
18518W        W34327   9.135   5.962   4.004 -0.0326 -0.3338 -0.3642
18519W        W34328  17.365   7.857   2.047  0.1407 -0.2870 -0.1059
18520W        W34329  11.235   5.701   0.061 -0.0395 -0.0868  0.1129
18521W        W34330  17.710   3.194  12.165 -0.0038  0.3246  0.2210
18522W        W34331  14.595  17.062   3.671  0.0274 -0.0217  0.1610
18523W        W34332   2.484  12.736  15.662 -0.0322 -0.2055 -0.0808
18524W        W34333   4.166  14.236   2.692  0.0145 -0.1846  0.0331
18525W        W34334  11.107   8.701  12.057 -0.4146 -0.0993 -0.0316
18526W        W34335   4.589   5.130  13.116  0.0617  0.0629  0.1467
18527W        W34336   7.582  16.969   0.897 -0.0991  0.1045  0.4504
18528W        W34337   7.835   9.665  15.673  0.0375 -0.1609 -0.2315
18529W        W34338  13.182  10.784   3.628  0.0145 -0.2834 -0.1970
18530W        W34339  16.946  13.601  16.307  0.0684 -0.0020 -0.0779
18531W        W34340   3.851  11.477   1.391  0.2046  0.0235  0.0076
18532W        W34341   5.107   8.065  11.259 -0.0959  0.0709 -0.0429
18533W        W34342   6.337   3.344   3.285 -0.2692 -0.1799  0.3378
18534W        W34343   3.908   3.463  15.197  0.0033  0.0287 -0.0150
18535W        W34344  16.193  10.652   5.065 -0.1666  0.0069 -0.0747
18536W        W34345  17.646  17.594  16.550 -0.0970 -0.0909 -0.0014
18537W        W34346   1.241   5.705   3.112 -0.2402 -0.2442 -0.2079
18538W        W34347   7.266   6.654   1.246 -0.0104 -0.1903  0.0728
18539W        W34348   9.197   1.065   5.794  0.0755 -0.3961 -0.0957
18540W        W34349  11.722   0.025   4.060 -0.0621 -0.0324 -0.3359
18541W        W34350   8.049  16.473  12.591 -0.1622 -0.2099  0.2339
18542W        W34351  10.731  13.861  15.618  0.2113  0.2885 -0.1672
18543W        W34352  15.290   0.419   4.868  0.0026 -0.0238 -0.0969
18544W        W34353   9.919   0.680   4.342  0.1552  0.0176 -0.0431
18545W        W34354  11.361   0.171  14.940 -0.0253 -0.0151 -0.0516
18546W        W34355   1.120   3.264   3.121 -0.1429 -0.1837  0.0035
18547W        W34356   5.406  13.491  11.377  0.1296  0.0999 -0.0232
18548W        W34357  14.631  17.622   0.319  0.0277 -0.3271  0.0675
18549W        W34358   7.735  11.161  12.802  0.0063  0.0542 -0.3076
18550W        W34359   7.639   7.363   6.188 -0.0409  0.2227 -0.0994
18551W        W34360  12.969  10.281   3.538 -0.0164  0.0888  0.0925
18552W        W34361   9.726   5.386  16.466  0.1437  0.0251 -0.0731
18553W        W34362   2.857   5.589  14.813  0.0867  0.0944 -0.0006
18554W        W34363  15.214   5.743   1.750 -0.2340 -0.2726  0.3593
18555W        W34364   8.610   5.326  12.935  0.3697 -0.1413  0.2068
18556W        W34365  10.452   8.883  11.258  0.3998  0.1201  0.1800
18557W        W34366  17.748   1.103  13.947 -0.0257  0.0034 -0.0015
18558W        W34367   5.430  15.670  14.030 -0.1214 -0.0345  0.2712
18559W        W34368   9.874   5.384   1.291 -0.0275 -0.3264  0.0824
18560W        W34369  17.716  12.414  11.498 -0.0882 -0.0983  0.0798
18561W        W34370   7.308   5.079   4.365  0.2525  0.1853 -0.0248
18562W        W34371  16.458  16.234  13.597 -0.2165  0.1413 -0.1713
18563W        W34372   3.658  14.147   4.771  0.2005  0.0643  0.1394
18564W        W34373  14.283  15.672   3.100 -0.1711 -0.2363  0.0889
18565W        W34374   1.345   1.219   4.852  0.0228  0.0892  0.0373
18566W        W34375  16.855  10.743  12.563  0.0492 -0.1914  0.1940
18567W        W34376   2.258   3.795  16.682  0.2911 -0.3421 -0.2406
18568W        W34377   1.037   2.381  14.399 -0.2049  0.0799 -0.2599
18569W        W34378   2.341   4.915  12.685  0.0591  0.2523 -0.0056
18570W        W34379   8.554   1.893  13.642 -0.1053 -0.3225 -0.0078
18571W        W34380  12.178  13.388   0.881 -0.0371 -0.2333 -0.0948
18572W        W34381  16.899   5.407  16.350 -0.0778  0.1060 -0.2521
18573W        W34382   4.521   9.180  14.618  0.0709 -0.0527 -0.0322
18574W        W34383   5.984  17.065   3.881 -0.1232  0.0959 -0.1877
18575W        W34384   8.257   6.390   1.327 -0.0244 -0.0249 -0.0930
18576W        W34385  13.031  10.558  15.206  0.1609 -0.1933  0.0878
18577W        W34386   4.833  13.539   4.568 -0.1189 -0.0046 -0.0988
18578W        W34387   3.309   0.640   0.416  0.0458 -0.3306 -0.0461
18579W        W34388   1.636   4.234   0.474  0.0629  0.3352 -0.2016
18580W        W34389  14.864  11.338   3.452 -0.1387 -0.3404  0.2051
18581W        W34390  14.696   3.751  15.571  0.0193  0.2761 -0.0540
18582W        W34391   3.021   8.406  11.299  0.1053 -0.1653 -0.0341
18583W        W34392   8.051  17.062   2.729  0.0967  0.0621  0.0989
18584W        W34393   6.508   2.614  12.260  0.0902 -0.1449 -0.0138
18585W        W34394  12.002   3.773   5.083  0.3552 -0.0643 -0.2059
18586W        W34395  17.842   8.273   4.574  0.1265 -0.0448 -0.0684
18587W        W34396   6.517  15.224  12.353  0.1747  0.0849 -0.1167
18588W        W34397  11.863   6.918  13.189 -0.0765 -0.2139 -0.1521
18589W        W34398  12.819  14.737   0.174 -0.0659  0.0040  0.0521
18590W        W34399   6.467   5.970  14.031  0.1032  0.3993  0.0740
18591W        W34400  10.053   3.501   3.614 -0.1124 -0.1258 -0.3292
18592W        W34401  17.058  14.923   0.206  0.0788  0.0950 -0.0526
18593W        W34402  10.985  13.912   4.241  0.1246 -0.0646 -0.0868
18594W        W34403  10.657  16.271   1.050  0.0834 -0.5349  0.1386
18595W        W34404   9.923  11.868  12.513 -0.1587  0.0641 -0.0604
18596W        W34405   6.148   3.198   5.735  0.3605 -0.3529 -0.2471
18597W        W34406   7.451   8.860   1.705 -0.1022 -0.1530  0.1845
18598W        W34407  13.337   7.583   3.147 -0.3179  0.1124  0.2986
18599W        W34408  15.658  12.428  16.275  0.0041  0.1209  0.3948
18600W        W34409  11.027  16.500  16.077 -0.1136  0.0965  0.1033
18601W        W34410   2.656   1.335  16.334  0.0806 -0.3280  0.0577
18602W        W34411  14.958  15.842  11.866  0.3664  0.2034  0.0877
18603W        W34412   5.068  12.272  13.454 -0.0417 -0.0770  0.1620
18604W        W34413   9.850  13.833   1.318  0.0934  0.1997 -0.0195
18605W        W34414  14.840   2.233  14.066  0.3544  0.3165  0.0119
18606W        W34415   4.481  16.408   2.856  0.2494  0.2215 -0.1171
18607W        W34416   0.908  12.521   0.517 -0.0552  0.0645 -0.0318
18608W        W34417   0.800   5.240   1.667 -0.0439 -0.2041  0.0441
18609W        W34418  16.959   3.041  12.437 -0.1881 -0.2228 -0.1664
18610W        W34419  15.554   1.988  15.448 -0.1520 -0.0073  0.0409
18611W        W34420  16.272  16.353   0.150  0.1541  0.1718 -0.0777
18612W        W34421   6.379   2.243   0.181  0.0019 -0.0884  0.2233
18613W        W34422  12.125  11.966   3.532  0.0026 -0.2118  0.1079
18614W        W34423   6.074   6.495  11.613  0.0858  0.1891  0.0437
18615W        W34424  16.973  17.846  14.869 -0.1743 -0.2649  0.1447
18616W        W34425  16.390   2.354  11.705 -0.0041 -0.2243 -0.1470
18617W        W34426   3.942   1.404   3.873  0.2211 -0.0904  0.0299
18618W        W34427   7.615   0.438   1.365 -0.2317  0.0687 -0.2400
18619W        W34428   2.889   5.801  12.733  0.1226  0.2512 -0.1667
18620W        W34429  14.414   3.206  13.231 -0.0763 -0.2108  0.1806
18621W        W34430  15.067   7.777  14.368  0.0264  0.1765 -0.0109
18622W        W34431   8.251   6.059   0.852  0.1429 -0.2779 -0.0008
18623W        W34432  12.325   2.124  14.495 -0.2004  0.3771 -0.0008
18624W        W34433  13.677  16.484  14.356 -0.1384  0.0796 -0.0123
18625W        W34434   3.621  13.239   1.783  0.0332 -0.0484  0.0322
18626W        W34435   8.478   9.141   4.950  0.0332 -0.0017  0.2158
18627W        W34436  14.276  12.977   5.849 -0.1689 -0.0308 -0.0482
18628W        W34437  12.454   2.960   4.749  0.2646 -0.0436  0.1392
18629W        W34438   0.667   2.128  12.309 -0.0527  0.0815 -0.0495
18630W        W34439   3.234   4.700   2.892 -0.3216  0.3809  0.1347
18631W        W34440  15.537  16.619  13.298  0.2015  0.1045  0.1740
18632W        W34441  16.434   8.832   2.767  0.0504  0.0052 -0.0716
18633W        W34442   4.121   5.884  16.049  0.1136  0.1872  0.1296
18634W        W34443   1.050  15.082  15.251 -0.2800  0.3360 -0.1277
18635W        W34444   8.036   3.102  16.102 -0.1125  0.0250  0.2191
18636W        W34445  15.681   5.530   4.397  0.2882 -0.2199 -0.2012
18637W        W34446   6.010  10.584   3.200 -0.0539  0.2522  0.4136
18638W        W34447  10.543  14.578  16.128  0.3267 -0.1053  0.1541
18639W        W34448   3.268   6.923   0.207 -0.1247  0.1265 -0.4594
18640W        W34449  10.764  11.816   0.500 -0.0594 -0.0881  0.1238
18641W        W34450   6.308  17.363  13.585  0.3591  0.2398  0.1230
18642W        W34451  14.179   7.585   3.285  0.3821 -0.0101 -0.0386
18643W        W34452  17.059  11.819   1.312  0.1475 -0.4209 -0.5272
18644W        W34453  15.687   4.878  16.603  0.2055 -0.0362 -0.1089
18645W        W34454  14.130  17.933  13.856 -0.1426  0.2982 -0.2785
18646W        W34455   2.039  17.293   2.306  0.4532 -0.0624  0.0737
18647W        W34456  17.790   0.079   0.013  0.0274 -0.0150  0.1678
18648W        W34457  17.342   0.410  15.500 -0.1757 -0.1814  0.1144
18649W        W34458  13.059  15.587   1.790 -0.4297  0.0842 -0.0116
18650W        W34459  10.734   1.397  16.563 -0.0667  0.2621  0.0176
18651W        W34460   4.465  10.841   0.753 -0.0740  0.2321  0.0923
18652W        W34461  10.543   8.730   5.730  0.0255  0.1639 -0.1642
18653W        W34462  12.268   2.252  13.521 -0.2686 -0.1570  0.1958
18654W        W34463  13.761   2.142  15.987 -0.1685 -0.1907 -0.0280
18655W        W34464   1.161   3.793   4.369 -0.2622 -0.0978  0.5640
18656W        W34465  10.549   9.426   4.994  0.0142  0.1668 -0.1443
18657W        W34466   8.298   1.574  12.895 -0.2187  0.1570 -0.2239
18658W        W34467  13.664   7.425   6.113 -0.0439 -0.0910  0.0753
18659W        W34468  11.601   0.889   0.099  0.0166 -0.0861 -0.3813
18660W        W34469   9.505   8.425  13.689  0.0568  0.2348  0.2053
18661W        W34470  12.688  16.103  13.388 -0.3548 -0.2438 -0.2581
18662W        W34471   6.624  11.384   0.161 -0.0987  0.1224  0.1539
18663W        W34472  10.353  14.190  13.792  0.0161  0.0872 -0.1355
18664W        W34473   4.510  12.857  10.599 -0.0496  0.1121  0.1164
18665W        W34474   9.626   5.524  15.110 -0.1138  0.0629 -0.2839
18666W        W34475   9.364   0.703   2.678 -0.0117 -0.0913  0.0907
18667W        W34476   5.575  10.456  14.201  0.3047  0.1538  0.3792
18668W        W34477   5.571   2.046   4.855  0.3343 -0.0691 -0.2162
18669W        W34478  11.757   1.047  13.688 -0.0410  0.0965  0.1449
18670W        W34479  11.158  11.735   1.545 -0.3786  0.3044  0.1011
18671W        W34480  12.703   6.025  14.970  0.2053 -0.1526 -0.2068
18672W        W34481   9.266  13.363  14.765  0.0252  0.1504  0.2554
18673W        W34482  12.139  13.313   5.775 -0.2751  0.2147  0.0685
18674W        W34483   6.307  12.937   6.024  0.2036 -0.0998  0.0325
18675W        W34484   4.555  15.349  14.009 -0.1251  0.2408 -0.3734
18676W        W34485  10.571  16.088  12.988  0.1952 -0.1248 -0.1613
18677W        W34486   5.927   3.259   0.986 -0.1024  0.1918  0.0528
18678W        W34487   9.711  15.490  15.160  0.1723  0.1282  0.1742
18679W        W34488   5.439   4.696   5.354  0.3046  0.0386  0.0980
18680W        W34489  10.123   4.777   1.498  0.0736 -0.1112 -0.2902
18681W        W34490  13.884   6.984  16.534  0.1511 -0.1382 -0.0293
18682W        W34491   4.772   0.435   3.800 -0.1141 -0.1098 -0.0233
18683W        W34492   6.833   5.581  11.973 -0.1375  0.3256  0.0509
18684W        W34493  12.477   2.061   5.263  0.2390 -0.2348  0.1014
18685W        W34494  16.327  17.673  12.143  0.1251  0.2434 -0.2100
18686W        W34495   3.379   1.312   0.753  0.1106  0.3116 -0.0380
18687W        W34496   3.890   5.084   2.876  0.0322  0.0081  0.1119
18688W        W34497  15.782  10.575  12.775  0.1120  0.1736 -0.2666
18689W        W34498   1.929   8.505   3.734 -0.2586  0.1751  0.1388
18690W        W34499  12.767   0.177  13.941  0.1570 -0.0507 -0.0036
18691W        W34500  15.441  14.341  15.868 -0.0214 -0.2255  0.0016
18692W        W34501   7.250  17.723  16.341  0.1520 -0.3263 -0.1736
18693W        W34502  14.777  10.271  12.697 -0.1359 -0.1159 -0.1156
18694W        W34503   2.725   3.187  12.068  0.0072 -0.2909 -0.0336
18695W        W34504   9.720   3.602  14.225  0.3757 -0.0185 -0.0971
18696W        W34505   1.207   8.774   4.604  0.1976  0.1739 -0.0867
18697W        W34506  17.808   2.688  13.249 -0.3781  0.1279 -0.4480
18698W        W34507  17.311   5.436   1.029  0.1171  0.1676  0.2218
18699W        W34508   8.144   0.485   4.400 -0.2152  0.1088  0.1258
18700W        W34509  15.508  15.799  14.362 -0.2695 -0.0416  0.0722
18701W        W34510   4.938   1.673  14.189  0.3942  0.0574  0.1877
18702W        W34511  11.003   6.305   6.919  0.0076  0.2030  0.0449
18703W        W34512   7.477   3.221  14.955  0.0315 -0.0969 -0.1663
18704W        W34513   1.798   3.049   5.275 -0.2658  0.2177 -0.0861
18705W        W34514  12.818  14.295  16.621 -0.0131  0.2177  0.3175
18706W        W34515   9.806  11.943  13.890  0.0283 -0.2834 -0.1004
18707W        W34516   2.933   9.593  12.017 -0.0615 -0.4432  0.0796
18708W        W34517   6.274   9.143   0.544 -0.0827  0.3329  0.2291
18709W        W34518  14.526   9.693   5.465  0.0404 -0.3018  0.1806
18710W        W34519   4.289  12.905   4.301 -0.1861  0.2892  0.1011
18711W        W34520   3.894   2.157  13.378 -0.4029 -0.0212 -0.1865
18712W        W34521   6.655   5.107   2.386 -0.2376  0.2905  0.3813
18713W        W34522  16.694  16.222  15.898 -0.0150 -0.0984  0.1478
18714W        W34523   5.353  15.621   1.547 -0.2400  0.0141  0.4286
18715W        W34524   4.203  11.164  16.626  0.3118 -0.0530  0.2543
18716W        W34525   5.756   1.124  16.385 -0.2166  0.4299 -0.2921
18717W        W34526  11.597   1.037   5.687  0.0043 -0.0152 -0.1665
18718W        W34527   6.899   4.503   2.711  0.2564 -0.0422  0.3229
18719W        W34528   8.418   4.057  12.186 -0.0308  0.2328 -0.3026
18720W        W34529   5.561   7.744  10.826 -0.2491  0.2041 -0.1032
18721W        W34530  15.543   4.118  16.260  0.4907 -0.0082  0.0137
18722W        W34531  10.080  15.785  14.946  0.3108  0.0157  0.1926
18723W        W34532   4.846  17.441   3.187  0.2767 -0.0656 -0.0042
18724W        W34533  15.465  15.294   4.272 -0.2897  0.2053 -0.0312
18725W        W34534   6.249  10.090  12.288  0.3648 -0.1364  0.2575
18726W        W34535   9.709   4.647   3.980 -0.0987  0.0032 -0.2601
18727W        W34536  15.984  10.182  14.814  0.1613  0.0441  0.0033
18728W        W34537   6.477   8.137  15.433  0.3171 -0.5345  0.1901
18729W        W34538   8.208   0.227   1.990 -0.0564 -0.0892  0.3512
18730W        W34539   7.592   8.947   0.244 -0.0475 -0.0012 -0.0592
18731W        W34540   1.966  10.787  12.380  0.4065  0.0435 -0.1486
18732W        W34541  11.804  14.053  11.388  0.0015  0.1960 -0.0565
18733W        W34542  15.420  10.003   4.649  0.0167 -0.0934 -0.1028
18734W        W34543   8.281  11.973  14.816  0.0584 -0.1672 -0.0445
18735W        W34544   3.728  11.199  12.375  0.1650  0.1290  0.1873
18736W        W34545   4.758  13.740   1.083 -0.0122 -0.1679 -0.0007
18737W        W34546  10.409  13.721  12.348  0.1679  0.0298  0.1049
18738W        W34547  15.035   9.597  15.096 -0.0311 -0.2685  0.1674
18739W        W34548   5.752   4.408   2.352  0.0305 -0.1407  0.2023
18740W        W34549  12.432  12.822   1.241  0.2654 -0.0355  0.1044
18741W        W34550   5.518  14.437  16.429 -0.0674 -0.0224  0.2343
18742W        W34551   5.032   6.994  15.620  0.0079 -0.1403 -0.2306
18743W        W34552  13.930   8.407  15.335 -0.4220  0.0124  0.0573
18744W        W34553   9.929   5.786  16.672  0.0303  0.2165 -0.2038
18745W        W34554   4.758  14.865  16.578  0.0004 -0.0129  0.0116
18746W        W34555  17.146   0.634  11.680 -0.1584  0.2359 -0.1413
18747W        W34556  13.933  12.564  12.883  0.1793 -0.2464 -0.0118
18748W        W34557   9.163   1.061   2.423 -0.2715 -0.1995  0.1783
18749W        W34558  11.304   0.357  10.801 -0.0073 -0.0612 -0.0294
18750W        W34559  11.761  10.876   3.250  0.4103 -0.0425 -0.1567
18751W        W34560  11.324  16.026   0.011  0.0125 -0.1529 -0.0378
18752W        W34561   9.416   4.557   2.238  0.0165 -0.3104 -0.1620
18753W        W34562   0.152   4.798  15.771  0.0454  0.0397 -0.0288
18754W        W34563   8.716   1.805  11.965  0.0096 -0.1029  0.2495
18755W        W34564  11.613   4.926  16.692  0.2072 -0.1724  0.1194
18756W        W34565  15.240  13.432   1.609  0.1557  0.1781  0.1545
18757W        W34566   6.785  17.783  16.435  0.1268  0.0557  0.1137
18758W        W34567  12.126  11.104   1.184  0.0003 -0.0275  0.2088
18759W        W34568   8.957   7.061   3.125  0.1277  0.1176  0.3912
18760W        W34569   5.152   4.361  14.206 -0.0634 -0.1400  0.0840
18761W        W34570   1.450   9.899  16.434 -0.2695 -0.1729  0.1139
18762W        W34571  11.771   5.840   2.702  0.2266 -0.0384  0.0205
18763W        W34572  12.393   8.095  11.721 -0.1600 -0.2476 -0.2931
18764W        W34573  10.329  13.721   2.379 -0.1320  0.0445  0.2485
18765W        W34574  11.762   0.645  12.768 -0.0658  0.2473 -0.1094
18766W        W34575   3.431   2.089   5.249 -0.0073 -0.1241  0.0265
18767W        W34576   6.823   6.156   3.229 -0.1796  0.1322 -0.1697
18768W        W34577  10.868   9.078   3.224  0.3508  0.1230 -0.2479
18769W        W34578   0.291  12.194  14.843 -0.2232  0.0935  0.4083
18770W        W34579  14.727   5.333   5.344  0.0681  0.0010  0.0482
18771W        W34580   5.870   5.442   5.576 -0.0138  0.1295 -0.0408
18772W        W34581  12.266  11.221  13.596  0.3203  0.0104 -0.0862
18773W        W34582   1.350   7.604  16.426 -0.3252  0.1987  0.1634
18774W        W34583  14.451  10.995   0.866 -0.1302  0.0426  0.0396
18775W        W34584   1.514   1.895   1.857  0.0220 -0.0693 -0.2093
18776W        W34585   1.675   6.769  16.340  0.0272 -0.0416  0.0992
18777W        W34586   6.083  11.150  13.941  0.2112  0.1171  0.1849
18778W        W34587   4.758  16.825   0.591 -0.2459  0.4177 -0.3581
18779W        W34588  12.207  16.129  15.433  0.0683  0.0822 -0.0805
18780W        W34589   6.598   8.975   1.734  0.1190  0.1647  0.2586
18781W        W34590   6.697   1.256  14.617 -0.1093  0.0588 -0.0554
18782W        W34591  15.385  17.270  14.400  0.3015  0.1491  0.0061
18783W        W34592  12.909   4.862   2.693 -0.3558  0.1460  0.0796
18784W        W34593  17.255   7.690  15.761 -0.1224 -0.1847  0.1539
18785W        W34594  13.103   1.343  15.192  0.2131  0.1722  0.4387
18786W        W34595  11.120  10.188  11.244 -0.1875 -0.0963 -0.0784
18787W        W34596  13.700   1.069   0.726  0.1966  0.2289  0.2425
18788W        W34597   4.137   8.815   1.430  0.0613 -0.2542 -0.3695
18789W        W34598  17.910  11.213  12.499 -0.0360  0.0431  0.1960
18790W        W34599   9.034   6.064  12.354 -0.0173  0.0984  0.1844
18791W        W34600   2.402   1.020  15.869 -0.1207 -0.1351  0.1855
18792W        W34601  14.520   2.931   5.266 -0.3156  0.0015 -0.1023
18793W        W34602   4.335   4.641   1.585  0.0522 -0.1340 -0.2935
18794W        W34603   7.688  14.193   0.259 -0.0969 -0.0862 -0.0388
18795W        W34604  12.649   6.850   3.844 -0.0996 -0.0099 -0.2486
18796W        W34605  12.893  13.999   3.630 -0.0160 -0.2537 -0.1593
18797W        W34606   3.017   3.407  13.251 -0.3579 -0.3107  0.0051
18798W        W34607   3.384  15.495  13.448 -0.1498  0.1251  0.1175
18799W        W34608  16.787  10.735  13.746 -0.1701 -0.1724 -0.0023
18800W        W34609   1.015   8.768   3.795 -0.0612  0.0179  0.1198
18801W        W34610   4.885  15.597   1.308 -0.0070  0.5247  0.1986
18802W        W34611  16.700  10.015   1.523 -0.0398 -0.0548 -0.0540
18803W        W34612   8.818   4.812   2.017 -0.0193  0.3239 -0.0781
18804W        W34613   6.093   3.892   4.451 -0.1256 -0.0920 -0.0186
18805W        W34614   7.570   8.942   3.437 -0.1990 -0.0216 -0.1089
18806W        W34615   6.641  15.779  14.641  0.0693  0.3670 -0.1262
18807W        W34616  11.732   7.039  15.794  0.1083 -0.0200  0.3127
18808W        W34617  10.481   8.351  16.231  0.0922  0.0539  0.0658
18809W        W34618   9.613   0.736  16.044  0.0180  0.1801  0.0476
18810W        W34619  10.728   4.609   1.138  0.0213  0.0632  0.1891
18811W        W34620   6.744  15.048   0.171  0.0813  0.0818  0.1068
18812W        W34621   2.906  13.043   2.887 -0.1574 -0.0784  0.1228
18813W        W34622  17.237  11.905  14.752 -0.0084 -0.3013 -0.2378
18814W        W34623   7.179   0.713   1.316  0.1940  0.1523  0.2132
18815W        W34624   6.676   5.302  13.450  0.2961 -0.1228 -0.2311
18816W        W34625  12.307  14.649   5.681 -0.1104  0.3909  0.1455
18817W        W34626   8.272  15.086   3.334  0.0261  0.1080 -0.2313
18818W        W34627  15.085  16.534  16.423  0.0439 -0.0355 -0.0307
18819W        W34628   0.004   9.907   1.826 -0.0891  0.0459 -0.1248
18820W        W34629  14.162  14.843   4.602  0.1646  0.1236  0.2325
18821W        W34630  14.652   8.117  12.852  0.0827  0.0117  0.1559
18822W        W34631   1.441  12.810   4.228  0.0807  0.0116 -0.1649
18823W        W34632  12.363   4.774   4.188  0.1014  0.0283 -0.1572
18824W        W34633   2.012   9.076  13.635  0.0070  0.0862  0.1816
18825W        W34634  10.118   6.394  15.088  0.2080 -0.0505 -0.1080
18826W        W34635   1.906   1.953   0.537  0.2666 -0.2129 -0.3326
18827W        W34636   3.790   8.727   3.873  0.1923 -0.0654 -0.1945
18828W        W34637  10.746   8.253  15.344  0.0803 -0.1928  0.3038
18829W        W34638   6.108   6.110  14.335 -0.2247 -0.1578 -0.3498
18830W        W34639  12.028   1.237  15.333 -0.0324  0.3746 -0.0833
18831W        W34640  11.502  16.051  13.608 -0.4284 -0.0614  0.3711
18832W        W34641   0.169   6.730   4.940  0.1267 -0.0316 -0.0746
18833W        W34642   9.301  11.103  14.583  0.0964 -0.0848  0.1828
18834W        W34643  10.748   9.066   0.954 -0.1812 -0.0750 -0.0042
18835W        W34644  17.828  11.933  13.629  0.2684  0.0344 -0.0994
18836W        W34645  17.717   9.944   0.408  0.0204 -0.2543 -0.0442
18837W        W34646  12.200  13.638  16.228  0.0057 -0.3745  0.0209
18838W        W34647  12.774  14.198  14.647  0.0641  0.2322 -0.2430
18839W        W34648  11.160  16.521  15.315  0.0925 -0.0652  0.0151
18840W        W34649   6.502  16.807  12.875  0.2732  0.0434 -0.3733
18841W        W34650  13.536  13.906   1.494  0.1456 -0.0728  0.1695
18842W        W34651   8.162  16.030   0.340 -0.1140  0.1143 -0.1471
18843W        W34652  13.901   1.305  13.833  0.0482 -0.0805 -0.0178
18844W        W34653  13.466   1.649   0.227  0.2234 -0.1428 -0.0451
18845W        W34654   1.515   8.531   3.437 -0.2275 -0.1482 -0.0486
18846W        W34655   2.503  15.507   1.491  0.1136  0.2506  0.4044
18847W        W34656  14.517   1.062  11.980  0.2188 -0.1327  0.1127
18848W        W34657  15.076   2.384   3.307 -0.1629  0.1003 -0.0318
18849W        W34658   2.914  11.613  12.102 -0.3670  0.1073  0.1717
18850W        W34659   1.846  11.161  16.315 -0.0790 -0.0648  0.1823
18851W        W34660  16.316   1.224  12.529 -0.0713  0.1567 -0.4280
18852W        W34661   3.237   6.524   3.951 -0.5739 -0.1531 -0.2586
18853W        W34662  14.799   4.614  14.245  0.0027 -0.0649  0.2731
18854W        W34663   0.966  12.906   4.948 -0.1261 -0.0596  0.2643
18855W        W34664   9.156   7.493   3.411 -0.0430  0.2264  0.1366
18856W        W34665  12.211   9.983   1.483 -0.0392  0.2958  0.0888
18857W        W34666  17.859   1.748   2.307  0.2187  0.0108  0.0157
18858W        W34667   5.474   2.653  15.057 -0.3110  0.2493 -0.4150
18859W        W34668  10.912  11.438   5.013  0.0153 -0.2857 -0.0638
18860W        W34669   2.253   6.936   4.216  0.0536  0.0445  0.2251
18861W        W34670   5.372   1.396  14.375  0.1007  0.0375  0.0703
18862W        W34671   7.153   2.190  16.672 -0.1289 -0.3913 -0.0970
18863W        W34672  17.565  15.544   0.778 -0.0607 -0.0059  0.0405
18864W        W34673   4.621   9.118   1.417  0.0930  0.1104 -0.0800
18865W        W34674   6.985   0.505  15.235  0.0986 -0.0714  0.3266
18866W        W34675   5.216   3.516  15.667 -0.2678 -0.0554  0.1665
18867W        W34676  12.063   4.544   1.384 -0.0729 -0.0653 -0.1162
18868W        W34677   4.649   7.485  15.065  0.3034  0.1309  0.1598
18869W        W34678  13.981   6.746  14.237 -0.0317 -0.1745 -0.0989
18870W        W34679  13.493  15.653  15.360 -0.2095 -0.2515  0.1065
18871W        W34680   4.868   5.171  16.268  0.3463  0.3833  0.3846
18872W        W34681   0.809   5.561  13.447 -0.1479  0.2383 -0.1726
18873W        W34682   6.844  12.195  13.624 -0.1859  0.0763  0.0202
18874W        W34683   8.665   3.721   3.063 -0.1209  0.0548 -0.1873
18875W        W34684   2.423  16.405   1.070 -0.2829  0.0186  0.1739
18876W        W34685   9.227  10.066   1.189  0.3067  0.1355 -0.0699
18877W        W34686  15.047  10.394  16.481  0.3455  0.0195 -0.2370
18878W        W34687  12.318  17.652   1.702 -0.2429  0.0544  0.2159
18879W        W34688   5.434   7.844  13.727  0.2867 -0.0568  0.0219
18880W        W34689   5.261  16.844   3.116 -0.0143 -0.0318  0.3760
18881W        W34690  12.324  15.593  12.564  0.0584  0.2568 -0.3697
18882W        W34691   3.618   3.419  14.501 -0.1000 -0.1018 -0.2080
18883W        W34692  12.129   5.909  15.367  0.2393  0.0252 -0.0772
18884W        W34693   5.997   0.258  11.680  0.0493  0.1502 -0.0817
18885W        W34694  14.629  17.428  12.645 -0.1693 -0.0513 -0.0173
18886W        W34695   6.363   3.736  14.987  0.0535 -0.1832  0.3564
18887W        W34696   9.431   4.676  14.243  0.1266 -0.2556 -0.1129
18888W        W34697   6.768   4.726   5.231  0.1179 -0.1441  0.1233
18889W        W34698   7.199   8.137  11.277 -0.0193  0.3637  0.1168
18890W        W34699  10.143  10.314   4.234  0.2865  0.0315  0.0542
18891W        W34700   7.525   9.726  15.259  0.0708 -0.3526 -0.1189
18892W        W34701  14.269  16.116  14.918  0.2565  0.0216  0.1903
18893W        W34702  10.355  14.539   4.464  0.1463 -0.1988 -0.3184
18894W        W34703   6.496  10.224   3.056 -0.0320  0.1551  0.1148
18895W        W34704   1.125  16.352   4.592  0.1974 -0.0018 -0.1543
18896W        W34705  11.012  17.385  13.254  0.0619 -0.0429 -0.0556
18897W        W34706  15.786   6.318   4.309 -0.0071 -0.0035  0.4275
18898W        W34707  16.701  10.151   2.537  0.0809 -0.1542 -0.1615
18899W        W34708   5.171   5.286   3.430  0.2354 -0.2365  0.0793
18900W        W34709  15.822   6.964   5.864  0.1677  0.0412 -0.0489
18901W        W34710  15.421  10.364  16.044 -0.1504  0.1058  0.3483
18902W        W34711  14.334  14.107  14.038 -0.3368 -0.2376  0.0512
18903W        W34712  17.172  12.961  12.140 -0.1688 -0.0547 -0.1153
18904W        W34713  17.110   7.036  13.582 -0.0207  0.2149  0.0268
18905W        W34714  13.403  11.832   4.639 -0.0566 -0.0579  0.1063
18906W        W34715   5.304  13.263   4.497  0.0185  0.0984 -0.1135
18907W        W34716   2.247   0.521   5.149 -0.2706  0.0649  0.2358
18908W        W34717   4.792  14.081  13.843 -0.0465  0.0962 -0.0915
18909W        W34718   1.240   0.583   1.981 -0.0891 -0.0435 -0.1443
18910W        W34719   1.569   2.883  13.202  0.1575  0.1341  0.0677
18911W        W34720  15.981  10.690   1.183 -0.0388  0.2391 -0.2352
18912W        W34721  14.195  14.830   1.773  0.0436 -0.0046 -0.0312
18913W        W34722   6.321  13.084   5.544  0.1919  0.1394 -0.2103
18914W        W34723   3.700  12.858  12.324 -0.2490  0.1094 -0.1847
18915W        W34724   6.902  12.637   0.976 -0.1283  0.1429 -0.1356
18916W        W34725  16.821  14.849   6.090  0.1498  0.2103  0.0240
18917W        W34726   5.024   8.047   2.120 -0.0535 -0.1416 -0.2363
18918W        W34727   0.736  13.440   2.813 -0.1178 -0.1575  0.1205
18919W        W34728   6.372   3.399  16.697  0.0929  0.1754 -0.1990
18920W        W34729   8.633  13.165   4.982  0.0633  0.1534  0.3016
18921W        W34730   0.507   1.526   6.035  0.1791 -0.1295  0.1132
18922W        W34731   6.277   3.470   2.380 -0.2103 -0.2002  0.1881
18923W        W34732  12.691  12.439   1.928  0.3299  0.2616  0.0746
18924W        W34733   8.904  16.443   1.140 -0.0635 -0.5184  0.2047
18925W        W34734   3.753  15.232  14.409 -0.0097  0.0769  0.1186
18926W        W34735   5.561  10.974  16.187  0.3784 -0.0493  0.0722
18927W        W34736   9.109   9.000  14.125 -0.3902 -0.1701  0.1097
18928W        W34737   8.388   3.215  14.871 -0.1632  0.0782  0.0022
18929W        W34738  16.588   2.349   5.582 -0.0763  0.0741 -0.0152
18930W        W34739   8.749  16.866  15.262 -0.0237  0.1805  0.0517
18931W        W34740   2.268  17.611  11.478 -0.1409 -0.0469 -0.0305
18932W        W34741  17.946  12.689   3.086  0.3518 -0.2147 -0.0402
18933W        W34742  14.916   4.212  13.729 -0.1369  0.0578  0.0732
18934W        W34743   6.923  16.701  15.057  0.2853  0.0106  0.1147
18935W        W34744  11.036   4.826   3.697  0.3501  0.1075 -0.2230
18936W        W34745  13.318  14.528   5.167  0.0167 -0.0757 -0.0650
18937W        W34746  12.049   7.999   1.240 -0.0608  0.0997  0.0924
18938W        W34747   2.774   0.799   2.479  0.3013  0.1418 -0.1469
18939W        W34748  11.602  16.650  12.897 -0.0407  0.0637  0.1290
18940W        W34749  13.553  11.457  11.671  0.0280  0.0353  0.0190
18941W        W34750  14.403   8.616  15.416  0.1143 -0.1818  0.2591
18942W        W34751  15.082   4.441   3.281 -0.0510  0.3305  0.3088
18943W        W34752   0.409  14.405   2.787  0.1407 -0.1611 -0.1013
18944W        W34753   4.996  11.809   3.603 -0.2220 -0.0659  0.0769
18945W        W34754  15.032  10.201   0.279 -0.0950 -0.2876  0.1635
18946W        W34755   0.973   5.738  14.546 -0.0063 -0.0323  0.1059
18947W        W34756   5.226   1.226  15.649 -0.1264 -0.0648 -0.2362
18948W        W34757   8.504   5.152   0.065  0.1418 -0.1325  0.1707
18949W        W34758  16.504  13.705  16.662 -0.2901 -0.0608 -0.3013
18950W        W34759   3.323   8.330   0.467  0.1943  0.2201 -0.1720
18951W        W34760   7.473   6.722  16.297  0.0300  0.0258 -0.1239
18952W        W34761   6.963   8.343   0.285  0.0545 -0.1103  0.0418
18953W        W34762   5.456  12.787   4.328 -0.3505 -0.0648  0.0498
18954W        W34763   6.962  15.974   4.309 -0.2199 -0.1721  0.2883
18955W        W34764   7.473   9.060   3.900 -0.1752  0.3460  0.3467
18956W        W34765  16.594  15.024  10.869 -0.2315  0.1308  0.2088
18957W        W34766  12.425   2.946   5.297 -0.2793 -0.0513 -0.0327
18958W        W34767   1.566  12.793  11.524 -0.1548 -0.0067 -0.0982
18959W        W34768  15.885  10.862   4.630 -0.0718  0.0567  0.0594
18960W        W34769   3.185   0.072  13.589 -0.0239  0.4166 -0.2782
18961W        W34770  16.075   5.704  12.933  0.0806 -0.0838  0.2215
18962W        W34771   5.447   2.814  12.125 -0.0735 -0.3813  0.5678
18963W        W34772   1.377   8.222   0.248  0.1047 -0.0697  0.1969
18964W        W34773  12.622   2.548  14.713  0.0308 -0.0265  0.1291
18965W        W34774  15.843  14.319  12.287 -0.0515  0.1246  0.0071
18966W        W34775  13.748  17.160  15.804 -0.0759 -0.0244  0.0333
18967W        W34776   3.241   4.827   5.024  0.1249 -0.2994 -0.2454
18968W        W34777   9.902  15.155  13.795  0.2371 -0.1252 -0.0150
18969W        W34778  12.201  16.103   1.076  0.0614  0.0414 -0.2529
18970W        W34779   4.848   4.728  13.977  0.2546 -0.0844  0.1293
18971W        W34780   5.487  12.456   2.650 -0.1757  0.1541 -0.0305
18972W        W34781   6.736  11.918  11.288  0.2132  0.1925 -0.0496
18973W        W34782   5.011  14.140  14.910 -0.0761  0.1045 -0.0691
18974W        W34783  13.262  12.873  11.922 -0.2281 -0.2765  0.2020
18975W        W34784  10.504  13.493   2.765  0.0645  0.0026 -0.2211
18976W        W34785  12.732  11.195  12.820  0.2394  0.0605  0.1729
18977W        W34786  14.271  11.177  15.747  0.4718  0.0517  0.0038
18978W        W34787   4.489  10.382   0.851  0.2201 -0.1626  0.0953
18979W        W34788  12.471  15.379   5.013 -0.2046 -0.0310 -0.0047
18980W        W34789   8.458  13.016  12.164 -0.0648 -0.0118 -0.0702
18981W        W34790   0.539   6.888   2.938  0.2208  0.0359  0.0228
18982W        W34791  16.564   5.033   4.262  0.1202  0.0458  0.0113
18983W        W34792  14.851   2.195  11.385 -0.3546 -0.1420 -0.2346
18984W        W34793  15.526  11.429  14.134 -0.2187 -0.1039  0.0854
18985W        W34794   0.109  10.959   1.141 -0.3615  0.2460 -0.0022
18986W        W34795  14.944  13.242   2.423  0.0091 -0.1698  0.0739
18987W        W34796   6.660   5.078  16.140 -0.2942 -0.1735  0.1001
18988W        W34797  12.079   5.030  16.506  0.2852 -0.1206 -0.0988
18989W        W34798   3.769  12.814   3.067  0.2071  0.1283 -0.0189
18990W        W34799  14.314   7.183   2.965 -0.2229 -0.0028 -0.2710
18991W        W34800   8.110   6.699   2.918  0.0193 -0.3682  0.2530
18992W        W34801  14.287   7.566   1.473 -0.1988 -0.2401  0.4643
18993W        W34802   7.822   1.905   4.639  0.2692 -0.1111  0.2065
18994W        W34803  13.704   4.806  12.901 -0.0968  0.0017  0.0610
18995W        W34804  15.980   4.569   1.052  0.1161  0.3816  0.1418
18996W        W34805  15.816   5.522   0.024 -0.1274 -0.1208 -0.2296
18997W        W34806   8.925   6.343   5.173  0.0789  0.2258 -0.1392
18998W        W34807   7.082   2.504   2.928 -0.1158 -0.0351  0.1541
18999W        W34808   8.295  11.478   2.554  0.1649 -0.0174  0.3124
19000W        W34809  13.086   7.167  12.367 -0.0637  0.1991  0.5579
19001W        W34810   7.327  15.874   0.289  0.0896 -0.1541  0.1424
19002W        W34811   4.229  11.694   4.408  0.1139 -0.0482  0.1787
19003W        W34812   2.809  13.819   4.496 -0.2816  0.0830 -0.0801
19004W        W34813   8.828   5.373  13.596 -0.0082 -0.0631 -0.2362
19005W        W34814   6.966   0.375   0.891  0.0067  0.2866 -0.0452
19006W        W34815  12.851   9.303   3.806  0.1541 -0.0985  0.2012
19007W        W34816   9.016  10.890   0.276  0.1027  0.7116 -0.2371
19008W        W34817  16.453  10.559   3.541  0.1599 -0.0256 -0.2121
19009W        W34818   3.120   1.168   4.128 -0.0982  0.2768  0.1138
19010W        W34819  17.734   7.677   5.294  0.2787  0.1918 -0.0176
19011W        W34820  14.228   3.128   0.659  0.0490  0.0303 -0.0301
19012W        W34821   3.629  13.898   0.218 -0.2268  0.0318 -0.1618
19013W        W34822  10.951   0.616  15.582  0.1222  0.1021  0.2407
19014W        W34823   7.120  17.851   0.700 -0.1898 -0.1531  0.1999
19015W        W34824   9.241  12.355   3.880  0.0233 -0.0824  0.1559
19016W        W34825   9.137  15.687   6.046  0.3851 -0.1981 -0.4049
19017W        W34826   3.078   7.007   3.630 -0.5024  0.1169 -0.2466
19018W        W34827  11.973   0.333  15.965  0.0957  0.1665 -0.2718
19019W        W34828   9.803  12.142   0.407 -0.1126 -0.0845 -0.1557
19020W        W34829  17.321   1.812   0.736  0.0228  0.3155 -0.1383
19021W        W34830   0.135   9.614   4.949  0.0633 -0.0265 -0.2302
19022W        W34831   3.360   7.656  14.014 -0.0779  0.0003  0.0016
19023W        W34832   0.640  12.008  12.333  0.1116  0.2703  0.0452
19024W        W34833  16.301   8.775  13.858  0.2042 -0.0828 -0.3000
19025W        W34834   7.193   5.678   0.078 -0.0683  0.1036  0.1883
19026W        W34835   6.659   5.606   1.357  0.0313  0.0296  0.2645
19027W        W34836   6.193   6.959   1.789 -0.0375  0.0154  0.0876
19028W        W34837   7.241  13.976   0.266  0.0918  0.1104 -0.3082
19029W        W34838   6.666   4.038  16.426 -0.1051 -0.1059 -0.3694
19030W        W34839  16.576   3.855   3.905 -0.1100 -0.0164 -0.1589
19031W        W34840  12.857   2.197  13.668 -0.4648 -0.1817 -0.0720
19032W        W34841  17.159   0.900  12.679  0.2512  0.3214 -0.2591
19033W        W34842  15.354  10.656  15.249  0.0136 -0.2666 -0.2305
19034W        W34843   8.728  10.722  15.704 -0.1187 -0.1006  0.0857
19035W        W34844  17.173   2.370   4.095  0.0625  0.3612 -0.1407
19036W        W34845  13.042   4.417  11.926  0.1378 -0.1911  0.1564
19037W        W34846   1.208   7.660   1.008 -0.0713  0.0526  0.0477
19038W        W34847  11.104   3.982  15.622  0.5164  0.0075 -0.0803
19039W        W34848  14.335  13.001   3.155  0.0662 -0.0446 -0.0596
19040W        W34849   8.524   2.642  11.996  0.1053 -0.3256 -0.1476
19041W        W34850   4.373   6.906   3.887  0.2105  0.1298 -0.1420
19042W        W34851  17.783  10.084   0.918  0.0177  0.0932 -0.2030
19043W        W34852  12.725  17.551   2.212  0.2369  0.2685 -0.0342
19044W        W34853   3.109  13.429   0.949 -0.1496  0.1242  0.2244
19045W        W34854   0.357   7.087   0.802  0.1831  0.0728 -0.0609
19046W        W34855  17.770   6.575   5.389  0.0054 -0.0582  0.1351
19047W        W34856   6.579   1.037  16.073 -0.1792  0.2293  0.1623
19048W        W34857   9.698   6.889   5.431  0.0745 -0.3152  0.1860
19049W        W34858   6.412  13.088  15.149 -0.2232 -0.2199  0.0254
19050W        W34859   3.230   4.931   2.357 -0.1261 -0.1887 -0.0750
19051W        W34860   2.447   0.412   4.149 -0.1279 -0.3494 -0.4354
19052W        W34861  14.387  10.274  14.851 -0.1401  0.2587 -0.1219
19053W        W34862   4.008  11.828   1.754  0.1035  0.1046 -0.0179
19054W        W34863  12.597  17.333   0.429 -0.0888  0.0404 -0.2766
19055W        W34864   8.429  16.512  14.403  0.0237 -0.0026  0.0930
19056W        W34865   5.939  13.222   0.073  0.1917 -0.1902  0.1650
19057W        W34866  13.920  11.419  12.031  0.0228 -0.2898  0.0617
19058W        W34867  13.904   7.218   0.961 -0.2744  0.0669 -0.0398
19059W        W34868  16.318   6.535  12.695 -0.4011  0.2053  0.0431
19060W        W34869   7.092   6.052  15.204  0.0549 -0.2107  0.1636
19061W        W34870  13.621   3.658  11.884 -0.0535  0.1313 -0.2243
19062W        W34871  13.981  12.757   0.001 -0.0060  0.3102  0.1871
19063W        W34872   7.070  16.458   4.386 -0.0206  0.0927  0.1087
19064W        W34873   1.422   5.413  14.513 -0.2243 -0.1196 -0.0397
19065W        W34874  10.735   6.330  13.874 -0.2336 -0.1725 -0.3637
19066W        W34875  15.677   7.106  13.686  0.2214  0.0098 -0.1004
19067W        W34876  16.885   2.906   2.384 -0.3078 -0.2960  0.0606
19068W        W34877   1.455  15.313  11.832 -0.0243 -0.2637 -0.0400
19069W        W34878   1.417  17.184  16.372  0.0527  0.0847  0.1356
19070W        W34879  15.456   8.896  13.088 -0.0425  0.4077 -0.0652
19071W        W34880   6.977  10.842   1.483  0.0441  0.3340 -0.1039
19072W        W34881   1.946  16.487  10.709 -0.2971 -0.7100  0.0680
19073W        W34882  11.674  17.165   0.564  0.1105  0.0968 -0.3112
19074W        W34883   3.969  17.704  12.067  0.2754 -0.3342  0.1236
19075W        W34884  14.167  17.879   5.849 -0.1397 -0.1335  0.3037
19076W        W34885   5.358   0.186  12.209 -0.0658  0.1699  0.0428
19077W        W34886   7.105  11.624   0.191 -0.0821 -0.1102  0.2488
19078W        W34887   0.168   0.621  15.871 -0.1049 -0.2085  0.1150
19079W        W34888  11.768  16.331   4.320 -0.1454  0.1045  0.2381
19080W        W34889  13.941   1.807   0.291 -0.2219  0.0447  0.1017
19081W        W34890   3.277   2.300   0.693 -0.0291 -0.0733 -0.0461
19082W        W34891  15.704   3.721  15.888 -0.1131 -0.2855  0.0240
19083W        W34892   1.766   6.103  14.090  0.1296 -0.0067  0.0711
19084W        W34893  16.182  17.756   5.573 -0.1912 -0.0243  0.1464
19085W        W34894  15.875   3.230  15.959  0.0906  0.0249  0.2438
19086W        W34895   7.455  11.087   1.267  0.1316  0.0722 -0.2779
19087W        W34896   0.466   8.148  13.372 -0.0041  0.3085 -0.1251
19088W        W34897  16.892   5.823  12.472  0.1614 -0.0980  0.0008
19089W        W34898   6.613   7.352   2.867 -0.1146 -0.1323  0.1931
19090W        W34899   4.248  12.389  16.562  0.0185 -0.1184 -0.1363
19091W        W34900  10.016   1.900   4.749  0.2069  0.5983 -0.0040
19092W        W34901  15.748   7.912   3.892 -0.0039 -0.3398  0.2788
19093W        W34902  11.732   3.725   3.640 -0.0460 -0.0280 -0.2534
19094W        W34903   4.076   0.782   1.294 -0.1213 -0.1145 -0.0255
19095W        W34904   8.976   0.930  14.403  0.1529  0.0353  0.0761
19096W        W34905   1.824   4.694  13.666  0.0183 -0.2614 -0.1853
19097W        W34906   7.785   1.746   5.119 -0.0529  0.1358 -0.1777
19098W        W34907   3.223   3.982   2.899  0.3680 -0.0605  0.1523
19099W        W34908   5.732  13.728  12.941 -0.0949 -0.1348 -0.0432
19100W        W34909   0.980  17.187   1.007  0.3152  0.1432 -0.1290
19101W        W34910   2.252   2.933  15.093 -0.1915  0.0911  0.0615
19102W        W34911  17.396   4.276   3.350  0.7052 -0.1270  0.0146
19103W        W34912  10.163  15.948  14.385 -0.0310  0.3523 -0.3825
19104W        W34913   2.027   3.964  16.275  0.1099  0.1970 -0.2719
19105W        W34914   9.028   5.741   1.012 -0.0070  0.0833  0.0342
19106W        W34915  15.545   3.317   3.965  0.0304  0.2156 -0.0216
19107W        W34916  10.381   8.985   2.794 -0.0100 -0.1112 -0.1496
19108W        W34917  11.544   9.209  13.786  0.3483 -0.7383 -0.2218
19109W        W34918   6.014  14.341  16.204 -0.2014  0.0362 -0.0506
19110W        W34919  10.308   1.754  15.804  0.2609  0.2461  0.0510
19111W        W34920   6.680   8.608  10.923 -0.0231 -0.0307 -0.2608
19112W        W34921  12.066  10.629   0.332 -0.1426 -0.0282  0.2026
19113W        W34922  14.049  13.822   4.243  0.0067  0.3123 -0.1199
19114W        W34923   7.193   2.090  14.753  0.0560 -0.1256  0.2017
19115W        W34924   8.571   7.278  13.061  0.2451  0.1251  0.0310
19116W        W34925   3.152  11.602   3.384 -0.3031  0.3563 -0.0743
19117W        W34926  11.266   6.662  12.661  0.0398  0.2992 -0.1952
19118W        W34927   8.445   9.787   2.059  0.0423  0.1447 -0.0325
19119W        W34928  11.933   8.229   0.461 -0.0877 -0.2053  0.1540
19120W        W34929  16.996  10.255   4.884  0.0378  0.0460  0.0999
19121W        W34930  10.546   1.252   0.571 -0.1877 -0.2986  0.0360
19122W        W34931   8.395   7.148   1.595 -0.1165  0.0797  0.1091
19123W        W34932  17.736   0.752  14.275 -0.0667  0.0999  0.1211
19124W        W34933  16.559  14.653   2.630 -0.2449  0.2785  0.0133
19125W        W34934   8.111  15.104  12.630 -0.1730 -0.0494  0.1645
19126W        W34935   1.930   4.264  14.468  0.3142 -0.1207 -0.0658
19127W        W34936  13.998   2.255  16.704 -0.2045  0.1517 -0.0945
19128W        W34937   1.812   7.036   3.798  0.1154  0.0611  0.0239
19129W        W34938   8.580  17.386   4.921 -0.3275  0.0668  0.1192
19130W        W34939  13.383  16.120   2.160 -0.1159  0.1836  0.0587
19131W        W34940   5.804   9.045   3.694  0.0206 -0.1249 -0.3073
19132W        W34941  16.864   2.906  15.865  0.1113 -0.3038 -0.1615
19133W        W34942   3.948  10.164   0.681 -0.1316  0.0473  0.1045
19134W        W34943   1.041  10.014   2.541  0.1346 -0.1844  0.1788
19135W        W34944  11.202  10.579   5.010  0.0346 -0.1292 -0.0179
19136W        W34945   8.216  15.017   1.372 -0.0775 -0.2715 -0.0601
19137W        W34946  13.882   7.340  11.376 -0.0711  0.0664  0.1652
19138W        W34947   1.179   8.917  15.680  0.1712 -0.0622 -0.3609
19139W        W34948   6.345   7.555  11.181 -0.1401  0.1367 -0.0474
19140W        W34949   5.399   7.504  13.105  0.0423 -0.0748  0.4090
19141W        W34950   8.875   6.979   1.760 -0.1396  0.2601 -0.1323
19142W        W34951  11.795   6.676   5.880 -0.0993  0.4120  0.0524
19143W        W34952  10.538   2.098  16.636  0.0144 -0.0895 -0.0009
19144W        W34953   8.642  15.379  14.715 -0.0887 -0.0062 -0.0911
19145W        W34954  13.220   2.083  11.521 -0.1323 -0.1651  0.3348
19146W        W34955  14.403  10.502   3.993  0.0195 -0.3160  0.2320
19147W        W34956   4.039   4.885  13.378 -0.0962 -0.1427  0.1449
19148W        W34957   3.203  12.827  13.600  0.0489  0.1370 -0.1303
19149W        W34958   4.385   9.856  15.600 -0.3593  0.1435  0.3413
19150W        W34959  14.098   6.837  13.775 -0.3784 -0.2352 -0.3533
19151W        W34960   0.823   4.308  16.673  0.2912 -0.2425  0.1288
19152W        W34961   8.414  10.962   4.785  0.3117  0.0347 -0.0536
19153W        W34962  17.262   5.077   4.713  0.1256  0.3705  0.2890
19154W        W34963   2.924   0.962  16.055 -0.1695  0.0649  0.1770
19155W        W34964  10.431  13.293  14.751  0.2177 -0.0439 -0.2122
19156W        W34965  11.128   6.842   2.065 -0.2223 -0.0887  0.2202
19157W        W34966  16.675   4.680  12.184 -0.0357 -0.0375  0.1985
19158W        W34967   0.054   7.673  11.163  0.0045 -0.0823  0.4134
19159W        W34968  12.828  10.539  16.163  0.3157 -0.0752  0.1195
19160W        W34969   1.013   5.899   5.467  0.3145  0.0145  0.1482
19161W        W34970   9.690   8.780  16.127 -0.1793  0.1224  0.0426
19162W        W34971  10.111  10.336   5.083 -0.1249  0.2137  0.0091
19163W        W34972  11.584  11.949   1.828 -0.2334  0.1843 -0.2346
19164W        W34973   5.998  11.869   4.110  0.1136  0.0620  0.0343
19165W        W34974   1.848  16.802  13.079 -0.1450  0.0862  0.1875
19166W        W34975   2.568   4.540   5.143 -0.2672  0.1706 -0.1490
19167W        W34976  15.292  12.175   0.713  0.0003  0.2980  0.0942
19168W        W34977   6.978   5.307   3.184  0.0614  0.3454 -0.0763
19169W        W34978  12.692  14.675  14.644  0.0975  0.0139  0.0647
19170W        W34979   0.125   3.349  14.641  0.0427 -0.2753  0.0102
19171W        W34980   3.879   0.829  14.473 -0.2722 -0.0050  0.1907
19172W        W34981   5.175  10.144   1.125  0.2183  0.3267  0.1067
19173W        W34982   9.922  12.949   0.132 -0.0148  0.3392 -0.2669
19174W        W34983   7.192   2.295  12.590 -0.0742 -0.0137 -0.0282
19175W        W34984  14.833   0.948  14.304  0.1128 -0.0273 -0.1591
19176W        W34985   9.172   8.048  16.290  0.1111  0.1185 -0.0679
19177W        W34986  14.999   1.748   4.635  0.0063  0.2951 -0.1324
19178W        W34987   7.054  16.965   4.324 -0.0314 -0.1118 -0.0312
19179W        W34988  12.578   6.428  14.726  0.1017  0.3760  0.2795
19180W        W34989   7.021   9.844  15.128  0.1916  0.3718  0.2843
19181W        W34990   1.797   7.449  13.759 -0.0174  0.0845 -0.1987
19182W        W34991   6.544   5.940  14.569  0.1322 -0.2786  0.3222
19183W        W34992  17.729   5.841  11.168 -0.1416 -0.0474  0.0394
19184W        W34993   0.720   3.685  11.776 -0.3408  0.2055  0.2046
19185W        W34994   4.446   1.978  14.472 -0.0220  0.0797  0.1390
19186W        W34995   6.370  10.088   0.595 -0.0271  0.3970 -0.0958
19187W        W34996  13.990  16.445  14.717  0.2561  0.1560 -0.0235
19188W        W34997  14.770  12.162  14.529  0.0630 -0.2415  0.1655
19189W        W34998  13.850  11.889   1.536 -0.0781 -0.1609 -0.3989
19190W        W34999  17.121   4.673  12.914 -0.0667 -0.0302 -0.0505
19191W        W35000  14.657   9.532  14.724  0.0027 -0.3852 -0.1649
19192W        W35001  15.953   0.106   5.228  0.2423  0.0158  0.2091
19193W        W35002   5.010  15.013  16.125 -0.0947  0.0202  0.2448
19194W        W35003   5.648   6.941   2.093  0.1208  0.0751  0.0709
19195W        W35004   0.695   1.647   0.188 -0.0923 -0.0871 -0.0927
19196W        W35005  17.339   6.618  11.646  0.1093  0.1582 -0.0196
19197W        W35006  12.755   0.136   4.746 -0.3417 -0.0831 -0.1303
19198W        W35007  10.580   7.408   6.817 -0.1173  0.1128 -0.0971
19199W        W35008   1.758  16.104  13.628 -0.0418  0.0384 -0.1163
19200W        W35009  15.230   5.598  14.210  0.1920  0.1979  0.1428
19201W        W35010   8.305   0.070  12.621  0.2202 -0.0631  0.1409
19202W        W35011   8.416   5.360  14.466  0.1234 -0.1071 -0.3821
19203W        W35012   9.786  13.405   0.031 -0.1170 -0.3112 -0.1195
19204W        W35013  13.477   9.775  16.389 -0.0141  0.2982  0.0651
19205W        W35014   2.601  13.381   5.279  0.1586 -0.1271 -0.2970
19206W        W35015  14.137   6.139  11.707 -0.0925 -0.1238 -0.2529
19207W        W35016  13.423   6.028   4.386  0.2603  0.4625  0.1255
19208W        W35017   2.564   7.510  11.503  0.0337  0.2632  0.3149
19209W        W35018   0.417   3.684   1.484 -0.3228  0.1854 -0.1127
19210W        W35019  15.600  17.311   1.498 -0.0679  0.2611 -0.1105
19211W        W35020  15.579   9.370  16.003 -0.1276 -0.0387  0.1086
19212W        W35021   2.245  14.164   5.412  0.4997 -0.0262 -0.1270
19213W        W35022  16.929   0.169   5.481 -0.0147 -0.0081 -0.1155
19214W        W35023  14.488  15.795  11.037 -0.3595  0.3906 -0.2518
19215W        W35024   0.507  12.482  16.063  0.1930 -0.0713 -0.0704
19216W        W35025  17.749   1.514   2.828 -0.0331  0.0279  0.4758
19217W        W35026   5.275  11.213  13.939  0.0172 -0.0654 -0.1256
19218W        W35027  16.130   4.904  11.540 -0.1527 -0.0277 -0.2244
19219W        W35028   9.339  11.640   1.424 -0.1283 -0.0685  0.1365
19220W        W35029  16.871  13.632   4.587 -0.1994 -0.1477  0.3081
19221W        W35030   8.118  11.404   1.071  0.3918  0.0292  0.0698
19222W        W35031   0.358   8.524  16.356  0.1544  0.1043  0.2666
19223W        W35032   6.496  11.789  13.166 -0.0114  0.0596 -0.1000
19224W        W35033  12.276   2.638  12.308  0.2374  0.1529  0.1420
19225W        W35034   6.349  15.694   3.179  0.1345 -0.1603  0.3725
19226W        W35035  11.791  13.896   6.610 -0.1958 -0.2298 -0.2225
19227W        W35036  16.506   5.506   2.496  0.1371 -0.1262  0.1395
19228W        W35037  15.566   2.119   1.543  0.0545  0.1054 -0.0070
19229W        W35038   2.492   4.800  11.416 -0.4412  0.1207  0.1140
19230W        W35039   7.415  12.132   4.216  0.0469 -0.0275 -0.2333
19231W        W35040   2.710   3.053   2.988 -0.0214 -0.3242 -0.4458
19232W        W35041  11.779   6.183  15.070 -0.0975 -0.1529 -0.1704
19233W        W35042  17.943   8.767   4.782  0.1295  0.1314 -0.0103
19234W        W35043  10.483  13.993   4.345  0.4576 -0.0411  0.1725
19235W        W35044   1.727  13.608   1.831 -0.0013  0.2884 -0.1566
19236W        W35045   5.449   1.605   5.148  0.1827 -0.1044 -0.1479
19237W        W35046  12.217   6.430   3.257  0.2470  0.2407  0.0392
19238W        W35047   9.025   9.854   5.209 -0.0577 -0.0527 -0.1602
19239W        W35048  10.135   7.235   1.006  0.0823 -0.1637  0.2958
19240W        W35049   4.242  10.719   1.212  0.1344 -0.0728 -0.0561
19241W        W35050  17.551  17.199   4.446  0.0674 -0.1318  0.0741
19242W        W35051   5.727  15.139  11.886 -0.1754  0.2004 -0.2426
19243W        W35052  11.717   6.890   4.429 -0.0116  0.1686 -0.0193
19244W        W35053  13.565   8.451  15.689 -0.0464  0.1042  0.4848
19245W        W35054   3.141  13.517   0.431 -0.1066  0.1279 -0.0175
19246W        W35055   3.536  12.833  11.850  0.2167  0.1122  0.0517
19247W        W35056   0.404  17.493  15.568  0.0296  0.0073  0.0168
19248W        W35057  12.790   5.676   3.664 -0.3139 -0.3542  0.1136
19249W        W35058  14.271   9.580   1.938  0.1197 -0.1030  0.5565
19250W        W35059   8.962  17.609   1.739  0.0156  0.1008  0.2691
19251W        W35060   5.702   1.678   5.749 -0.1690 -0.2968  0.5303
19252W        W35061  11.322  13.495   5.733  0.2035 -0.1749 -0.0611
19253W        W35062   2.695  13.088   2.061 -0.3068 -0.1677  0.0429
19254W        W35063  13.454  13.584   6.047  0.2158 -0.2600  0.1369
19255W        W35064  13.618  14.641  15.490  0.2698  0.0132  0.1033
19256W        W35065   6.290   6.805   0.035 -0.3610 -0.0932 -0.0986
19257W        W35066   9.126   0.638   5.405 -0.1355 -0.2192 -0.0396
19258W        W35067  17.761  14.713   6.273 -0.1590  0.1292  0.2473
19259W        W35068   0.007  15.769   1.876  0.0564 -0.3363  0.3120
19260W        W35069  12.720   6.405   3.045  0.2142  0.2406  0.2350
19261W        W35070   8.472   0.919   0.339 -0.1380 -0.0540 -0.0168
19262W        W35071   9.144   6.484   1.725 -0.0257  0.0285  0.5327
19263W        W35072  16.989   1.689  13.757 -0.5635  0.1823  0.2926
19264W        W35073  11.817   1.891  13.350  0.1349  0.1823  0.0646
19265W        W35074  15.211   4.208   0.589 -0.1440  0.0594 -0.1251
19266W        W35075  15.661   6.002   1.030  0.2174 -0.0339  0.1573
19267W        W35076   6.005   7.284  16.450  0.3105  0.1793 -0.0663
19268W        W35077   0.580   5.804   4.703 -0.2868  0.2046  0.0182
19269W        W35078  10.358   6.887   1.780 -0.0616 -0.2568 -0.1511
19270W        W35079  13.601  12.322  15.344 -0.1864 -0.3125  0.1684
19271W        W35080  13.917  12.900   2.865 -0.1653  0.0834 -0.1264
19272W        W35081  17.595  13.469   4.987 -0.1991  0.2769  0.1968
19273W        W35082   9.826   1.391  13.791  0.0641  0.2481  0.0237
19274W        W35083  17.795   4.835  10.236  0.3648  0.2409 -0.2507
19275W        W35084   9.688   1.562   6.488 -0.0313 -0.1613 -0.1430
19276W        W35085   4.721   7.207  14.385 -0.2527  0.1108 -0.0387
19277W        W35086  13.268  12.012  16.533  0.0676  0.3012  0.0392
19278W        W35087   6.584   4.326   1.895 -0.4345  0.0921 -0.0421
19279W        W35088  11.909  14.422  16.436 -0.2196 -0.0840  0.1250
19280W        W35089   9.987  14.136   4.407 -0.2709  0.0262 -0.0563
19281W        W35090  13.725  11.891  16.234 -0.2248  0.1569  0.2663
19282W        W35091  10.881   9.552  16.351 -0.0547  0.1916 -0.0087
19283W        W35092  10.065   1.185  12.948 -0.3517 -0.0615 -0.0993
19284W        W35093   7.796   2.269  14.638  0.0200  0.1194 -0.0371
19285W        W35094   0.418  14.614   0.919  0.0498  0.1169 -0.0017
19286W        W35095  15.854   8.857  14.097  0.3295 -0.2956 -0.1794
19287W        W35096   0.962  15.140   1.206  0.0690 -0.1122  0.0855
19288W        W35097  13.342  11.191  12.177 -0.2185  0.0793 -0.2083
19289W        W35098   6.257   1.353  16.523 -0.0655  0.1313 -0.0131
19290W        W35099   5.351  12.966  15.801 -0.0846  0.0701  0.1084
19291W        W35100   5.637   0.352   3.703 -0.1336 -0.1254 -0.2600
19292W        W35101   6.258  13.796  14.242  0.1092  0.0020  0.2049
19293W        W35102   8.818  10.317  13.816 -0.0279 -0.1100  0.1128
19294W        W35103  14.838   6.345   2.195  0.5706 -0.0805  0.0591
19295W        W35104  13.821   7.690  13.250  0.0275 -0.0383 -0.0682
19296W        W35105   6.877  15.837   2.878  0.2483 -0.0940  0.0499
19297W        W35106   9.120   4.629   1.671  0.2036  0.1016  0.0286
19298W        W35107  12.574   9.096  14.491 -0.2523 -0.0134  0.0935
19299W        W35108   3.871  14.030  13.519  0.0387 -0.0131  0.0228
19300W        W35109   9.590   5.714  11.860  0.0837 -0.1712 -0.0976
19301W        W35110   3.370   5.659  14.479  0.2114  0.0482  0.3534
19302W        W35111  14.478  11.815   1.800 -0.0490 -0.0514 -0.1272
19303W        W35112   7.634   1.906   2.093  0.2019  0.0794 -0.2171
19304W        W35113  13.358  15.744   0.354 -0.0155 -0.1352 -0.2870
19305W        W35114   0.784   9.410  16.131 -0.0749  0.1779 -0.2548
19306W        W35115  10.273   9.049   3.827  0.0145 -0.2965  0.1019
19307W        W35116  12.136   3.190  12.433 -0.0131 -0.0689 -0.0321
19308W        W35117  12.264   9.752  12.308  0.2723  0.0280 -0.1396
19309W        W35118  14.872  10.198  15.999  0.1477 -0.2998 -0.2807
19310W        W35119  14.581   3.646  13.139  0.1272  0.5591  0.0044
19311W        W35120  13.867  10.695   3.135  0.2302  0.2007  0.1203
19312W        W35121   8.739  15.950   5.622  0.0848  0.0409  0.0002
19313W        W35122   6.635  11.226   0.906  0.2029  0.0076  0.2040
19314W        W35123  17.308   8.954  16.184 -0.1256 -0.0024  0.2299
19315W        W35124   8.179  11.053  14.992  0.1823  0.0668 -0.0269
19316W        W35125   4.725  12.659  12.548 -0.0587  0.0214  0.0587
19317W        W35126   5.719   6.527  14.908 -0.0142 -0.0526  0.2808
19318W        W35127   7.487  14.860  16.145 -0.1606  0.1222 -0.1584
19319W        W35128   4.729   1.573  12.792  0.0326 -0.2127  0.1324
19320W        W35129  11.935   4.831   2.712 -0.2896  0.1342 -0.0375
19321W        W35130  10.988  17.823  11.701 -0.2400 -0.0566  0.4386
19322W        W35131   7.079   3.635  11.828 -0.2274  0.0995  0.2349
19323W        W35132  17.941  16.284   1.994 -0.1159  0.0679  0.1509
19324W        W35133  16.014  17.699  13.674  0.0631 -0.2490  0.2044
19325W        W35134   8.066  10.729  11.887  0.0266  0.1152 -0.0805
19326W        W35135  16.016  12.213   2.926  0.2248 -0.2019 -0.1245
19327W        W35136   2.670  14.568  16.624 -0.1103 -0.1989  0.0123
19328W        W35137   6.729  13.445  12.214  0.0053 -0.0399 -0.0174
19329W        W35138   9.133   6.516   3.188  0.1524  0.1357 -0.2509
19330W        W35139  12.489   9.004   5.088 -0.2097  0.1360  0.3940
19331W        W35140   7.962  15.503  15.766  0.1094 -0.1912  0.0551
19332W        W35141   4.883   6.880  10.852 -0.1363 -0.1484  0.0641
19333W        W35142   7.119  13.412  15.974 -0.2686 -0.1440  0.2236
19334W        W35143   9.022   3.126   0.298 -0.0314  0.3318  0.0246
19335W        W35144   8.466   7.692  14.074  0.0909  0.0193 -0.3845
19336W        W35145   9.588  15.073   3.920  0.3220 -0.0553  0.2032
19337W        W35146  14.254  11.832  13.837 -0.0650  0.0307  0.0629
19338W        W35147  12.936   9.710   4.631  0.2223 -0.1359  0.0577
19339W        W35148   8.795   6.040   4.755 -0.1433  0.1941 -0.1486
19340W        W35149   6.429  12.939   1.409  0.1948 -0.1206  0.0337
19341W        W35150  10.381   4.404  12.768 -0.3019  0.1494  0.0622
19342W        W35151   9.661   5.242   5.167 -0.1787  0.0401  0.1377
19343W        W35152  14.933   9.538  16.046  0.1214 -0.0835 -0.2817
19344W        W35153   1.981  12.652   1.522 -0.1711 -0.0602  0.0974
19345W        W35154  10.700   9.881   4.136 -0.3092 -0.0877 -0.2377
19346W        W35155   8.155   0.744  14.980 -0.1412  0.1373 -0.1863
19347W        W35156  14.572   7.405  14.716 -0.1952 -0.2901 -0.2339
19348W        W35157  13.115   6.689   3.956 -0.0428  0.1323  0.2772
19349W        W35158   9.765   3.011   0.513  0.1730 -0.1117 -0.1404
19350W        W35159   4.230   2.765   6.032  0.1369  0.1758 -0.1123
19351W        W35160   2.044  13.497  16.224  0.3212 -0.4660  0.1965
19352W        W35161  13.400   0.969  15.270 -0.0717 -0.0962  0.0685
19353W        W35162  16.859  15.658   2.428 -0.1870  0.1077 -0.0086
19354W        W35163   6.078  12.122  12.594 -0.2067  0.0006  0.1456
19355W        W35164   6.715  11.333  13.910  0.0732  0.1543 -0.1138
19356W        W35165  17.199   8.972   2.218 -0.1975  0.1152  0.3097
19357W        W35166  16.879  16.840  12.328  0.0624  0.3037  0.0922
19358W        W35167   7.919   4.364   0.535 -0.0453  0.3255  0.2120
19359W        W35168   4.724   2.513   0.679 -0.2767 -0.1482 -0.0433
19360W        W35169  16.827   4.875   2.023 -0.0691  0.2457  0.4680
19361W        W35170  14.265  10.431  14.113  0.1206 -0.2278  0.0668
19362W        W35171  16.401   0.997   4.306 -0.3796  0.1517 -0.2400
19363W        W35172   9.217  15.506  14.896  0.0740 -0.0039  0.1068
19364W        W35173   4.494   5.884  12.384  0.3008 -0.2751  0.0395
19365W        W35174   4.618  11.404  14.782 -0.1149  0.2305 -0.1036
19366W        W35175   2.655  15.617  13.883 -0.1543 -0.0253  0.2911
19367W        W35176  10.836   0.619   1.393 -0.1293  0.0462  0.2396
19368W        W35177   7.502   8.946   1.179 -0.1427 -0.2051  0.0608
19369W        W35178  14.417  12.450  12.518 -0.2671 -0.2467  0.0441
19370W        W35179   1.451  17.216   0.255 -0.1251 -0.0334  0.1435
19371W        W35180  15.157   7.098   1.298 -0.1061 -0.3109  0.0369
19372W        W35181  13.284   6.483  15.426  0.0914 -0.0444  0.0235
19373W        W35182   3.559   5.497   2.945  0.0650  0.1543  0.0712
19374W        W35183   4.640   3.833  11.289  0.0098  0.0709  0.1175
19375W        W35184  10.683  10.187   2.511  0.1723  0.0843 -0.1167
19376W        W35185   8.706   3.600  12.554 -0.1842  0.1736  0.2986
19377W        W35186   8.462   7.155   3.469  0.3518  0.0711  0.2390
19378W        W35187  11.764   6.379   4.509 -0.0819 -0.1486  0.0925
19379W        W35188   4.136  17.348   2.728  0.1214 -0.0790  0.1929
19380W        W35189   5.355  10.871   2.642  0.1120  0.0227 -0.0914
19381W        W35190   3.171   6.184  13.645 -0.1279 -0.0117  0.0735
19382W        W35191  15.265   9.066  14.265 -0.0041  0.1058  0.1773
19383W        W35192  14.375   9.106   5.394  0.3099  0.1579  0.1562
19384W        W35193   6.807   6.278   4.898  0.0669  0.3885  0.0550
19385W        W35194   7.258  13.891   3.627 -0.0883 -0.1934  0.0421
19386W        W35195   2.398  15.911   3.771 -0.1639 -0.0549 -0.0121
19387W        W35196   1.115  11.289   2.759 -0.2267 -0.2236  0.3241
19388W        W35197   0.204   4.900  14.142  0.0162 -0.0406  0.0306
19389W        W35198  17.774   7.061   5.195  0.1242  0.0001  0.1891
19390W        W35199  16.702  13.309  13.313 -0.3216 -0.1190 -0.3218
19391W        W35200  14.551  16.204   0.567 -0.2025  0.1476 -0.0205
19392W        W35201  14.788   4.257  11.738 -0.2833  0.0164 -0.1572
19393W        W35202  11.991  13.318   4.481  0.1870 -0.1600 -0.2318
19394W        W35203   0.339   8.687   3.874  0.1682  0.3788 -0.0350
19395W        W35204  16.368   0.397   2.803  0.1382  0.1360 -0.2221
19396W        W35205  16.728   3.069  11.533 -0.1800  0.3585 -0.0493
19397W        W35206   3.413  13.233  13.852  0.2359  0.3212  0.0097
19398W        W35207   5.867   9.771   5.376  0.1578 -0.3200 -0.0660
19399W        W35208   0.297   1.471   3.474 -0.0199 -0.1595 -0.0756
19400W        W35209   9.550   9.967   5.004 -0.0855 -0.4096 -0.1796
19401W        W35210   2.026   4.308   2.237  0.0848  0.3386  0.0121
19402W        W35211   6.028  11.097  14.435 -0.1855 -0.0878  0.0581
19403W        W35212   5.176   8.540   2.928  0.0651 -0.0718  0.2423
19404W        W35213   1.995   3.837   0.382  0.0118 -0.0521 -0.1552
19405W        W35214   1.862  11.555  13.746  0.0190 -0.2109 -0.1549
19406W        W35215   7.880   8.028   2.591 -0.0673  0.2459 -0.1208
19407W        W35216   9.662   8.513   2.209  0.0884 -0.3139  0.2374
19408W        W35217  11.487   6.187  13.532 -0.1225 -0.0605  0.2236
19409W        W35218  11.146   0.965   1.635 -0.0797 -0.2844 -0.0945
19410W        W35219   2.673   6.918   3.367  0.0173  0.0696 -0.1001
19411W        W35220   6.269   5.681   1.687 -0.0654 -0.0401 -0.0698
19412W        W35221  11.140  10.926  15.892  0.1486 -0.0035 -0.2979
19413W        W35222  13.954  16.920  15.436 -0.0772 -0.0312  0.2631
19414W        W35223   6.743   4.465   3.973 -0.2117 -0.0874  0.2303
19415W        W35224  16.863   9.928   0.662  0.0387  0.0381 -0.2221
19416W        W35225   0.736  15.630  14.136 -0.2986  0.0412 -0.0949
19417W        W35226   4.870   4.414   3.875  0.1487  0.4454 -0.2131
19418W        W35227  16.267   4.144   1.075  0.0029  0.2200  0.1291
19419W        W35228   9.621   4.945   2.527 -0.2383 -0.1435 -0.0379
19420W        W35229   5.617  12.898   1.794 -0.0744 -0.4221 -0.0535
19421W        W35230   3.035   0.830   3.812 -0.1021  0.0990  0.2977
19422W        W35231  13.845   4.947  14.739  0.0334 -0.1873 -0.2992
19423W        W35232  14.147   5.503  14.595 -0.1727 -0.0421  0.0111
19424W        W35233   1.966   5.079   3.069 -0.0944  0.1988 -0.1395
19425W        W35234   8.486   1.875   3.871 -0.1633 -0.4144 -0.0303
19426W        W35235  11.559  15.596  13.086  0.1792  0.2234 -0.0290
19427W        W35236   8.302   2.504  12.428 -0.1004  0.1100  0.2286
19428W        W35237   5.324   4.441   0.039 -0.1384  0.0517 -0.0052
19429W        W35238   5.878  10.144   4.019 -0.0013 -0.0483 -0.2075
19430W        W35239  12.195  15.417   5.883 -0.0176 -0.2291 -0.0286
19431W        W35240   9.455   6.927   4.554  0.2347 -0.0789 -0.2697
19432W        W35241  10.782   2.119   6.682 -0.0822  0.0428 -0.1527
19433W        W35242   5.418  11.311  12.564  0.2376 -0.2511 -0.1391
19434W        W35243  11.551   1.984   1.886 -0.2031  0.2547 -0.0291
19435W        W35244  16.801  14.745  13.092  0.2288 -0.0518  0.0798
19436W        W35245  15.538   4.403   5.047 -0.2878  0.0177  0.3097
19437W        W35246  17.250  17.932  16.566  0.1491 -0.1790  0.1918
19438W        W35247   6.519   4.515  15.851 -0.0400 -0.0965  0.1472
19439W        W35248  15.199   7.591   0.577  0.3271 -0.2018  0.0686
19440W        W35249   5.546   5.953  13.471  0.1722  0.2543  0.0189
19441W        W35250  10.924   5.776  12.722  0.2015  0.0491  0.0033
19442W        W35251  12.624  15.206  13.825 -0.1755  0.2207  0.0266
19443W        W35252  13.552  10.685   3.991  0.3086  0.1626 -0.2409
19444W        W35253  14.647   8.161  14.425 -0.1088 -0.1229  0.0388
19445W        W35254   9.000   9.768  14.089  0.1568  0.2256 -0.0069
19446W        W35255   8.952  10.664  14.395 -0.2570  0.1240 -0.1939
19447W        W35256   2.644  11.912   0.507  0.0576 -0.1047  0.1431
19448W        W35257   3.585   7.460   1.662 -0.1059 -0.0726 -0.1702
19449W        W35258   9.694  12.799  12.771 -0.0663 -0.0086  0.1036
19450W        W35259   2.072   1.727  12.115  0.1339 -0.1693  0.2470
19451W        W35260   4.443  11.956  16.026  0.3465 -0.1613  0.1940
19452W        W35261   1.559   1.983  12.425 -0.1686  0.0732  0.0788
19453W        W35262  11.647   3.225   1.735 -0.3747  0.1042 -0.1229
19454W        W35263   1.263   9.511   3.726  0.2433  0.0460 -0.0851
19455W        W35264  10.946  10.920  16.710 -0.0233 -0.3613 -0.0331
19456W        W35265  16.014  11.208   5.792 -0.0068  0.1751 -0.1272
19457W        W35266   3.771   7.233  14.511 -0.0586  0.1546  0.0011
19458W        W35267  14.863  16.639   0.677  0.4856  0.3143 -0.0335
19459W        W35268   0.465  15.962  16.404  0.1869 -0.0972  0.0616
19460W        W35269   8.676  14.204  13.350 -0.0401 -0.0810  0.0105
19461W        W35270  16.690  10.977  16.061  0.2129 -0.1690  0.0996
19462W        W35271  13.406  13.518   3.294 -0.0593 -0.0458 -0.2159
19463W        W35272  15.532  15.914   1.224  0.0381 -0.0625  0.0906
19464W        W35273   3.045   3.121  12.729  0.2066 -0.1393  0.1824
19465W        W35274  13.478   3.626  16.446  0.2838 -0.2434  0.0193
19466W        W35275  13.273  10.657  11.484 -0.1065 -0.2442 -0.1966
19467W        W35276   3.864   7.834  16.614 -0.1431  0.3175 -0.0539
19468W        W35277   6.167  10.763   1.852 -0.0658  0.0631  0.0643
19469W        W35278   6.007   4.993   0.258 -0.1017  0.0741  0.0667
19470W        W35279  11.785  11.761  15.206  0.3918  0.1463 -0.0947
19471W        W35280  15.753  13.559  12.961  0.1361  0.2010 -0.2926
19472W        W35281  14.292   3.846  16.443  0.0936  0.0271 -0.1590
19473W        W35282  10.080   0.893  16.330  0.1121 -0.0385 -0.1397
19474W        W35283  12.848  16.888  14.550  0.0674 -0.0579 -0.1822
19475W        W35284   1.658  13.145   4.564  0.0300 -0.0576  0.2698
19476W        W35285   9.412   1.072   0.212  0.0201  0.0147  0.0874
19477W        W35286   7.123  11.138  15.269  0.0644 -0.1276  0.0943
19478W        W35287   4.110   3.852  14.220 -0.1345  0.1632 -0.3220
19479W        W35288   7.607   5.149   3.147 -0.1260  0.3289  0.0074
19480W        W35289   0.491   1.903  10.506 -0.0157 -0.2817  0.0300
19481W        W35290  14.838  11.076  15.739 -0.2800 -0.0825 -0.0291
19482W        W35291   7.347   1.033   5.170 -0.5151  0.1890 -0.0499
19483W        W35292   0.568  10.929   3.356 -0.0461  0.1790 -0.1624
19484W        W35293  11.221   4.976   1.286  0.1125 -0.0750  0.0574
19485W        W35294  17.864   3.612   1.860  0.0424 -0.0007 -0.0615
19486W        W35295   8.054  13.509  16.651 -0.0536  0.2957  0.0692
19487W        W35296   9.930  12.695   0.986 -0.2630  0.3675  0.0246
19488W        W35297   9.743   0.505   6.523  0.4320 -0.1543 -0.1103
19489W        W35298   5.174   9.402  16.111 -0.0630 -0.1482 -0.0291
19490W        W35299  12.631  15.788  15.296 -0.0289 -0.0655  0.0971
19491W        W35300   2.916   6.081  15.751  0.1311 -0.1877 -0.1130
19492W        W35301   6.577   8.094   2.292 -0.0232  0.0133  0.1206
19493W        W35302   3.810   4.679  13.856 -0.0444 -0.0320  0.0252
19494W        W35303  15.663   7.932   1.397 -0.3938  0.0057  0.1886
19495W        W35304   2.472  14.862  16.243 -0.4002  0.2141  0.2894
19496W        W35305   7.893   9.343  12.007 -0.0571  0.3528 -0.0509
19497W        W35306   1.453   0.004  11.538 -0.1643  0.1052  0.1675
19498W        W35307   9.339  10.879   0.849 -0.2485  0.1276 -0.3553
19499W        W35308   0.609  10.926   0.489  0.2696  0.2202 -0.1287
19500W        W35309   6.412   2.324  15.188  0.1802 -0.0036 -0.3148
19501W        W35310   6.879   5.292   0.941 -0.0708 -0.1718 -0.2097
19502W        W35311  10.346   6.989  16.045 -0.3617 -0.0985 -0.3325
19503W        W35312   5.965  15.306   1.085 -0.1883  0.0938 -0.0877
19504W        W35313   0.895  16.680   0.968  0.2782  0.2353 -0.1779
19505W        W35314   2.075   3.292  15.507  0.0586  0.1843 -0.0823
19506W        W35315   2.991  14.202  13.076  0.3873 -0.0302 -0.2139
19507W        W35316  14.908   9.069  14.798  0.0196 -0.1225  0.0938
19508W        W35317   2.647  16.569   4.258 -0.0671 -0.1635  0.1319
19509W        W35318   4.774  10.026  13.708  0.0271  0.2394 -0.1535
19510W        W35319   4.444  17.931  12.009 -0.1736  0.0668  0.1957
19511W        W35320  11.359  14.099   4.829  0.0264 -0.0947 -0.2874
19512W        W35321  12.735  13.492  11.696 -0.0432 -0.2151  0.0106
19513W        W35322  10.883   6.396  16.713 -0.4375 -0.0050  0.0732
19514W        W35323  11.548   5.940  15.375 -0.1578 -0.0358 -0.0791
19515W        W35324   6.547   6.022   2.783 -0.1111 -0.1638 -0.3452
19516W        W35325  14.659  15.185   5.318 -0.1997 -0.1411  0.1823
19517W        W35326   6.701   6.314  15.993  0.4449 -0.1614  0.2605
19518W        W35327   3.717   4.078   2.526  0.1008  0.1817 -0.0420
19519W        W35328  13.037  13.778  15.730  0.1009 -0.0969  0.0793
19520W        W35329   9.447  15.465   2.398 -0.2030  0.0060  0.3341
19521W        W35330   1.456   5.161  14.954 -0.2715 -0.0507  0.0064
19522W        W35331   8.587   7.587   5.167 -0.2020  0.0493  0.0586
19523W        W35332  15.360  16.739   5.258 -0.0250  0.0519  0.3213
19524W        W35333   4.005   5.009   1.694 -0.0709  0.2248 -0.1757
19525W        W35334  11.298  11.226   2.884 -0.0580  0.0067  0.0609
19526W        W35335   8.685   0.424   5.188 -0.1390  0.0619  0.1817
19527W        W35336  14.897   5.880  11.942 -0.0361 -0.1688 -0.0280
19528W        W35337   2.328  11.674  13.651 -0.0554  0.0584 -0.0334
19529W        W35338  14.722   7.540   0.194  0.2420 -0.1494  0.1652
19530W        W35339   8.243   8.328   2.185 -0.0806  0.0985 -0.2240
19531W        W35340   4.157   9.830   3.966  0.3961 -0.2001 -0.0104
19532W        W35341  13.605   8.555  12.433 -0.1439 -0.1085  0.0734
19533W        W35342   4.437   3.936  13.785 -0.0625  0.2779  0.4122
19534W        W35343  17.823   5.226   5.456  0.1711 -0.2017  0.3756
19535W        W35344   3.461   5.560  13.378 -0.2162 -0.1358  0.1965
19536W        W35345   7.173   0.665  11.197 -0.0936 -0.1134  0.0199
19537W        W35346  10.545  17.673   5.092  0.1711 -0.2129  0.2831
19538W        W35347   4.660   9.258  12.909  0.0572 -0.0180 -0.1842
19539W        W35348  13.566   0.151  16.445 -0.2593  0.0318 -0.1592
19540W        W35349   4.746   4.600   5.852  0.3107 -0.4225 -0.0396
19541W        W35350  10.221   5.252   4.262  0.2551 -0.0381 -0.1522
19542W        W35351  14.477   0.131   4.376 -0.0828 -0.2491  0.0815
19543W        W35352   8.401  17.817  13.486 -0.2296  0.1088 -0.1097
19544W        W35353  10.029  14.980   1.358 -0.2748  0.1834 -0.0412
19545W        W35354  12.368  17.379  12.568  0.5029 -0.1459  0.0486
19546W        W35355   6.583  15.397  14.980 -0.1566 -0.0653  0.0418
19547W        W35356   8.536   5.281   0.617 -0.1726  0.0703  0.0461
19548W        W35357  12.717   3.990  16.238 -0.0869 -0.1842  0.2860
19549W        W35358   9.599  17.524   0.556 -0.2344 -0.0793 -0.2181
19550W        W35359  11.412  16.292  14.957  0.1883 -0.0880 -0.1226
19551W        W35360   1.213  15.175   3.291 -0.2908  0.0876  0.0365
19552W        W35361  10.350  15.965   5.543  0.0471  0.0504  0.1668
19553W        W35362   6.743  16.814  11.752 -0.2117 -0.1783  0.0235
19554W        W35363   1.368   1.550  16.257  0.0920 -0.0318 -0.3031
19555W        W35364   8.508  12.051  16.697  0.0983  0.0395 -0.0566
19556W        W35365   1.535  16.349   1.619 -0.0866  0.2030 -0.0817
19557W        W35366   0.341  17.806  13.433  0.2274  0.0581 -0.0831
19558W        W35367   5.437  17.090   0.923  0.0156  0.3146  0.3403
19559W        W35368   8.268   2.006   5.816 -0.0022  0.0919 -0.0003
19560W        W35369  13.012   6.072   1.376 -0.2154 -0.0695 -0.2097
19561W        W35370   4.746   2.023   4.756 -0.0738 -0.1096 -0.0703
19562W        W35371  11.118  11.499   4.230 -0.1643 -0.3429  0.1861
19563W        W35372   8.265   4.231   5.024 -0.0256 -0.0153  0.0586
19564W        W35373   0.492   0.490   0.968 -0.0728  0.0946  0.0823
19565W        W35374   4.951  17.813   4.720  0.1237  0.1937  0.0139
19566W        W35375   0.690   4.360   3.856 -0.4739  0.0428 -0.0460
19567W        W35376   3.831   6.427   0.812 -0.2469  0.0619  0.1449
19568W        W35377  16.802   1.732   3.773 -0.1270  0.0402  0.1721
19569W        W35378   2.506  14.120   1.696 -0.1208  0.0502  0.0982
19570W        W35379   3.819   6.697   1.834  0.1067 -0.1392 -0.1368
19571W        W35380   4.920   0.855   2.058 -0.0248  0.2346  0.0514
19572W        W35381   5.856   8.985  13.385  0.1860 -0.0374  0.0229
19573W        W35382   3.686   3.775  12.741 -0.0920 -0.3278  0.0986
19574W        W35383   5.562  16.974   3.492  0.1871  0.1667  0.0117
19575W        W35384  15.923   2.958  13.119  0.1211 -0.0883 -0.0093
19576W        W35385  15.699   0.621   0.549 -0.0278 -0.0803 -0.0620
19577W        W35386   0.655   7.989   4.249 -0.1015  0.1021 -0.1523
19578W        W35387   5.529   5.946  12.464 -0.0470  0.3039  0.1671
19579W        W35388  17.211  13.019   3.759 -0.0879 -0.1128 -0.0397
19580W        W35389  13.441  10.315  13.217 -0.1174  0.1170 -0.1353
19581W        W35390  16.326   1.770  15.001  0.4054  0.0522  0.0084
19582W        W35391   8.621  11.171  10.532 -0.0007 -0.2587  0.2807
19583W        W35392   4.256   9.537  11.941  0.0712  0.0241 -0.1520
19584W        W35393  15.062   5.422  11.778 -0.3514 -0.4423  0.1805
19585W        W35394  10.953   5.530  13.459 -0.0417 -0.1751  0.2232
19586W        W35395  12.091   9.535   4.497  0.0297 -0.3616 -0.1636
19587W        W35396   1.140   9.514  13.707  0.0671 -0.2115 -0.1122
19588W        W35397   2.794  14.006  15.197  0.2779  0.1979 -0.0689
19589W        W35398  16.947   9.787   5.824 -0.0806  0.1950 -0.1288
19590W        W35399  16.428   1.727  12.800 -0.0015 -0.0979  0.0011
19591W        W35400   8.404  11.760  12.652  0.0130  0.0887  0.2563
19592W        W35401  14.355  12.980  14.003 -0.2340 -0.1191  0.0192
19593W        W35402  16.013   9.272  13.804  0.1293 -0.1597  0.1447
19594W        W35403   5.111  12.150  14.337  0.0444  0.2323 -0.2617
19595W        W35404  11.137   8.885  13.775  0.0487 -0.0914  0.0655
19596W        W35405   0.215  16.314   0.088  0.2886 -0.0863  0.0975
19597W        W35406  14.813   2.343  15.358  0.0732  0.1380  0.1203
19598W        W35407   7.446  11.411  13.178 -0.1832 -0.0594  0.0733
19599W        W35408   7.766   4.363   2.558 -0.1781  0.0034  0.1007
19600W        W35409   8.882   6.698   2.260 -0.0491 -0.0746  0.0843
19601W        W35410  15.374   4.241  13.418  0.1665  0.1387  0.0338
19602W        W35411  12.654   3.398   4.843  0.0198  0.0067  0.0920
19603W        W35412   2.457   1.615   1.942  0.0563 -0.0945  0.1099
19604W        W35413  17.827  11.630   3.332 -0.0852 -0.4568 -0.3653
19605W        W35414  16.505   5.053  15.190 -0.0846  0.2301  0.0963
19606W        W35415  15.212   7.126  13.526 -0.0659 -0.0963  0.1436
19607W        W35416   4.845  11.370   9.834 -0.0991 -0.1037  0.2946
19608W        W35417   1.493   4.771  11.613  0.1143  0.1747  0.2933
19609W        W35418   1.632  11.504   0.316 -0.0347  0.1821 -0.3176
19610W        W35419  13.081   0.996  10.823  0.0520  0.1329  0.1217
19611W        W35420  11.365  13.686  12.223 -0.1359  0.0499  0.0245
19612W        W35421   1.200   8.013  13.859 -0.3329 -0.1057  0.0545
19613W        W35422  10.054   6.111   5.287  0.0498  0.3730 -0.0164
19614W        W35423  17.843   8.708  13.186  0.3592  0.0726  0.1989
19615W        W35424  16.428  12.681   4.375 -0.1304  0.0368 -0.2130
19616W        W35425  13.187  11.347   1.800 -0.0488 -0.1351 -0.2083
19617W        W35426  14.646  12.423  12.026 -0.2602  0.1384  0.1315
19618W        W35427   9.521  13.575   5.232 -0.1606 -0.0941  0.1229
19619W        W35428  14.026   3.976  13.825 -0.0378  0.1712  0.1416
19620W        W35429   6.486   6.229  11.399  0.1361 -0.2446 -0.1105
19621W        W35430  16.673   7.760   2.779 -0.0054 -0.2897 -0.0678
19622W        W35431  13.149  17.300  12.160 -0.1952 -0.0730  0.0027
19623W        W35432   2.937  16.217   5.345 -0.1868 -0.1746  0.0665
19624W        W35433   1.461   2.414   2.672  0.1238  0.1771  0.0372
19625W        W35434  11.283   0.837  15.827 -0.0625  0.0403 -0.3373
19626W        W35435   7.902   3.291  12.392  0.2033 -0.0233  0.2254
19627W        W35436  14.686  17.946   2.817 -0.2575  0.0581 -0.0487
19628W        W35437  14.030   0.502   4.395  0.2299  0.0419 -0.0431
19629W        W35438   2.815  17.639  13.689  0.0265  0.0848 -0.1430
19630W        W35439   9.099  10.321   1.664  0.0131  0.0270  0.0682
19631W        W35440  12.478   2.363  16.530  0.3223  0.0300  0.0301
19632W        W35441   2.139  15.336   5.462 -0.0518 -0.2497 -0.0158
19633W        W35442   5.926   6.402   5.006  0.3864  0.1181  0.0081
19634W        W35443   2.138  13.564   2.830 -0.3890 -0.1994 -0.0827
19635W        W35444  11.231   7.115   4.222 -0.0342 -0.4564  0.1446
19636W        W35445   0.225  10.251   3.750  0.0793  0.0501  0.2636
19637W        W35446   2.809   3.998  11.393 -0.0280 -0.2993 -0.1257
19638W        W35447   2.841  16.028  15.285 -0.1850  0.0828  0.2069
19639W        W35448   1.951  12.519  11.694  0.3103 -0.0708  0.0154
19640W        W35449   4.596   3.294  16.196  0.1819  0.1491  0.0053
19641W        W35450  16.984  13.551   0.170 -0.0845  0.0653 -0.1379
19642W        W35451  17.835   6.086  13.187  0.1104 -0.1783  0.1367
19643W        W35452   5.835   6.691  16.430  0.1249  0.1698  0.1858
19644W        W35453  15.756   7.119  13.196  0.1763 -0.1483  0.0972
19645W        W35454   8.768   6.777  13.438  0.0420  0.0835  0.2015
19646W        W35455   0.852  10.539   0.244 -0.0315 -0.1708 -0.2719
19647W        W35456   4.967   8.219   5.163  0.0994 -0.1386  0.0675
19648W        W35457   2.319   0.975   4.464  0.0279 -0.0025 -0.0692
19649W        W35458  17.650  14.273   4.595  0.0995 -0.1509 -0.4151
19650W        W35459  16.990   9.436   0.404  0.0420  0.1728 -0.1232
19651W        W35460   9.327   5.257   4.688 -0.1310  0.0360 -0.1749
19652W        W35461  11.092   8.197   0.246 -0.3275 -0.1875 -0.0264
19653W        W35462   2.665  16.596   0.595 -0.3322 -0.2055 -0.0708
19654W        W35463   3.889  15.954   2.466 -0.2878  0.1022 -0.2903
19655W        W35464   0.948   8.466   0.450  0.0678  0.0997  0.0849
19656W        W35465  15.308   8.305  11.401 -0.1346  0.1136 -0.3006
19657W        W35466  16.010  16.410   3.908 -0.0256  0.0536 -0.1005
19658W        W35467  16.311   5.303  15.692 -0.4709  0.0928  0.1121
19659W        W35468  13.961   8.258   2.786  0.1332  0.0715 -0.0356
19660W        W35469   5.148   6.084  15.212 -0.0570 -0.0820 -0.3298
19661W        W35470   7.818  15.774  12.335  0.0604  0.2709  0.3315
19662W        W35471  15.972  14.688  15.565  0.0758  0.0170 -0.2187
19663W        W35472  10.285   5.791  12.560  0.2146 -0.0205  0.0401
19664W        W35473  15.063   9.592  11.151  0.3445  0.2338 -0.1718
19665W        W35474  12.702   6.353   4.172 -0.1693 -0.3517 -0.0374
19666W        W35475   9.119   3.188   5.847 -0.0002 -0.0705 -0.0038
19667W        W35476  16.118  12.953   1.027  0.0933 -0.1602  0.1729
19668W        W35477   3.129   1.190  15.677  0.1346 -0.0077  0.0865
19669W        W35478  14.720  12.344   0.588 -0.1846  0.2699  0.0572
19670W        W35479   0.702   2.911   4.124  0.0901 -0.0832  0.2328
19671W        W35480   5.612   1.590   0.001 -0.0863 -0.0684  0.1876
19672W        W35481  12.197   6.028  14.775  0.1361 -0.0035  0.1245
19673W        W35482   7.396  14.298   5.705 -0.2320 -0.2133  0.1419
19674W        W35483  10.867   7.888  12.717 -0.2680 -0.1602  0.0590
19675W        W35484  16.802  11.727  15.073 -0.0234  0.0119 -0.1211
19676W        W35485  15.238  12.135  11.761 -0.3125  0.1439 -0.1338
19677W        W35486   7.427   2.578   2.049 -0.4861  0.1650  0.1014
19678W        W35487  15.594   9.216   0.211 -0.1536  0.1976  0.3821
19679W        W35488  14.454  12.912  12.707 -0.0655 -0.1323  0.0755
19680W        W35489  10.167  11.213  14.291  0.0932 -0.0831 -0.0118
19681W        W35490   1.997   4.091  11.840 -0.1296  0.0727 -0.0972
19682W        W35491   0.094  14.891   4.533  0.0579  0.0289 -0.2733
19683W        W35492   5.085   8.925   5.778 -0.1106 -0.1124  0.1394
19684W        W35493   8.282  17.094   1.212  0.2161  0.3407 -0.0186
19685W        W35494   4.682  10.396  10.738 -0.2442 -0.3121  0.0263
19686W        W35495   3.834  13.396  14.644 -0.2509 -0.2957 -0.4240
19687W        W35496  10.055   3.002   5.378  0.0355  0.0534  0.0571
19688W        W35497  12.483  11.766  11.707 -0.1621  0.2055 -0.0111
19689W        W35498   5.164   6.207   0.649 -0.0009  0.3960  0.1770
19690W        W35499   3.039  15.117   5.277  0.0017 -0.2006  0.0588
19691W        W35500  12.774   8.442   1.098  0.2098 -0.3737 -0.4228
19692W        W35501   2.120   5.579   2.306  0.1664 -0.1709 -0.0326
19693W        W35502  10.994  17.131  11.814  0.0495 -0.5104  0.2005
19694W        W35503  10.229   8.633   2.127  0.0250  0.0695 -0.1729
19695W        W35504  16.616  14.427   4.204 -0.2275  0.0253  0.1075
19696W        W35505  11.566   2.922   1.311  0.0625 -0.1682  0.0974
19697W        W35506  15.234  17.769   1.462 -0.0759 -0.1457  0.0340
19698W        W35507  15.706  11.123   3.027 -0.2029 -0.2087 -0.2194
19699W        W35508  13.753   2.869   0.583 -0.3454 -0.1757  0.1382
19700W        W35509   0.572   9.594   3.063  0.1819 -0.0773  0.0118
19701W        W35510   1.548  12.744   1.706 -0.0159 -0.0791  0.0733
19702W        W35511  15.095   4.191  14.211 -0.2340 -0.3012  0.1897
19703W        W35512  17.705   7.465   3.935  0.0363 -0.0306 -0.0144
19704W        W35513   0.318  14.470   1.876 -0.1259  0.0573 -0.1901
19705W        W35514  15.379   5.964   2.750 -0.1597  0.0230 -0.1995
19706W        W35515   8.976   3.905  15.414  0.1383  0.1099 -0.1858
19707W        W35516  17.387  10.421   0.226  0.4020 -0.0874 -0.1001
19708W        W35517  10.203  10.018  12.164  0.0177 -0.1405  0.1664
19709W        W35518   1.480   5.118   3.817  0.1842 -0.0840  0.1553
19710W        W35519   3.685   5.711  16.305  0.1818 -0.0007 -0.0135
19711W        W35520  10.162  12.741  16.281  0.2984  0.0852  0.0746
19712W        W35521   0.950   6.594   3.235  0.3191  0.0851  0.0090
19713W        W35522   5.708   4.072   0.117  0.1012  0.1388 -0.0927
19714W        W35523   0.854  13.439   0.590  0.1971 -0.2234  0.1926
19715W        W35524  14.609  14.122  12.922  0.0581 -0.0089  0.1306
19716W        W35525   0.750   3.176  15.300  0.1792  0.1102 -0.1946
19717W        W35526   9.401   8.537  12.218 -0.1882 -0.2148 -0.2891
19718W        W35527   0.827   1.673  15.365  0.1418 -0.0384 -0.1695
19719W        W35528   8.756  12.191  12.681 -0.2041  0.1125  0.0119
19720W        W35529  12.536  11.658  13.033  0.0399 -0.0007  0.0948
19721W        W35530  13.283  10.412  14.236  0.1461 -0.0466 -0.3560
19722W        W35531   9.577   4.987   3.583  0.2265 -0.2767  0.2944
19723W        W35532  13.033   8.419   3.150 -0.1109  0.2557  0.0922
19724W        W35533  15.292   1.494   5.551 -0.2131  0.0584  0.1730
19725W        W35534  17.043   9.823   1.167  0.0335 -0.4110  0.2481
19726W        W35535   6.585   9.030   2.811 -0.0770  0.1247  0.1094
19727W        W35536  12.952  14.310   3.261 -0.1786 -0.0973  0.0277
19728W        W35537   6.929   6.869   0.488  0.0285 -0.0494  0.2478
19729W        W35538   3.645   3.491  12.201 -0.1863 -0.1245  0.0100
19730W        W35539  13.075   8.424   6.520 -0.1542 -0.0082  0.0230
19731W        W35540   1.624  11.002   5.029  0.0071  0.2204 -0.1361
19732W        W35541   6.663   4.105   3.025  0.1419  0.0339 -0.0524
19733W        W35542  16.342  17.428   0.159 -0.1389  0.0891 -0.3759
19734W        W35543  12.456   2.764  16.209  0.1120 -0.0783  0.2217
19735W        W35544   4.176   0.950   4.573  0.1738 -0.1289  0.3668
19736W        W35545   2.543  12.347  12.366 -0.1486 -0.1514  0.1881
19737W        W35546   4.555  13.075   4.905  0.3264  0.2028 -0.1940
19738W        W35547  13.488   5.158  15.514  0.4284  0.0754  0.1799
19739W        W35548   1.296   6.413  14.205 -0.0156  0.3062 -0.0564
19740W        W35549  11.631   3.256   2.218 -0.1752  0.0232  0.2502
19741W        W35550   2.980   5.385  11.182  0.1709  0.2800  0.1533
19742W        W35551   3.353   5.753   2.503  0.1665 -0.0957  0.1622
19743W        W35552  13.830  10.812  12.086 -0.2655  0.0347 -0.0806
19744W        W35553   9.182  15.128   3.098  0.0913  0.2565  0.0083
19745W        W35554   0.566   8.774   1.758  0.1309 -0.0958  0.0210
19746W        W35555   4.155   6.198  15.230 -0.0021  0.0940  0.0374
19747W        W35556   3.241  11.750  16.286 -0.0820  0.2607  0.1655
19748W        W35557  10.107  17.125   3.548 -0.0977 -0.2153  0.0721
19749W        W35558   4.337  12.461  16.016  0.1303 -0.0226  0.0900
19750W        W35559   0.912  17.229   0.091 -0.1881  0.2436  0.3248
19751W        W35560  15.253   5.265   0.751  0.2438  0.2902  0.2714
19752W        W35561  16.608   7.438   3.771 -0.1064 -0.0595 -0.0853
19753W        W35562   4.698   8.603   4.315 -0.1443 -0.1973  0.3487
19754W        W35563   7.003   0.467  14.360 -0.1082 -0.1705  0.1801
19755W        W35564  10.993  13.825   0.469 -0.0485  0.0596 -0.0470
19756W        W35565   4.104  13.673  14.350 -0.0760  0.0051  0.0404
19757W        W35566   1.497   0.629  16.661 -0.0281  0.1786 -0.3319
19758W        W35567  14.040   6.256  13.734  0.0193 -0.3648  0.1347
19759W        W35568  12.005   4.435   3.470 -0.1424 -0.1394  0.1230
19760W        W35569   4.857  16.757   2.677 -0.0159 -0.0603  0.2225
19761W        W35570  11.133   4.214   6.610  0.0625 -0.2022 -0.1160
19762W        W35571  12.891   2.113   4.389 -0.3077 -0.0597  0.0224
19763W        W35572   5.538   4.646  14.002 -0.4446 -0.0561  0.0183
19764W        W35573  11.146   0.875  14.359 -0.1238 -0.1367  0.0939
19765W        W35574  17.935  11.981  15.277  0.2386 -0.0997  0.1469
19766W        W35575   1.387   6.822  12.564 -0.1622 -0.0606 -0.0023
19767W        W35576   5.950   1.080  10.881  0.1881  0.3711  0.0237
19768W        W35577  15.730   9.016  15.595  0.0530  0.1594 -0.3599
19769W        W35578   1.199  12.734   3.167 -0.1858 -0.0676 -0.5485
19770W        W35579  15.876  10.640  15.036 -0.1643 -0.0170  0.0958
19771W        W35580   8.036   7.218   3.145  0.2442  0.2605 -0.0962
19772W        W35581   6.790   4.905   4.297  0.1262 -0.0955 -0.2224
19773W        W35582   0.167   9.282  14.531 -0.2578 -0.1044 -0.0131
19774W        W35583   0.388  15.029  11.430  0.2908  0.1244  0.1242
19775W        W35584   0.787  11.461  14.977  0.2236 -0.3829 -0.1170
19776W        W35585   5.924   4.679   2.778  0.1698  0.2513  0.1204
19777W        W35586  13.552   8.858   5.799 -0.1510 -0.0145 -0.1198
19778W        W35587   8.486   5.074   1.615 -0.1839  0.1406  0.1693
19779W        W35588  16.628   4.852   2.694 -0.0267 -0.2490 -0.0370
19780W        W35589  10.712   5.148   4.394 -0.1865 -0.2287 -0.1496
19781W        W35590   7.326   3.327   4.929 -0.1576  0.1624  0.2505
19782W        W35591  13.026  14.757  13.878 -0.1775 -0.2995 -0.0768
19783W        W35592   4.964  15.040   1.306  0.4458  0.0108  0.0636
19784W        W35593  15.330   8.867   2.226 -0.0271 -0.0618  0.0514
19785W        W35594  15.310  16.013   2.124 -0.0746  0.0872 -0.0343
19786W        W35595  14.155  11.226  12.422 -0.0602 -0.0168 -0.1870
19787W        W35596  12.260   9.618   5.881  0.1115  0.0977  0.1484
19788W        W35597   8.925   1.764   1.496  0.3071  0.2909 -0.0174
19789W        W35598  13.930   4.003  11.593 -0.0612 -0.0281  0.2271
19790W        W35599  14.690   5.685  14.917  0.1470  0.1775 -0.4511
19791W        W35600   5.141   4.426   1.185 -0.2128 -0.0130  0.0840
19792W        W35601   4.467  10.942  13.500 -0.0235  0.2455 -0.0854
19793W        W35602   3.037  16.549  14.187 -0.1415 -0.0428  0.0809
19794W        W35603  14.081   6.803   0.500  0.1392 -0.1151  0.1046
19795W        W35604  14.358   8.582  14.485 -0.2060  0.1727 -0.2069
19796W        W35605   9.987   5.283   5.969  0.2271 -0.4063 -0.0083
19797W        W35606  14.487   0.186   0.519 -0.2120  0.1181 -0.0885
19798W        W35607   5.384  14.585  14.972  0.0916  0.2344  0.0291
19799W        W35608  10.119   8.993  13.567  0.3557 -0.1621 -0.2435
19800W        W35609   1.215  15.545  13.958  0.0732  0.1108 -0.3548
19801W        W35610  10.156   0.956   2.660  0.0957  0.2527 -0.0821
19802W        W35611  14.077  11.606   0.400  0.4025 -0.0792 -0.1575
19803W        W35612   6.644  12.039   5.595  0.1055 -0.0471  0.0552
19804W        W35613  16.175  16.134   3.556  0.0562  0.0714 -0.0653
19805W        W35614   6.021   7.205  13.705  0.0763 -0.0909 -0.2590
19806W        W35615   1.170   1.414   0.864 -0.1593  0.0174 -0.0399
19807W        W35616  10.573  17.721  16.159 -0.0213 -0.0639 -0.3423
19808W        W35617  13.079  16.492   1.535 -0.2140 -0.2247 -0.2296
19809W        W35618  11.899   6.541   5.005 -0.1230  0.4849  0.2423
19810W        W35619   0.437  12.444   0.322  0.1256  0.1723  0.0509
19811W        W35620   2.722   5.097   2.483  0.0865 -0.0498  0.3975
19812W        W35621   9.640   0.338   5.272 -0.3207  0.0564  0.1302
19813W        W35622  16.755  12.702  15.662  0.0887 -0.2544 -0.1597
19814W        W35623  11.435  13.761  14.938  0.3094 -0.0522  0.3137
19815W        W35624   6.701   3.191   5.027  0.0371 -0.0814  0.2870
19816W        W35625   3.341   4.631  13.928 -0.3097 -0.3087  0.0369
19817W        W35626  17.913   2.079  15.583  0.1316  0.1463  0.3938
19818W        W35627   5.672   4.354  13.221  0.0100  0.0087 -0.0541
19819W        W35628   5.585  10.825   4.029 -0.2327 -0.0966  0.1677
19820W        W35629  15.900  17.722  16.017 -0.0042 -0.0419 -0.5046
19821W        W35630  17.666  13.051   1.743  0.0251 -0.1539 -0.1945
19822W        W35631  17.778  14.778  13.621 -0.0591  0.0702  0.3310
19823W        W35632   2.269   6.757   3.783  0.0217 -0.1091  0.1649
19824W        W35633   3.697  10.030   3.750  0.0773 -0.1001  0.0128
19825W        W35634   0.948   2.495   2.453 -0.0232  0.0270  0.1979
19826W        W35635  12.976   0.775  12.568  0.0709 -0.1261 -0.4283
19827W        W35636  14.849  17.895  14.944 -0.3156  0.1149 -0.0499
19828W        W35637   6.009   3.313  16.400 -0.0676  0.3065 -0.1586
19829W        W35638   2.825   1.857  16.240 -0.1427  0.1852 -0.3524
19830W        W35639   2.765   0.962  12.575 -0.0251 -0.0003 -0.1626
19831W        W35640   0.929  12.127   4.643  0.1237 -0.1190  0.2067
19832W        W35641   7.448   5.075  13.194  0.1543  0.1132  0.3255
19833W        W35642   4.790  11.849  14.145  0.0307 -0.1240 -0.0410
19834W        W35643   9.924  14.652   4.194  0.0954 -0.1208  0.1166
19835W        W35644   3.586   8.942  16.064 -0.3356 -0.1909 -0.2739
19836W        W35645  17.422   6.461  15.739  0.1328 -0.2285 -0.0801
19837W        W35646  13.734  11.908   0.063  0.2711  0.1273 -0.3520
19838W        W35647   6.834  12.979   2.777  0.1997 -0.1505  0.0488
19839W        W35648   6.622   2.345  10.616  0.0758  0.0328  0.1877
19840W        W35649   5.456   3.171   2.705 -0.0051  0.0895 -0.1084
19841W        W35650   5.464  15.607  10.650  0.2624  0.1318 -0.4136
19842W        W35651  11.658  12.657   3.482 -0.0227  0.0101 -0.1200
19843W        W35652   2.423  15.586  16.257 -0.0551  0.0284  0.3735
19844W        W35653   1.361   1.088   2.241 -0.0592  0.1541  0.0667
19845W        W35654  10.145   6.164  15.698  0.3560  0.0178 -0.0080
19846W        W35655   8.079   5.911   3.704  0.0632 -0.0384 -0.0611
19847W        W35656  11.786   4.535   4.213  0.0856  0.0947  0.2205
19848W        W35657   1.395   2.554  15.583  0.0862  0.1910 -0.0537
19849W        W35658  13.985   1.503  15.668  0.1099  0.2219 -0.0876
19850W        W35659  13.854   7.363   1.705 -0.0881 -0.0603  0.2954
19851W        W35660   2.057   4.695   4.427  0.1006 -0.1587 -0.1821
19852W        W35661   6.129   3.252  11.790  0.2827 -0.1907  0.0933
19853W        W35662  15.128  17.429  12.048  0.0469 -0.0188  0.1396
19854W        W35663   6.445   3.793   2.023 -0.1470  0.0171  0.0087
19855W        W35664  10.274   0.601  14.558  0.0704 -0.0185  0.0300
19856W        W35665   8.949   1.220  16.022  0.0565  0.2418  0.1291
19857W        W35666   5.591  13.726  14.155 -0.2284  0.0028  0.0444
19858W        W35667  15.168   0.882  15.002  0.1182 -0.1722  0.0484
19859W        W35668   9.723   9.520   2.408 -0.1193 -0.2107  0.0864
19860W        W35669   4.143   1.956   3.621  0.1265 -0.1284 -0.1606
19861W        W35670   6.229  15.530   2.359 -0.1535  0.3372 -0.2130
19862W        W35671   4.210  13.575  13.286 -0.1662  0.0549 -0.2919
19863W        W35672   0.565   1.476   3.970 -0.2226 -0.1662 -0.2507
19864W        W35673   9.510   3.974   5.295  0.0000  0.4202  0.0676
19865W        W35674  12.573   2.025  15.002 -0.0387 -0.3914 -0.1354
19866W        W35675   0.333  17.217   6.118 -0.2898  0.2827  0.0081
19867W        W35676   3.067   4.714  15.388  0.2717 -0.1112 -0.0849
19868W        W35677  13.360   3.984   3.278 -0.1168  0.1077 -0.0658
19869W        W35678  16.982  13.476  12.148  0.0462  0.0559  0.2355
19870W        W35679   1.234   9.531   4.479 -0.0222  0.6201 -0.0084
19871W        W35680   5.036  17.128  15.618  0.1207 -0.2433 -0.1054
19872W        W35681  14.514   0.505  16.079 -0.1217  0.2697 -0.0057
19873W        W35682   4.846  13.750  15.995  0.1642  0.0090 -0.1624
19874W        W35683  17.203  16.625   1.465  0.0856 -0.0874 -0.2318
19875W        W35684   6.782  14.574   1.729 -0.0181  0.2301 -0.2238
19876W        W35685  13.016   2.692  14.440  0.0680  0.1102  0.0532
19877W        W35686  11.989  15.349  11.967 -0.0392  0.3182  0.1828
19878W        W35687   2.185   8.684   4.902  0.0462  0.1112 -0.2524
19879W        W35688   7.505   7.564  12.039  0.0203  0.2912 -0.0075
19880W        W35689   8.381   4.307   0.431 -0.0548 -0.1786 -0.1636
19881W        W35690   6.783  14.317  13.682 -0.3901 -0.1959  0.0486
19882W        W35691   8.943   1.679  12.355  0.0491  0.4464 -0.0313
19883W        W35692   9.610  16.571  13.601  0.2302  0.0989  0.1868
19884W        W35693   1.999   8.779   2.239  0.2225 -0.1551  0.2393
19885W        W35694   9.811   9.393  15.060 -0.0363  0.1509  0.0903
19886W        W35695   3.932   8.194  12.416 -0.0773  0.0697 -0.0682
19887W        W35696   5.383   1.215   4.244  0.0231  0.0197 -0.0998
19888W        W35697   0.029   5.740   2.225  0.0336 -0.1864 -0.0422
19889W        W35698  15.441  17.619  15.861  0.0072  0.0927  0.0676
19890W        W35699  14.577   7.764  15.931 -0.1950  0.0618 -0.0471
19891W        W35700   5.910   6.817  14.002 -0.2524 -0.0472  0.0602
19892W        W35701  14.902  16.817  15.604 -0.0385 -0.1292  0.1070
19893W        W35702  17.951   1.111  11.645  0.1953  0.3948 -0.0575
19894W        W35703   1.608  15.629   3.291 -0.0270  0.0815 -0.0424
19895W        W35704  10.815   3.249  15.311 -0.0392 -0.2684  0.2325
19896W        W35705   9.357   2.807   0.725 -0.2498  0.0911  0.3079
19897W        W35706   2.297   7.567   1.614  0.0996 -0.2678 -0.0582
19898W        W35707   4.856  12.592  12.088  0.2037 -0.0089 -0.0886
19899W        W35708  16.200   3.624   4.607  0.2553 -0.1196  0.0439
19900W        W35709  10.360  12.916   5.682  0.0909 -0.2365  0.1159
19901W        W35710  11.461   3.820   0.631  0.2318  0.2451 -0.2590
19902W        W35711   3.311   3.334  15.981  0.1160 -0.1555 -0.1777
19903W        W35712  15.167   1.983   2.359  0.0283 -0.0021  0.0965
19904W        W35713  16.027  10.969  12.467 -0.2036 -0.1176 -0.3034
19905W        W35714  16.738  15.747   1.912 -0.0637 -0.4660 -0.0693
19906W        W35715   8.874   5.774  11.834 -0.0325  0.1760 -0.3282
19907W        W35716  15.054  11.984   0.322  0.0671 -0.0712  0.0412
19908W        W35717   3.475  15.478   0.772  0.0521 -0.0968  0.1596
19909W        W35718   6.132  11.879   2.575  0.1465  0.0061 -0.2566
19910W        W35719   6.443   7.902   4.447  0.2455  0.1311  0.0405
19911W        W35720   8.887   7.479   1.693  0.1987 -0.0931  0.0866
19912W        W35721   5.103   6.690   0.136 -0.1936  0.0554 -0.1866
19913W        W35722   4.747   8.131  12.116 -0.2089  0.3180  0.0771
19914W        W35723   2.766   7.596   0.393 -0.0202 -0.2269 -0.0832
19915W        W35724   4.350   2.960   1.382  0.1378 -0.1255 -0.0944
19916W        W35725   5.969   3.489   1.438  0.4782  0.0358  0.3760
19917W        W35726   1.261  11.209   0.597 -0.1392 -0.1534  0.1773
19918W        W35727   6.671   7.926  16.155 -0.0134 -0.1164 -0.2652
19919W        W35728   7.372   9.152  16.453  0.0569  0.0778 -0.0344
19920W        W35729  11.287  13.070   0.045 -0.0286 -0.0569 -0.2253
19921W        W35730   3.171  12.761  12.663  0.0617 -0.2208 -0.1719
19922W        W35731  17.430   3.713   4.067  0.0363  0.1472  0.3620
19923W        W35732   4.269  13.898   5.019 -0.0641  0.0572  0.3066
19924W        W35733   5.886  16.930   2.416 -0.2933 -0.0334 -0.1857
19925W        W35734  10.800  17.357   6.231  0.2024  0.0158 -0.4656
19926W        W35735   1.568  16.976  14.447  0.3047 -0.3283  0.1329
19927W        W35736   1.684  14.766   3.379  0.1182 -0.0550  0.0783
19928W        W35737  11.506   0.093   5.482 -0.0787  0.2748  0.2115
19929W        W35738  13.351  15.461  16.602 -0.0746  0.0571  0.4132
19930W        W35739   2.706   0.733   5.359 -0.2936 -0.1365 -0.0355
19931W        W35740  11.523  17.916   6.155  0.0122  0.0656  0.1149
19932W        W35741   4.322   2.351   3.103 -0.0639  0.2265  0.0361
19933W        W35742  15.533   3.691  15.021 -0.2149 -0.2214  0.3049
19934W        W35743  11.915   6.544  15.677 -0.2289  0.1002  0.0487
19935W        W35744  10.920  15.905   3.150  0.1053  0.1532 -0.2504
19936W        W35745  17.008   8.071   3.188  0.0823  0.1194  0.2854
19937W        W35746   4.056  10.683   4.716  0.0016  0.0330  0.1435
19938W        W35747  16.607   7.754  16.703  0.0367 -0.0752  0.0544
19939W        W35748  12.771   0.931   2.802  0.1960 -0.1835 -0.2857
19940W        W35749   7.203  17.239   0.467  0.3467  0.1687 -0.1382
19941W        W35750   0.953  14.449  12.546  0.2397  0.1850  0.4205
19942W        W35751   3.730   8.247  16.263  0.2076 -0.0270 -0.3136
19943W        W35752  17.126   0.702   0.936 -0.0546  0.1282 -0.0879
19944W        W35753  12.564   0.752   0.038 -0.2359  0.1681 -0.3861
19945W        W35754   3.297  13.743   3.985  0.2106 -0.0458 -0.1952
19946W        W35755   5.641   1.088  15.315 -0.1640  0.2285 -0.3122
19947W        W35756   5.275   7.054  13.171  0.1997  0.3627  0.0604
19948W        W35757  14.595   2.372   3.615 -0.0073  0.4144 -0.2704
19949W        W35758   4.701   6.875  11.373 -0.2909  0.1783 -0.0425
19950W        W35759   7.958   7.648  16.672 -0.1050  0.0083 -0.2139
19951W        W35760  14.375   2.728   4.446 -0.1640  0.1087 -0.0282
19952W        W35761   2.746  11.925  12.518 -0.2107 -0.0342  0.1456
19953W        W35762   9.070  17.484   1.242 -0.0499 -0.3877 -0.0540
19954W        W35763   8.269   2.896  14.517 -0.1799  0.1762  0.0942
19955W        W35764   7.417   0.291  16.621  0.2679  0.1410  0.1531
19956W        W35765  13.490  13.538  15.667  0.2489  0.0399 -0.1073
19957W        W35766   5.913  11.884  14.737  0.3094 -0.1789 -0.0125
19958W        W35767   9.828  13.732  16.138 -0.0420  0.2318 -0.0019
19959W        W35768  12.960  12.743   1.497 -0.2932 -0.1816 -0.1297
19960W        W35769  14.937  11.736  13.698 -0.0869  0.1819 -0.2557
19961W        W35770   2.324   4.349   2.616 -0.0613  0.0049 -0.1655
19962W        W35771   6.985  10.007  16.673 -0.0511 -0.2226 -0.0949
19963W        W35772   7.913   6.913   4.919  0.0440 -0.0613 -0.1324
19964W        W35773   6.464  17.633  16.093 -0.0450  0.1767  0.1136
19965W        W35774  14.283  15.154  16.501 -0.0739 -0.0651  0.0640
19966W        W35775  16.485   3.774  16.285 -0.2917 -0.0543 -0.4049
19967W        W35776   0.872   9.051   1.517  0.0759 -0.0070 -0.0401
19968W        W35777   2.176  11.944   2.054 -0.2107  0.2012 -0.1840
19969W        W35778   3.074  15.708  10.737 -0.1984  0.1187 -0.0449
19970W        W35779  15.546   7.665  14.439 -0.0930  0.0621 -0.1275
19971W        W35780   5.554   7.772  11.712 -0.0152  0.0443 -0.2478
19972W        W35781   3.229   2.594   2.145 -0.0581 -0.0710 -0.3490
19973W        W35782   6.064   4.747  13.208  0.2412  0.0683 -0.0244
19974W        W35783  17.677  16.341  16.071  0.0347  0.0092  0.1045
19975W        W35784  16.772   5.286   4.727 -0.1536  0.0539  0.1550
19976W        W35785   6.228   5.704   5.980 -0.1536  0.1775 -0.1853
19977W        W35786  16.581   2.557   6.105 -0.0999 -0.1853 -0.0952
19978W        W35787   2.312   7.048  14.298 -0.1944 -0.0100 -0.0230
19979W        W35788  16.853   5.232  12.826 -0.0298 -0.0873  0.1260
19980W        W35789  17.200  16.660  14.054 -0.0977  0.0632  0.0873
19981W        W35790  10.889  12.929   3.179 -0.3689 -0.0656  0.2262
19982W        W35791  17.412   8.369   3.008 -0.2160  0.1947 -0.1333
19983W        W35792   2.997   0.501   3.253  0.0770  0.1334 -0.0276
19984W        W35793  15.388   7.305  12.353 -0.2745  0.1778 -0.2056
19985W        W35794   7.269  10.364   3.687 -0.2100 -0.3806 -0.1321
19986W        W35795   2.577  10.249   5.204 -0.5941  0.0798  0.0467
19987W        W35796  11.827   5.016  15.707  0.3827  0.0528 -0.0497
19988W        W35797  11.019  16.657  14.818 -0.0893  0.1007  0.3445
19989W        W35798   3.259   0.236  14.575  0.1893 -0.1791  0.1212
19990W        W35799   3.261   8.515  12.529 -0.1372 -0.2759  0.2901
19991W        W35800  14.362   7.857   5.364  0.3442  0.2193 -0.0109
19992W        W35801   2.641  12.467   3.660  0.0849 -0.2639 -0.0525
19993W        W35802  13.640  12.397   3.749  0.3631  0.2256  0.0499
19994W        W35803  12.831   1.674   5.449 -0.0781 -0.0681  0.0554
19995W        W35804   2.443   5.885  10.560 -0.3667 -0.0214  0.4009
19996W        W35805  13.182   3.436   2.591 -0.2630 -0.0571  0.0587
19997W        W35806   2.487   8.869  15.802 -0.1030 -0.0447  0.1215
19998W        W35807  12.844  15.501  12.352 -0.0134 -0.0094  0.0240
19999W        W35808   3.844   1.918  12.500 -0.2315 -0.1180 -0.5689
20000W        W35809  13.429   5.274   0.372  0.2298  0.1050  0.0927
20001W        W35810   4.380  13.875  16.137 -0.1476 -0.0586 -0.1930
20002W        W35811  11.081  13.134  16.080 -0.0384  0.2499 -0.0364
20003W        W35812   3.174   1.532   4.482 -0.0494  0.1043 -0.0855
20004W        W35813   1.678  16.597   2.582  0.0741  0.1275  0.0281
20005W        W35814  14.887   6.177  13.595  0.0231  0.0330  0.1299
20006W        W35815   6.534   0.911  13.789 -0.0277  0.2594 -0.0320
20007W        W35816  11.627   2.121   1.330  0.2817 -0.0180  0.0808
20008W        W35817   5.160   1.641   1.426 -0.2524  0.2999 -0.0504
20009W        W35818   4.868   1.350  15.981  0.1721  0.3293 -0.2911
20010W        W35819  13.277  12.176   4.130 -0.1103 -0.1538  0.2148
20011W        W35820  13.455   0.719   1.686  0.1003  0.0621 -0.1590
20012W        W35821   6.985  16.008  16.100  0.0213  0.2418  0.2450
20013W        W35822   6.306   6.130   4.119  0.2571 -0.2263  0.1782
20014W        W35823   7.306   8.486  11.770  0.1835  0.1151  0.2277
20015W        W35824   3.379   7.418   1.215  0.0514 -0.1250 -0.1318
20016W        W35825   1.260   1.865  13.461 -0.0687 -0.0754 -0.2100
20017W        W35826   6.129  17.167  14.873  0.1828 -0.0272  0.1151
20018W        W35827  10.473   2.849   5.739 -0.1382  0.2670 -0.0901
20019W        W35828  14.845   0.784  12.921  0.0891 -0.1824 -0.1109
20020W        W35829   5.583   3.185   5.664  0.1188  0.1368 -0.0358
20021W        W35830   9.458  10.839   3.071  0.0493  0.1457 -0.3602
20022W        W35831  16.409  10.434  13.427 -0.1357  0.1889 -0.0875
20023W        W35832   4.870  10.609   1.103  0.1403  0.1811 -0.0998
20024W        W35833  12.557  11.219   2.907 -0.0035 -0.3001  0.0257
20025W        W35834   3.312  11.711  14.965 -0.0925 -0.0512  0.1780
20026W        W35835   9.121   5.549   1.974  0.0182  0.2423 -0.3422
20027W        W35836   4.468   7.630  14.527  0.0213  0.0254 -0.2460
20028W        W35837  15.616  11.891   2.528  0.0797  0.0919 -0.1594
20029W        W35838  17.369  13.368   5.966 -0.0829  0.1333  0.0411
20030W        W35839   3.607  11.857   0.449 -0.0684 -0.1529  0.0841
20031W        W35840   6.160  13.677  13.250  0.0785 -0.0103 -0.0208
20032W        W35841   0.160  14.099  15.012 -0.1010 -0.1799 -0.1100
20033W        W35842   1.168   2.294   3.379  0.2503  0.3357  0.1802
20034W        W35843   8.169   6.757  14.171 -0.0311  0.1973 -0.0968
20035W        W35844   8.696  15.097   2.454 -0.0875 -0.4130 -0.1515
20036W        W35845  13.574  10.026  12.245  0.1419 -0.0810 -0.3395
20037W        W35846   2.896   9.801  16.673  0.1731 -0.1269 -0.0947
20038W        W35847   2.076   0.903  14.204  0.0550 -0.0803  0.0693
20039W        W35848   0.392  12.385  16.537  0.5273  0.1405 -0.0662
20040W        W35849  13.917  12.638   3.340 -0.3222  0.1440 -0.2412
20041W        W35850  14.607  12.152   2.123 -0.2719 -0.1347  0.1034
20042W        W35851  10.661  14.155   0.707  0.0562  0.0094 -0.0169
20043W        W35852  14.179  10.640  10.539  0.2267  0.1332  0.1256
20044W        W35853   5.300  10.300  16.518 -0.0406 -0.0495  0.1680
20045W        W35854  12.898   4.117   4.951 -0.1742 -0.0366  0.2749
20046W        W35855   7.210   4.980  11.800 -0.0658 -0.0771 -0.2235
20047W        W35856   1.831   5.101  12.450 -0.2006  0.1500  0.0538
20048W        W35857   6.974  14.693   0.997 -0.3557  0.3850  0.2213
20049W        W35858   4.997  16.826   5.637  0.2463  0.0042 -0.2376
20050W        W35859   1.428  12.704   4.794  0.1867 -0.0238 -0.0920
20051W        W35860   1.290  16.331  13.683 -0.0797  0.0072 -0.0442
20052W        W35861   9.036  13.814   2.674  0.0773 -0.2115 -0.0075
20053W        W35862  11.622  11.153   6.245  0.1885  0.1413  0.0129
20054W        W35863   0.637  13.703  13.610  0.0485  0.0976 -0.0067
20055W        W35864   5.952  13.510  11.488  0.0326  0.0164  0.2958
20056W        W35865   0.253  16.672  11.713  0.0579  0.2046  0.0120
20057W        W35866  14.865   1.296  15.976  0.1714 -0.0210 -0.0255
20058W        W35867   6.666   8.078  11.170  0.0346  0.2615  0.2446
20059W        W35868   2.179  12.920  11.658 -0.1101 -0.1559 -0.3660
20060W        W35869   1.790   0.180  14.795  0.1958  0.0215  0.1085
20061W        W35870   0.098   8.744   5.237  0.1145  0.0173 -0.1418
20062W        W35871  14.627   5.474  12.110 -0.2644 -0.4948  0.0772
20063W        W35872   1.038  12.515  15.987  0.0928  0.1832 -0.1795
20064W        W35873  10.326   1.708  12.875  0.0542 -0.1485  0.1220
20065W        W35874   8.866  13.007   5.782 -0.3083  0.0419 -0.0278
20066W        W35875   2.172  13.792   5.901  0.1080  0.0302  0.0908
20067W        W35876   8.346  17.850  15.764  0.0202 -0.0480 -0.2436
20068W        W35877  10.561  16.992  13.838  0.2382 -0.1278 -0.1927
20069W        W35878  15.096  13.632   3.923 -0.0761  0.1272  0.2182
20070W        W35879  15.956   6.511   3.215  0.1653 -0.0441  0.1041
20071W        W35880   5.547   3.350   1.805 -0.0039  0.0340  0.3670
20072W        W35881   1.661   6.389   2.088  0.1737  0.0277 -0.0988
20073W        W35882  15.500  14.874   0.712  0.0414  0.0592 -0.0781
20074W        W35883   5.933  11.504   0.264 -0.0685  0.0813 -0.1599
20075W        W35884  16.528   9.714  15.460  0.2586 -0.1456  0.1964
20076W        W35885  13.221  17.395   1.270 -0.0986 -0.2259  0.0182
20077W        W35886  15.482  13.374  16.065 -0.4018 -0.1421  0.2068
20078W        W35887   3.352   4.003  13.948  0.1756 -0.2383 -0.2013
20079W        W35888   2.298   2.332   1.824  0.3162 -0.0859  0.0260
20080W        W35889   8.109  15.308   0.589  0.0869  0.0514  0.1392
20081W        W35890  17.644   9.050  14.843 -0.3991 -0.0026  0.0616
20082W        W35891  11.398   9.906  12.651 -0.1494 -0.1117  0.2010
20083W        W35892   6.532   2.426   4.405 -0.2373  0.0346  0.0574
20084W        W35893  10.726   9.138   5.461 -0.1262 -0.3847  0.0686
20085W        W35894   9.809   7.012  13.447  0.0685  0.0454  0.0018
20086W        W35895  16.469   4.429   4.656 -0.0034 -0.0633  0.2717
20087W        W35896   1.488   3.358   4.348 -0.1470  0.1865 -0.3490
20088W        W35897   8.299   5.471  12.575 -0.1051  0.0402  0.2054
20089W        W35898  12.976   9.336   2.031 -0.0039  0.2897  0.2396
20090W        W35899   3.536   5.275   1.914 -0.1343  0.1883  0.1012
20091W        W35900   7.652   1.266   5.472 -0.1407  0.1371  0.1020
20092W        W35901   2.186  13.108   4.658 -0.2090 -0.1096  0.4837
20093W        W35902  11.481   1.666   4.446 -0.0497  0.4472  0.2106
20094W        W35903   1.658   5.699  13.398  0.1132 -0.1068  0.1023
20095W        W35904  12.892   8.895  13.846  0.0439  0.0458  0.1245
20096W        W35905   5.854   2.938  15.835 -0.0861 -0.5022  0.0810
20097W        W35906   8.891  17.050   1.753  0.0231  0.1155 -0.0141
20098W        W35907  15.129  15.961  16.534 -0.1033 -0.0150 -0.0753
20099W        W35908   0.177  17.395  14.465 -0.2666 -0.2086  0.1229
20100W        W35909   7.274   7.131  16.100  0.2908 -0.0639  0.0033
20101W        W35910  14.256   7.535   0.616 -0.0040 -0.2378 -0.0621
20102W        W35911   6.003  10.828   5.213  0.1722  0.3475  0.0559
20103W        W35912   0.145  15.391  12.107 -0.1872  0.3048 -0.1166
20104W        W35913  15.892   0.108  12.797 -0.0218  0.2008 -0.0226
20105W        W35914  16.350   5.984   3.147 -0.0838 -0.2310  0.0204
20106W        W35915   8.696  17.712   3.118  0.0307 -0.0705 -0.0619
20107W        W35916  11.373  15.216  16.102 -0.2494  0.3000  0.0614
20108W        W35917  14.181   3.653  12.767  0.1359  0.2405 -0.1344
20109W        W35918  16.345  17.232  15.088 -0.3949  0.1259 -0.0903
20110W        W35919  11.331  17.604   1.342 -0.2038 -0.0707 -0.1228
20111W        W35920   5.680   9.737  14.974 -0.1467 -0.1573  0.3122
20112W        W35921   2.963   3.273  14.889 -0.2053 -0.4151  0.0173
20113W        W35922   7.459   1.592   5.806  0.1998 -0.0008 -0.1105
20114W        W35923   3.270  17.904   3.692  0.1716 -0.1309 -0.0583
20115W        W35924   1.164   3.296  10.774 -0.0160  0.1435  0.1992
20116W        W35925   8.952   6.202  11.388  0.1016  0.1952 -0.0053
20117W        W35926   7.366  14.057  13.275  0.2297  0.0001 -0.0336
20118W        W35927   0.124  15.339   5.778  0.1515 -0.2670 -0.0962
20119W        W35928   1.440  10.713   0.341 -0.0079 -0.1859 -0.2114
20120W        W35929   6.524   9.648  15.278  0.0434  0.2127  0.0989
20121W        W35930  15.573   8.210   3.444  0.1533 -0.2021  0.2791
20122W        W35931  17.051   6.311  11.969  0.0671  0.1377 -0.0695
20123W        W35932   7.848   3.611  16.256 -0.2164 -0.0964  0.2175
20124W        W35933  15.346  17.941  15.523  0.0532 -0.0713 -0.0693
20125W        W35934  10.136   4.476  13.235 -0.2022  0.0526  0.0162
20126W        W35935  14.866  12.173   1.024  0.1622  0.0437 -0.1295
20127W        W35936   6.798   3.452  14.402 -0.1488 -0.0554  0.1833
20128W        W35937  17.836  16.332   4.669  0.1769  0.3106 -0.1665
20129W        W35938   1.110  11.675  14.683 -0.0461  0.0664  0.0859
20130W        W35939  12.093   6.606   1.512  0.0525  0.2269  0.0409
20131W        W35940   0.071   5.940  11.674  0.1622  0.1334  0.1033
20132W        W35941  10.330   2.345   4.636  0.5240 -0.1203 -0.0704
20133W        W35942  10.754   0.176  15.412  0.2344  0.1203 -0.1435
20134W        W35943  17.046  14.277  12.337 -0.1935 -0.0145 -0.0900
20135W        W35944  10.756  17.835  16.654  0.0195 -0.2898  0.2221
20136W        W35945  16.594  17.632  13.501 -0.1100  0.0457  0.1547
20137W        W35946  10.521   7.069   4.515 -0.0534 -0.2796 -0.2336
20138W        W35947   2.979   8.959   2.190 -0.1800 -0.0851  0.5498
20139W        W35948   2.842   2.180   2.721 -0.2431  0.2095  0.1465
20140W        W35949  11.845  12.308   5.777 -0.1348  0.3012  0.1263
20141W        W35950   2.763   9.893  10.472  0.2382  0.0494  0.0470
20142W        W35951   9.892  13.844   0.402  0.1315  0.0392  0.0414
20143W        W35952   4.697   0.218  13.963  0.1116  0.0865 -0.1159
20144W        W35953  13.973   5.092   1.227  0.1917  0.1657 -0.2457
20145W        W35954  10.704  15.486   5.573  0.2897 -0.0127 -0.1130
20146W        W35955  14.559   9.850  13.944 -0.2668  0.1660 -0.1511
20147W        W35956   1.388   7.528  15.374  0.0714 -0.1493 -0.0278
20148W        W35957  12.236  16.386  12.531  0.2008  0.1411  0.1065
20149W        W35958   4.623  13.486  14.105  0.1895  0.0405 -0.2065
20150W        W35959   9.847  15.996   5.514 -0.0843 -0.1236  0.1517
20151W        W35960   9.764   2.341   4.241  0.1653 -0.0304 -0.4868
20152W        W35961   9.960   2.684  14.414  0.1277 -0.3208  0.1521
20153W        W35962   2.186   1.258  16.449 -0.2725  0.2984 -0.2389
20154W        W35963   6.780   8.316  14.195 -0.2084 -0.1832  0.0983
20155W        W35964  10.234   9.423  14.739  0.1725  0.3358 -0.1025
20156W        W35965   1.143  13.836  13.141 -0.0718 -0.0885  0.0043
20157W        W35966  15.315  13.789  14.277  0.4207 -0.1237 -0.0326
20158W        W35967   3.792   0.727  11.945 -0.0702 -0.2602 -0.2939
20159W        W35968   9.074  16.831  14.337 -0.1522 -0.1151  0.0957
20160W        W35969  13.222  10.108   0.927  0.1527 -0.0141 -0.1609
20161W        W35970  11.739  17.523  12.531 -0.0904 -0.1867  0.1797
20162W        W35971   4.932   5.971  11.464 -0.2922 -0.0088 -0.3049
20163W        W35972   7.518   9.095  13.030 -0.2830 -0.0318  0.4504
20164W        W35973   5.487  16.394  16.100  0.0161 -0.2976  0.0835
20165W        W35974  11.965   9.042   2.112  0.1852 -0.0332  0.1298
20166W        W35975  17.639   5.718  13.502 -0.0005 -0.0263 -0.1399
20167W        W35976  17.226  14.428  15.201 -0.2160  0.1755 -0.1459
20168W        W35977  17.748  14.565   0.578  0.0104  0.0503 -0.1204
20169W        W35978   7.093  14.469   2.139 -0.2856  0.1619  0.4872
20170W        W35979   1.186  12.201  15.484 -0.1805  0.1186  0.1153
20171W        W35980  10.216  12.997  11.506 -0.0485 -0.1600  0.2444
20172W        W35981  10.379   1.329   3.823  0.1384  0.1691  0.0547
20173W        W35982   9.353  14.656  12.881  0.2946 -0.1687  0.0909
20174W        W35983  17.330  11.485  12.253  0.1644 -0.0730  0.2791
20175W        W35984  12.397  13.956   2.461  0.2795  0.2142  0.1148
20176W        W35985   7.370   5.216   1.023 -0.0167 -0.1693 -0.0695
20177W        W35986   5.474   3.404  14.154  0.0594 -0.2042  0.1308
20178W        W35987   6.887  14.779  12.154  0.0600 -0.2636  0.1970
20179W        W35988  14.197  16.955  13.425 -0.4207 -0.2779  0.0008
20180W        W35989   5.271  12.970  12.412  0.0867 -0.0767  0.0568
20181W        W35990   3.724   5.011   3.722  0.1436  0.4542 -0.2991
20182W        W35991   3.229   5.626   4.483 -0.1135  0.1591  0.2559
20183W        W35992   3.467   6.694  14.557  0.1597 -0.0662 -0.0528
20184W        W35993  11.893  10.057  12.545  0.2795 -0.0287 -0.0250
20185W        W35994   5.792  11.610   1.679 -0.1507 -0.0886 -0.1469
20186W        W35995   0.782   5.443   3.907  0.1864  0.2619  0.4120
20187W        W35996  14.050   4.200   3.500  0.3738  0.0016 -0.3108
20188W        W35997   4.195   3.905   2.333 -0.2003 -0.1671  0.2299
20189W        W35998   7.495  12.105  15.606 -0.0701  0.5156  0.2533
20190W        W35999   1.428   6.096  15.028  0.0089 -0.1452 -0.3225
20191W        W36000  10.293   8.111  12.489  0.1079 -0.1945 -0.1817
20192W        W36001   0.745   1.870   5.757  0.3402  0.1603 -0.0718
20193W        W36002   2.854   4.486  10.564  0.0392  0.1474  0.2467
20194W        W36003  16.909   1.634   2.912 -0.2505 -0.0407 -0.1847
20195W        W36004   3.669  10.218   2.806  0.2428  0.2556  0.2254
20196W        W36005  12.864   5.582   3.166 -0.2544 -0.4452  0.0417
20197W        W36006  13.994  15.333   3.921 -0.0468 -0.1411 -0.0453
20198W        W36007  12.684  10.485   3.204  0.1198 -0.3588 -0.1871
20199W        W36008   3.281   3.928   4.335 -0.1735  0.3057  0.1145
20200W        W36009  13.041  10.724  15.706 -0.1698 -0.2596  0.3782
20201W        W36010  16.398   4.984   1.707 -0.1401 -0.0201  0.4336
20202W        W36011   3.857   1.857  16.164 -0.2471 -0.1555  0.1635
20203W        W36012  17.222   3.499  12.076 -0.0043  0.0655 -0.0172
20204W        W36013  12.560  17.604   4.759 -0.0402 -0.2389 -0.0335
20205W        W36014  10.079  16.105   4.550  0.1842  0.1984 -0.0152
20206W        W36015   8.829   6.111   3.254 -0.1648  0.2577  0.1689
20207W        W36016   1.936   1.769   2.893  0.0187 -0.2691 -0.0436
20208W        W36017  12.444   1.150  15.602  0.3734  0.0925  0.0835
20209W        W36018  16.534   3.541   1.275 -0.3700  0.1748 -0.1513
20210W        W36019   8.012   6.233  15.879  0.0210 -0.0394  0.0770
20211W        W36020   0.746   4.298   2.926 -0.3523  0.0555 -0.1020
20212W        W36021  10.183   0.502  13.933  0.0520  0.1242  0.0006
20213W        W36022  16.461   9.786   0.973 -0.0680 -0.0874  0.0162
20214W        W36023   3.078   9.769   0.457  0.2246  0.0850 -0.0078
20215W        W36024  17.171  13.044   2.670  0.3446  0.2057 -0.1273
20216W        W36025  15.032   5.837  15.986 -0.0187  0.1351 -0.1393
20217W        W36026  13.003   0.601  14.117  0.2266  0.0870  0.1987
20218W        W36027   7.553  17.650   0.539 -0.0728 -0.2322 -0.0059
20219W        W36028   1.796  12.421   4.029  0.0089 -0.3956 -0.2641
20220W        W36029   9.796  11.831  13.058 -0.4073 -0.1261 -0.1942
20221W        W36030  13.479   9.468  15.667 -0.0928  0.1700  0.0281
20222W        W36031  13.586   6.279   3.533  0.1126 -0.1509  0.0239
20223W        W36032  11.607   1.668  15.631  0.0784  0.0727  0.2407
20224W        W36033  13.344  16.830   4.113  0.0531  0.1068  0.1305
20225W        W36034  13.901   1.920  13.695  0.0019  0.2641 -0.3202
20226W        W36035  15.819   0.020   4.265 -0.1835 -0.1523 -0.3723
20227W        W36036   6.044   2.759   4.451  0.0082 -0.3934 -0.1621
20228W        W36037  14.923  16.262   0.166  0.2910 -0.0332 -0.0595
20229W        W36038   9.184  14.812   4.050 -0.1998  0.0499 -0.2049
20230W        W36039   6.128   9.581  10.755  0.1053 -0.1094  0.0932
20231W        W36040   9.625   8.303  13.184  0.3128  0.2915  0.1747
20232W        W36041   4.524  16.903   4.833  0.0126 -0.5070  0.0849
20233W        W36042   3.884  14.638   0.546 -0.0498  0.0106 -0.1886
20234W        W36043  14.337   5.585  14.146  0.0262  0.0239 -0.0439
20235W        W36044   4.656   1.008  14.824  0.1483 -0.1865  0.1297
20236W        W36045   0.287  11.275  15.724 -0.1467 -0.0395 -0.0768
20237W        W36046   9.257  14.904   3.538  0.1086  0.0919 -0.2527
20238W        W36047   4.416   9.580   0.654  0.2014  0.0614  0.1216
20239W        W36048  12.551   5.397   1.842  0.1772 -0.2840 -0.2314
20240W        W36049   3.738  15.410  16.126 -0.1309 -0.2130  0.1227
20241W        W36050  17.203  11.010  16.052 -0.0433  0.2180  0.5044
20242W        W36051  13.323   4.245  15.058  0.2172 -0.1406  0.2623
20243W        W36052  14.844  16.275   3.002 -0.0157  0.0053  0.3451
20244W        W36053   3.815   3.568   3.499 -0.1606 -0.2631 -0.3380
20245W        W36054   6.192  13.109   4.059  0.1699 -0.0803  0.2195
20246W        W36055   1.385  13.491   4.713  0.0327  0.0773  0.0474
20247W        W36056  13.199  16.816   0.632  0.0140  0.0293 -0.0266
20248W        W36057   5.137  11.209   0.045  0.0341 -0.1714  0.2224
20249W        W36058   6.232  11.371   2.594 -0.2241 -0.0638 -0.0559
20250W        W36059  10.514   1.789  14.374  0.0782  0.1277 -0.0690
20251W        W36060  10.572   7.338  13.550  0.2459 -0.2682 -0.1796
20252W        W36061   4.594  10.989  16.106  0.3641 -0.1433 -0.0852
20253W        W36062  12.292  11.895  13.609  0.1790  0.0036  0.1692
20254W        W36063   4.252   8.188  11.591 -0.1184 -0.1183  0.0333
20255W        W36064  10.137   0.857   2.182 -0.0480  0.0156  0.1016
20256W        W36065  11.043   7.243   1.085  0.2848 -0.1802 -0.0784
20257W        W36066   0.729  17.620   4.512  0.0747  0.2729  0.1980
20258W        W36067   0.358   4.554   3.064  0.0129  0.2339  0.2260
20259W        W36068  12.073   8.380  14.019 -0.0240  0.2736 -0.2592
20260W        W36069   0.401   0.308   5.234  0.2210 -0.0414  0.1241
20261W        W36070   9.254   1.052   1.936  0.0464  0.0603 -0.0965
20262W        W36071  17.917   0.659   4.958  0.2826  0.2462 -0.0632
20263W        W36072  11.135  17.446  14.289 -0.1227 -0.0071 -0.0057
20264W        W36073   9.131  10.687  13.879  0.2432 -0.1295 -0.5218
20265W        W36074   1.055   5.025  10.078 -0.3702 -0.0570 -0.1066
20266W        W36075  17.165  15.531  15.289  0.1072  0.4545  0.0375
20267W        W36076   4.179   4.088   1.463  0.0649  0.3724  0.1072
20268W        W36077   6.062  16.059  12.443  0.0439 -0.1075  0.2557
20269W        W36078   5.813  10.377   0.096 -0.0809 -0.1646 -0.0186
20270W        W36079   0.481   3.094  14.215  0.1693 -0.0402 -0.0017
20271W        W36080   0.516   9.318  15.260  0.2234 -0.4133  0.0584
20272W        W36081   1.808   7.166   3.214  0.0037  0.0276  0.3292
20273W        W36082   0.789   8.088  16.084 -0.0522  0.0916  0.3313
20274W        W36083  17.642   4.640  11.733  0.3378 -0.0052 -0.3861
20275W        W36084   0.656   7.286   1.158 -0.1196 -0.0360 -0.0615
20276W        W36085  15.898   2.130   6.259 -0.3553  0.0384 -0.0622
20277W        W36086   8.273  11.150  12.776 -0.3237  0.1178  0.0636
20278W        W36087  12.094  17.928   3.385  0.0986  0.3550 -0.0142
20279W        W36088   6.488   0.390  13.718  0.1976  0.0785 -0.0106
20280W        W36089   9.816  16.721   3.692  0.1032 -0.1131 -0.0871
20281W        W36090   9.593   7.508  12.378  0.2417  0.0426  0.1409
20282W        W36091  10.638  12.830   5.262  0.1775  0.0574 -0.0993
20283W        W36092   3.598  13.354  16.246 -0.1506  0.1282  0.2401
20284W        W36093  15.402  13.669  12.615 -0.1144  0.1552 -0.0691
20285W        W36094  16.318  13.318   0.683  0.2753 -0.4683  0.2422
20286W        W36095  15.572   3.222  12.921  0.1885 -0.2395 -0.0865
20287W        W36096  12.365  16.552  16.370  0.0592  0.0942 -0.2824
20288W        W36097  13.703   2.464   5.243  0.4230  0.2125 -0.0158
20289W        W36098  16.329  17.211  13.801  0.1173  0.0640  0.2370
20290W        W36099  16.050   2.587   3.024 -0.1119  0.0059  0.0705
20291W        W36100   8.906  14.613  12.232 -0.1400 -0.0237 -0.0130
20292W        W36101  16.348   4.064  14.155 -0.0043 -0.1591  0.2092
20293W        W36102   7.601   9.473  16.099  0.0481  0.0449  0.1232
20294W        W36103   6.504  10.759   3.118 -0.2553 -0.0385  0.2627
20295W        W36104  13.751  17.692   4.721 -0.1124 -0.1078 -0.1500
20296W        W36105  10.817  13.856  16.653 -0.2824  0.2671 -0.4299
20297W        W36106  11.610   1.518  13.110 -0.0934  0.0491  0.0204
20298W        W36107  13.391  14.218   3.717 -0.1354  0.0218 -0.0766
20299W        W36108  12.033   4.486   5.583 -0.2305 -0.0275 -0.4177
20300W        W36109  10.914   1.421  15.211  0.0966  0.3843  0.0071
20301W        W36110   3.740   7.449   3.160 -0.0755 -0.2474  0.0309
20302W        W36111  13.945   3.180   0.182  0.3491 -0.1498 -0.1983
20303W        W36112   6.692   7.863   3.529  0.0152 -0.0448 -0.1616
20304W        W36113   1.530  14.466   0.292  0.0680  0.0124  0.0364
20305W        W36114  14.894  17.052  12.923  0.1283 -0.1518  0.1278
20306W        W36115   8.535   1.579   3.434  0.0067 -0.1703 -0.0136
20307W        W36116   9.032   2.655  12.044  0.0266  0.3401  0.2274
20308W        W36117  14.834   7.180  15.451  0.2246 -0.1643 -0.0010
20309W        W36118   1.692  10.290   1.906  0.1695 -0.0635  0.1042
20310W        W36119   2.470   0.260   1.191 -0.1157 -0.1639  0.1842
20311W        W36120   8.440   3.791   3.482  0.0738 -0.0143  0.0124
20312W        W36121  10.290   8.604   0.115 -0.2031  0.3371  0.3403
20313W        W36122   9.693  16.026  11.345  0.4599  0.3118 -0.1936
20314W        W36123   0.646   4.167  15.787 -0.0172  0.0218 -0.0339
20315W        W36124  17.806   6.065   0.439  0.0559 -0.1720 -0.1670
20316W        W36125   4.450   2.933   0.863  0.3807 -0.0645 -0.0880
20317W        W36126   9.859  13.357   0.512 -0.0727  0.3172 -0.1804
20318W        W36127  15.849   0.975  10.995 -0.1945 -0.1849 -0.1081
20319W        W36128  13.492  14.206  11.415 -0.0611 -0.2503 -0.1332
20320W        W36129  13.565   9.536  11.961 -0.0594 -0.0712  0.0863
20321W        W36130  10.633  11.614   2.397 -0.1252 -0.0739 -0.0279
20322W        W36131  10.683  11.093   2.219 -0.2250  0.2157  0.0150
20323W        W36132  12.229   0.858  13.644 -0.1655  0.2365 -0.2397
20324W        W36133  17.422   6.284   1.498 -0.0196 -0.0775 -0.0509
20325W        W36134   5.501  11.649  16.113  0.0220  0.0679  0.1016
20326W        W36135   4.591   0.279  12.770 -0.2710  0.0587 -0.0871
20327W        W36136  10.857  17.701   1.579 -0.2300 -0.1615  0.0847
20328W        W36137   3.821  16.950   1.548  0.0320 -0.3355 -0.1733
20329W        W36138  17.157  12.264  15.825 -0.1566 -0.0523  0.0507
20330W        W36139  15.576  16.406  14.656 -0.1519 -0.0377  0.1207
20331W        W36140   0.637   7.324   2.785 -0.1455  0.1461  0.2038
20332W        W36141   0.045  16.000  15.538 -0.0547  0.0206  0.0944
20333W        W36142   0.104   3.829   2.446 -0.1091 -0.1640  0.0040
20334W        W36143  17.375  17.631   1.836  0.0786  0.0973 -0.1241
20335W        W36144   3.023  14.762   0.711 -0.2059  0.2784  0.0055
20336W        W36145   2.944  17.258   4.122  0.2009 -0.0730 -0.2624
20337W        W36146   1.231  14.585   2.644  0.1610  0.1078 -0.0560
20338W        W36147   7.206  17.359   5.165 -0.2928 -0.0802 -0.0275
20339W        W36148   7.963  14.505   2.119  0.1426 -0.0512  0.0534
20340W        W36149  17.079   7.135   2.831 -0.0310 -0.0299 -0.2243
20341W        W36150   2.476  15.712  13.186  0.0011 -0.0991 -0.1988
20342W        W36151  15.133   9.529   3.487  0.0289  0.1319 -0.1994
20343W        W36152   1.879  17.383  16.709  0.2957 -0.2286 -0.1293
20344W        W36153  13.850  14.798   6.317 -0.0982  0.1090 -0.3259
20345W        W36154   4.350   5.104   0.702 -0.3544 -0.0284 -0.0982
20346W        W36155   2.538  10.460   0.175  0.2338 -0.0530  0.4105
20347W        W36156   9.411  13.743  16.522 -0.1539 -0.1342 -0.3865
20348W        W36157   5.710   7.737   1.398  0.0220  0.2537  0.1327
20349W        W36158   0.219  14.019  13.091  0.0264 -0.2178  0.2201
20350W        W36159   9.474  10.336   2.982  0.2635  0.0520  0.1568
20351W        W36160   4.390  14.043  13.443 -0.2137  0.4285 -0.3012
20352W        W36161   2.591  16.459  15.326  0.1487  0.1501 -0.0565
20353W        W36162   8.051  10.976   3.775  0.2187 -0.0850 -0.0701
20354W        W36163  16.797   9.145   2.455 -0.1562 -0.2720 -0.2474
20355W        W36164   1.237  11.423  10.964  0.3288  0.0258  0.0435
20356W        W36165   1.120   3.370   4.909  0.0373  0.2219  0.2940
20357W        W36166  16.764   3.183  14.318  0.1660  0.1009  0.0769
20358W        W36167  10.960  17.389  12.717  0.2204 -0.2243  0.1907
20359W        W36168  10.289   8.744  12.566  0.0608 -0.0198  0.1908
20360W        W36169   8.153   7.644  13.311  0.2677  0.0077 -0.0708
20361W        W36170   0.546   3.457   5.543  0.0430 -0.2558  0.0092
20362W        W36171   7.208  10.834   1.975  0.0905 -0.0504  0.4899
20363W        W36172  10.597  13.142   6.085 -0.5115 -0.0318 -0.2672
20364W        W36173   0.486   9.434   0.737  0.0372  0.0731 -0.1451
20365W        W36174  17.190  11.539  12.949 -0.2529  0.0548 -0.2982
20366W        W36175  14.606  14.865  11.960  0.0975 -0.2532  0.0791
20367W        W36176  11.192   3.457  15.695  0.0327 -0.0719  0.0608
20368W        W36177   2.281   4.613   0.753 -0.0292  0.2032 -0.0495
20369W        W36178  17.188  11.238   4.658 -0.1552 -0.0375 -0.1379
20370W        W36179  17.761   4.613   4.237 -0.2561 -0.0908  0.2472
20371W        W36180   5.773  16.710  12.402 -0.0778 -0.3657  0.1781
20372W        W36181  13.006  11.866  14.463  0.0324  0.1318 -0.0537
20373W        W36182  12.041   9.014   4.359 -0.1960  0.1019  0.4370
20374W        W36183   7.546   9.674   2.761 -0.0996  0.2085 -0.2954
20375W        W36184   4.185  11.132  12.072 -0.2024  0.1365  0.1307
20376W        W36185  10.803  12.671   4.651 -0.0069  0.0639 -0.1270
20377W        W36186   2.465  12.584  11.869  0.0802 -0.0808 -0.3582
20378W        W36187  17.464   4.182  15.115 -0.2566 -0.4076  0.2371
20379W        W36188  17.309   2.855  15.597  0.0382  0.0028 -0.5139
20380W        W36189   6.306   8.469   3.060  0.1002  0.0962 -0.1165
20381W        W36190   7.617   2.185  14.107 -0.1117 -0.1651  0.2126
20382W        W36191   9.306   0.231   5.578 -0.0412  0.1937 -0.0231
20383W        W36192  10.973  17.381  16.363 -0.0622  0.2234 -0.1567
20384W        W36193  14.203   2.746   0.320 -0.0467  0.1719 -0.1674
20385W        W36194  14.744   6.938  13.832  0.2255 -0.0541 -0.0235
20386W        W36195   4.543   4.306   1.223  0.1428  0.2088  0.2523
20387W        W36196   6.808   9.521   4.835 -0.2780 -0.0469  0.0151
20388W        W36197  10.033  16.984  16.584  0.3781  0.1804  0.0694
20389W        W36198   9.494   3.091  15.471  0.0721 -0.0075 -0.0739
20390W        W36199  14.875  12.613  12.455 -0.1084  0.0369  0.1870
20391W        W36200   6.641   8.755   4.826  0.3341 -0.0684  0.0744
20392W        W36201  15.051   2.764  11.542 -0.0517 -0.1394  0.4026
20393W        W36202   3.678   5.687   2.118 -0.0476  0.2208  0.3060
20394W        W36203  17.624   6.541   3.988 -0.0885 -0.2949 -0.1911
20395W        W36204  15.288   2.186  15.848 -0.1700 -0.1146  0.1866
20396W        W36205   1.173   2.024   0.735 -0.0946 -0.1993  0.2573
20397W        W36206  14.617  14.663  12.718  0.1266  0.2313 -0.3142
20398W        W36207  15.190  17.007  15.970 -0.0486 -0.0395  0.1324
20399W        W36208   4.237   4.114   2.861  0.0498  0.0371  0.2624
20400W        W36209   6.749  15.688   5.545 -0.2104  0.1046 -0.3691
20401W        W36210  14.239  15.718   2.599  0.2625  0.1770  0.2821
20402W        W36211  12.592  11.000   2.437 -0.0082 -0.0321 -0.1333
20403W        W36212  17.716  17.717   5.196 -0.0548  0.0479 -0.2629
20404W        W36213   1.757   4.717  14.478 -0.0197 -0.1205 -0.2781
20405W        W36214  17.421  14.680   2.987 -0.0925 -0.0116  0.1589
20406W        W36215  15.826  14.353  13.088 -0.3260  0.0791 -0.1442
20407W        W36216   7.381   2.453  12.210 -0.0957  0.1057 -0.1646
20408W        W36217   5.086   3.462   5.559  0.0227  0.0377 -0.0179
20409W        W36218  13.466   1.539  13.991 -0.0652  0.1260  0.1030
20410W        W36219   7.321   7.991  11.809 -0.1352 -0.4587 -0.0199
20411W        W36220   5.061   7.121  16.478 -0.3634 -0.1894 -0.0953
20412W        W36221   4.749  16.554   2.215 -0.0977  0.0353 -0.1441
20413W        W36222   0.255  10.302   1.905 -0.0813 -0.1648  0.2995
20414W        W36223   5.064  11.679  16.665  0.0139  0.1832 -0.3038
20415W        W36224   7.988  16.117   0.870 -0.2429  0.0692  0.3160
20416W        W36225  12.175   2.044   1.435 -0.1888  0.0640 -0.0136
20417W        W36226  17.294  13.532   3.778  0.0064  0.2816 -0.0422
20418W        W36227  14.680  15.698  12.905  0.1845  0.0210  0.1832
20419W        W36228  14.700   7.797   4.935 -0.1404  0.0986  0.1328
20420W        W36229   3.281   4.450   4.272  0.0704  0.1234  0.1329
20421W        W36230   9.495   8.367   5.103  0.2057  0.1539  0.0672
20422W        W36231   7.503  13.183   4.285 -0.1716  0.2594 -0.4651
20423W        W36232  13.408  14.604   3.356 -0.1372 -0.0669 -0.2498
20424W        W36233  13.555   8.956  12.704 -0.1192  0.1314  0.1808
20425W        W36234  14.523   1.854  14.382 -0.0981  0.1419 -0.1204
20426W        W36235   1.809   7.144  14.697  0.0385 -0.3338 -0.0864
20427W        W36236  10.336   4.585   6.807  0.1902  0.0115 -0.2077
20428W        W36237   6.096  15.020   1.526  0.1559 -0.0973  0.2255
20429W        W36238  10.175   5.818  14.818  0.0090 -0.0765  0.1232
20430W        W36239  16.826  13.323   3.621  0.1139  0.0847 -0.1519
20431W        W36240   3.651  15.846  13.144  0.0571 -0.0215  0.1777
20432W        W36241  13.789  11.463  13.543 -0.1922 -0.3363 -0.0759
20433W        W36242   5.735   3.880  13.224  0.1266 -0.2439  0.1709
20434W        W36243  14.311   4.748  16.520 -0.2870  0.0364 -0.0439
20435W        W36244  10.791   6.552   3.033 -0.1717  0.0734  0.1099
20436W        W36245  13.641  12.316   1.793  0.3726 -0.0360 -0.2767
20437W        W36246   1.361   2.262  13.832 -0.1535 -0.3472  0.3481
20438W        W36247   1.893   5.461  12.041  0.2832  0.1844  0.2732
20439W        W36248  11.035   0.527  13.925 -0.2960  0.0339 -0.1494
20440W        W36249   7.993  15.620   3.015 -0.2262  0.0504 -0.0215
20441W        W36250  11.209   3.881   2.141 -0.3015 -0.2322 -0.1112
20442W        W36251  10.021  10.278   1.988 -0.0719 -0.1620 -0.1125
20443W        W36252   8.464   1.619   4.298 -0.0558 -0.1395  0.3035
20444W        W36253   4.256  12.610  14.500  0.3185  0.3950  0.2369
20445W        W36254   3.513  14.369   0.182  0.1250 -0.0225  0.1984
20446W        W36255  10.746  12.839   0.893 -0.0495  0.0840 -0.2733
20447W        W36256  11.245  10.041   1.625  0.1336 -0.1539  0.3049
20448W        W36257   7.095   0.676   4.390  0.1436 -0.2444  0.0446
20449W        W36258   7.126   5.962   5.353 -0.2685  0.1715  0.1441
20450W        W36259   3.284   8.836   0.997  0.0707  0.3495  0.1424
20451W        W36260   6.637  13.754  13.365  0.0466 -0.0577  0.0205
20452W        W36261   1.864   7.054  14.056  0.0239  0.0208  0.1788
20453W        W36262  16.482  13.086  15.491  0.1440 -0.4248 -0.0512
20454W        W36263  11.324   6.352   0.967 -0.0019 -0.0564  0.4419
20455W        W36264  10.728   8.359   4.404  0.0760 -0.0264 -0.0349
20456W        W36265  15.766  15.872  14.836 -0.0660 -0.1684  0.0974
20457W        W36266  14.500   1.140   2.211  0.1766 -0.1200  0.0398
20458W        W36267   0.217   4.385  12.094 -0.0779 -0.0498 -0.1096
20459W        W36268   7.627  17.671   1.441  0.0486 -0.1133  0.0736
20460W        W36269  17.310  12.071   5.187 -0.1091 -0.1758 -0.0176
20461W        W36270  13.515  17.154   5.649  0.1916 -0.3495  0.1384
20462W        W36271   7.403  16.644  14.518 -0.0595 -0.0472 -0.2793
20463W        W36272   7.114   8.868   0.102  0.0826 -0.0780 -0.0371
20464W        W36273  11.852  15.682  13.498  0.0802  0.1441  0.0139
20465W        W36274  17.048  17.169   4.182  0.1669 -0.0052 -0.2564
20466W        W36275   8.491  13.364   4.000 -0.0281 -0.2559 -0.4290
20467W        W36276  16.872  17.628   1.763  0.0860 -0.2392  0.1094
20468W        W36277   1.206  13.723  16.430 -0.0250  0.0234  0.0245
20469W        W36278   4.865  13.050   1.418  0.1688  0.1431  0.1232
20470W        W36279   4.563  13.424   1.994 -0.3123  0.0839  0.0801
20471W        W36280  10.912   0.484  15.024  0.1282 -0.3628 -0.3022
20472W        W36281   1.060   8.661   5.729  0.1129  0.2542  0.0776
20473W        W36282  14.950   6.716  15.549 -0.0420  0.0402  0.1152
20474W        W36283   2.492   8.248   1.815  0.0262 -0.0157 -0.2498
20475W        W36284  11.184   9.724   2.508 -0.0956  0.1753  0.0841
20476W        W36285   5.148  12.708  13.819  0.0039 -0.0552 -0.1741
20477W        W36286  16.966   8.228  12.501  0.0368 -0.0328  0.1759
20478W        W36287   4.732   4.448   4.356  0.1219 -0.1524  0.2514
20479W        W36288   3.750   8.126   1.488 -0.0298 -0.0461 -0.2382
20480W        W36289  14.956   0.860  11.794 -0.1385 -0.3191  0.0268
20481W        W36290   6.471   0.205  16.641  0.0186 -0.0854 -0.0974
20482W        W36291  13.298   8.223  12.622  0.0236 -0.2941  0.0720
20483W        W36292  15.312  16.129  15.071  0.1973  0.2592 -0.1904
20484W        W36293   2.618   3.783  13.357  0.1002 -0.1323 -0.1903
20485W        W36294  10.692   7.025  13.165 -0.2468 -0.0905 -0.0809
20486W        W36295  16.867  17.032  12.820  0.1870 -0.3494  0.0720
20487W        W36296   5.682   1.962  13.113  0.0442  0.0052  0.4094
20488W        W36297   9.392  17.304   2.576 -0.0388 -0.0268  0.0377
20489W        W36298   2.561  16.033  11.582 -0.0784 -0.1365  0.0330
20490W        W36299   3.939  16.773   0.987  0.0463 -0.1248 -0.1660
20491W        W36300   4.882  14.205   3.330 -0.0531 -0.2141  0.0946
20492W        W36301  13.655  13.472   2.859  0.1443 -0.0421 -0.1523
20493W        W36302  11.179  11.150   3.732 -0.3629  0.0086  0.1982
20494W        W36303  16.231   5.587   4.131 -0.1294 -0.1175  0.0622
20495W        W36304  14.181   7.092  14.669 -0.0944  0.0216 -0.0771
20496W        W36305  10.881   8.281  14.793 -0.0257 -0.0940 -0.0281
20497W        W36306   2.718   6.198  16.241  0.0826  0.0316 -0.0678
20498W        W36307   7.391   4.131  15.316 -0.1728  0.1148  0.3722
20499W        W36308  12.067   1.911   1.889  0.1506  0.0590  0.2659
20500W        W36309  12.564   2.282   2.950 -0.2708 -0.1448  0.0459
20501W        W36310   3.088  13.486   2.007 -0.1871 -0.0217 -0.0226
20502W        W36311   1.980   7.546   2.185 -0.1130  0.1166  0.1926
20503W        W36312  11.345   6.227   0.050  0.0174 -0.0026  0.1744
20504W        W36313  16.553  17.058   0.619  0.4250 -0.1858 -0.1202
20505W        W36314   9.375  15.173  13.012  0.2956  0.0785 -0.0527
20506W        W36315   8.120  12.493   4.533 -0.2145  0.0284 -0.0665
20507W        W36316  12.401   2.198   2.124  0.1778  0.2982  0.1194
20508W        W36317   3.542   3.469   3.040  0.0973  0.1716 -0.0775
20509W        W36318   9.704   3.422  12.465  0.2055 -0.2484  0.0384
20510W        W36319  14.813  14.538   2.771 -0.3012 -0.0390 -0.2370
20511W        W36320  11.996   7.702   3.272 -0.1354 -0.1110  0.0019
20512W        W36321  12.948   9.838   3.280 -0.0356 -0.0783 -0.2106
20513W        W36322  11.251  15.843  11.775  0.0367  0.2707 -0.2134
20514W        W36323  12.862  14.353   2.290 -0.0464 -0.0414 -0.1344
20515W        W36324  12.023  11.977  16.363  0.1051  0.2003  0.2811
20516W        W36325  14.895   7.705   5.415 -0.1363 -0.0593  0.0945
20517W        W36326   2.965   7.329   1.447 -0.1043 -0.0411 -0.1969
20518W        W36327   7.468   6.503   4.041  0.0676 -0.0041 -0.2806
20519W        W36328   4.691   6.346  11.656 -0.1899 -0.0845  0.0757
20520W        W36329  17.033   2.801  16.605  0.2712 -0.0941  0.0672
20521W        W36330  17.580   5.529  14.295 -0.1493 -0.0712 -0.3968
20522W        W36331  11.920   5.585  13.886 -0.1679  0.1095 -0.0693
20523W        W36332   2.361  10.024   1.624  0.1199  0.2409 -0.0392
20524W        W36333   0.693   2.998   2.196  0.0204  0.3739 -0.0676
20525W        W36334  15.801   9.562   2.138  0.1185 -0.0307  0.2323
20526W        W36335   7.016   7.317  14.675  0.0318  0.2206  0.0666
20527W        W36336  13.060   6.893   2.988  0.2102  0.0385 -0.0745
20528W        W36337   3.242   9.599   4.554  0.0629 -0.0308 -0.1542
20529W        W36338  12.902  16.041   1.500 -0.1650 -0.0920 -0.2752
20530W        W36339  12.091   3.455  15.937 -0.2089 -0.2379  0.0413
20531W        W36340   4.911   5.692  13.749 -0.0408  0.2272 -0.1417
20532W        W36341  14.952   7.936  13.945  0.0418 -0.0108  0.2261
20533W        W36342   9.254   7.558   3.998  0.0160  0.0084 -0.1438
20534W        W36343   6.156   7.681   3.052 -0.0647 -0.2773  0.0011
20535W        W36344  11.205  12.899   3.566 -0.2033  0.2814 -0.2384
20536W        W36345   4.667  16.495  10.910  0.0209 -0.2315 -0.0645
20537W        W36346  11.821  11.671  16.665  0.2333 -0.0484 -0.1903
20538W        W36347   8.524   5.767   6.121  0.2661 -0.0384 -0.1585
20539W        W36348   9.570   6.766   2.808  0.0393  0.1390 -0.0580
20540W        W36349   6.121  14.830   3.466  0.0972  0.3910  0.1086
20541W        W36350  16.766   2.600   0.335  0.2016  0.0031  0.0717
20542W        W36351   3.952  16.399  12.104  0.0321  0.2011 -0.1128
20543W        W36352  13.859   3.321  13.998  0.0470  0.1764  0.0467
20544W        W36353  10.628  11.911   4.147  0.1696 -0.1489  0.1697
20545W        W36354   7.217   5.605  15.956  0.1410 -0.3940 -0.4378
20546W        W36355  16.718  11.341   1.771  0.0458 -0.2390 -0.2650
20547W        W36356  16.264   5.629   5.508 -0.1766  0.1069  0.1801
20548W        W36357  14.337  17.217  11.590  0.0740  0.1069 -0.4528
20549W        W36358  15.154  15.790  12.520  0.2445  0.0797 -0.1337
20550W        W36359  13.746  12.079   4.471 -0.2094 -0.0557  0.0385
20551W        W36360   4.127  16.142   6.259 -0.1767 -0.3269 -0.0067
20552W        W36361   2.794  13.867  13.412  0.2379 -0.0310  0.1874
20553W        W36362  13.576   6.051   3.065 -0.0278 -0.0979 -0.0934
20554W        W36363  12.253  16.238   4.331 -0.0141 -0.0372 -0.2131
20555W        W36364   3.132   2.684   1.640 -0.0754 -0.1959 -0.2355
20556W        W36365  14.955   7.765   4.456  0.0219 -0.0999  0.0346
20557W        W36366  14.006  14.187  12.366  0.0802  0.0589 -0.3946
20558W        W36367   3.635  11.544   3.868 -0.1824  0.0261  0.1051
20559W        W36368  15.570  12.418   1.062 -0.0748 -0.3269  0.0343
20560W        W36369  15.621   4.990  13.116  0.0535 -0.0164 -0.0761
20561W        W36370  14.142   6.064   3.231 -0.3208  0.1093 -0.1114
20562W        W36371   4.651   3.146   3.847  0.0740  0.2256 -0.0295
20563W        W36372  17.069   4.835   3.994  0.2350  0.0116  0.0124
20564W        W36373  13.946   0.514  14.111 -0.2233 -0.1162  0.1187
20565W        W36374   4.961   1.377  14.623 -0.2177 -0.1912  0.1276
20566W        W36375   5.871   1.997   6.141  0.2132  0.0583  0.4487
20567W        W36376  13.115   3.937  12.021 -0.2349  0.3931  0.3247
20568W        W36377   9.662   7.643   5.622  0.2214 -0.4024 -0.0558
20569W        W36378   2.755   1.963   0.051 -0.0055  0.0697 -0.1055
20570W        W36379  16.274   5.343   2.921 -0.1544  0.1149 -0.2148
20571W        W36380   7.685  17.324  12.743  0.1817 -0.3520  0.0625
20572W        W36381   1.305  12.038  16.619  0.0595 -0.0738 -0.0454
20573W        W36382  12.938  12.228   1.268 -0.5036  0.1042 -0.0423
20574W        W36383  15.072  15.947   1.502 -0.3613 -0.0453  0.1130
20575W        W36384   8.155  16.962  14.056 -0.0048 -0.0566 -0.2079
20576W        W36385   5.089   8.324  16.492  0.1497  0.0666  0.1307
20577W        W36386   3.734   7.821  13.209  0.0090  0.1137 -0.0951
20578W        W36387   9.363  16.940  15.435 -0.0330 -0.0492 -0.0804
20579W        W36388  15.457  11.461   4.581 -0.2957  0.3330 -0.1665
20580W        W36389  12.050  14.180  12.385  0.1317  0.1655 -0.1979
20581W        W36390  10.947  12.150  14.352 -0.0232 -0.2033  0.1455
20582W        W36391   4.564  16.070   1.302 -0.0040  0.3516 -0.3050
20583W        W36392   5.643   8.199  15.816 -0.3104 -0.1884 -0.0167
20584W        W36393   9.356   4.529  12.551 -0.2894 -0.0308 -0.2629
20585W        W36394   1.347  12.999   2.092  0.0329  0.3856 -0.0659
20586W        W36395   4.683   0.904   6.036 -0.0992 -0.3395  0.0385
20587W        W36396  15.566  12.153   0.245 -0.3391 -0.0093 -0.2886
20588W        W36397  14.718   8.477  12.511  0.0475  0.1528 -0.1317
20589W        W36398   5.569   1.412  12.370 -0.3508  0.1422  0.1230
20590W        W36399   1.772   1.361  12.271 -0.0883 -0.2006 -0.0287
20591W        W36400  14.706  17.581  11.573  0.0155 -0.1754  0.0107
20592W        W36401  15.094  14.732   2.322 -0.0171  0.0503 -0.0104
20593W        W36402  10.748  10.828  16.219  0.0510 -0.4018 -0.0306
20594W        W36403  17.628   1.013   1.478  0.0158 -0.0228  0.5893
20595W        W36404  14.573   0.815   0.124 -0.1552 -0.2412 -0.0086
20596W        W36405   6.842   9.427  14.925 -0.1476  0.0293 -0.1065
20597W        W36406  11.406   9.640   0.507 -0.0202 -0.1002 -0.2033
20598W        W36407  14.570  13.400  12.794 -0.0910 -0.1814  0.0091
20599W        W36408   9.954   0.014   1.398  0.1413  0.1279  0.4482
20600W        W36409  14.092   7.397  12.978 -0.0615  0.0349 -0.1162
20601W        W36410   7.986   3.694  13.309  0.2916 -0.0629 -0.1953
20602W        W36411  17.928  17.262   5.742  0.0017  0.0494 -0.3792
20603W        W36412  15.995  13.400   4.810 -0.0671  0.0086  0.1328
20604W        W36413   0.884   3.389   4.101 -0.0492 -0.0889 -0.0331
20605W        W36414   8.489   8.319   0.111  0.2319  0.0400  0.0938
20606W        W36415   0.890   1.069   0.309 -0.2362  0.1059 -0.1862
20607W        W36416  11.131   0.203  15.892  0.0791 -0.1411  0.2035
20608W        W36417  12.482  12.915   5.897 -0.1700  0.2593 -0.1103
20609W        W36418  13.783  12.994   4.769 -0.0136 -0.5152  0.1286
20610W        W36419   6.469   2.692   2.213 -0.0195 -0.0307  0.2145
20611W        W36420   9.639  13.530  12.152  0.1623 -0.1457  0.1327
20612W        W36421  12.989   2.129   4.961  0.0520  0.0330  0.1557
20613W        W36422   9.534   6.742  14.380  0.1419  0.0442  0.1539
20614W        W36423  15.027   1.542  11.204  0.2082  0.0240  0.0647
20615W        W36424  11.691  10.231   1.475  0.1467  0.0603 -0.1226
20616W        W36425   8.836   8.198  12.879  0.0714 -0.1028 -0.1360
20617W        W36426  15.942  10.021  16.495 -0.0654  0.0456  0.0639
20618W        W36427   9.304   7.106  11.645 -0.0099  0.0228 -0.0810
20619W        W36428   0.713   7.016  15.282  0.1127  0.2471  0.0749
20620W        W36429  16.276   7.117  15.254 -0.0619 -0.0716 -0.0167
20621W        W36430   0.937   0.345  15.394 -0.1071 -0.0242 -0.1131
20622W        W36431   1.167   2.160   4.478  0.4263 -0.0961 -0.1771
20623W        W36432   1.010  14.345   1.132 -0.1886 -0.0605  0.2844
20624W        W36433  11.306   6.047   2.668 -0.1289 -0.1122  0.1377
20625W        W36434   4.726   8.847  11.443  0.2356  0.2909 -0.1999
20626W        W36435   6.783   4.249   5.094 -0.1526  0.2624  0.0133
20627W        W36436   8.508  14.188  12.836 -0.5021 -0.1470 -0.0132
20628W        W36437  14.571   9.998   2.171  0.1232  0.1111  0.0544
20629W        W36438  14.061   6.350   4.859 -0.1527  0.2024 -0.2870
20630W        W36439   8.707   0.399   1.814 -0.0058  0.1417 -0.1299
20631W        W36440   0.601   2.611   1.049 -0.0207  0.1866  0.1687
20632W        W36441  15.231  10.524   3.552  0.4033 -0.0913 -0.1852
20633W        W36442   4.153  12.431   4.312  0.1592  0.0233  0.1391
20634W        W36443   8.788  17.839   1.102  0.1286 -0.2302 -0.3177
20635W        W36444  10.851   7.249   0.315  0.0071 -0.1344  0.0303
20636W        W36445  10.436  10.846  13.337 -0.1833 -0.3229  0.0177
20637W        W36446   7.876   7.283  14.077 -0.3673 -0.0971 -0.0275
20638W        W36447   9.574   8.382   4.097  0.0095  0.1170  0.1308
20639W        W36448  15.464   1.664  15.834  0.2665  0.2225 -0.2435
20640W        W36449  17.683   8.888   0.218  0.3239  0.2587 -0.1814
20641W        W36450   0.721  12.580  15.546  0.3824 -0.1505  0.0893
20642W        W36451  10.839   9.373  12.383  0.1463  0.1437 -0.0608
20643W        W36452  17.227  16.261   5.248 -0.0971 -0.5069 -0.0230
20644W        W36453  16.267   1.111  14.088 -0.1391  0.0817 -0.3838
20645W        W36454  17.243   9.455   2.180 -0.0154 -0.1566  0.0066
20646W        W36455   0.135   5.411  14.340 -0.0436  0.0733 -0.0002
20647W        W36456   8.481  13.221  12.780  0.2535  0.1965  0.1612
20648W        W36457  16.390   4.113  15.962  0.3338  0.3282  0.1047
20649W        W36458  14.870  17.276   2.159 -0.2083  0.1576 -0.0021
20650W        W36459  17.004   3.148   4.498 -0.0002  0.1586 -0.3320
20651W        W36460  14.767  14.389  13.770 -0.0103  0.1801 -0.0694
20652W        W36461   6.326   6.610  15.861 -0.0321 -0.1268 -0.0129
20653W        W36462   4.970   2.643  15.977 -0.0659 -0.0959  0.2578
20654W        W36463  10.844   4.847  12.134 -0.1682  0.0645  0.1859
20655W        W36464   2.437  11.109   3.922 -0.2854  0.0759  0.0949
20656W        W36465  14.094   9.002   1.794  0.1590  0.1234  0.1506
20657W        W36466  10.848  11.151  13.080 -0.1191  0.1391  0.0176
20658W        W36467  11.891   1.458   5.234 -0.0953  0.0047  0.2555
20659W        W36468   1.961   4.908  13.168 -0.1170 -0.2069  0.0677
20660W        W36469  14.513  16.638   0.336  0.0500  0.0486  0.1605
20661W        W36470   9.999  16.495   5.248  0.4568  0.3015  0.0640
20662W        W36471   1.893  17.343  16.224  0.0852 -0.2480  0.0456
20663W        W36472   9.607  14.554   3.285  0.0877 -0.0274  0.0072
20664W        W36473   4.237  10.670   4.029 -0.2091 -0.0857  0.1745
20665W        W36474   0.470   0.762  14.561 -0.0260  0.0848 -0.0829
20666W        W36475   0.863  12.858   2.201  0.2405  0.1624  0.1770
20667W        W36476   6.054   3.096   0.498  0.1122 -0.0363  0.3084
20668W        W36477  14.217   9.919   1.601 -0.0448 -0.2951 -0.2412
20669W        W36478  17.514  10.917   5.026 -0.0310  0.1384  0.0482
20670W        W36479   1.351   9.205  13.325 -0.0773 -0.1288  0.0770
20671W        W36480  17.782   0.270  14.756  0.0471  0.0151  0.2730
20672W        W36481  10.822   1.227   2.746 -0.1580 -0.2227 -0.2256
20673W        W36482  17.415  10.402  12.510 -0.1314  0.0625  0.2845
20674W        W36483  17.103   9.105   1.776  0.1393 -0.0829 -0.2793
20675W        W36484  15.652   7.552  13.448  0.1380 -0.0665 -0.0278
20676W        W36485  12.998  15.312   0.352 -0.0292  0.2643  0.0221
20677W        W36486   9.620   7.891   3.975  0.0677  0.1858  0.3849
20678W        W36487  16.988   8.977  13.104  0.2038 -0.0877  0.0676
20679W        W36488  15.033   6.589   3.331 -0.4148  0.0638  0.0612
20680W        W36489   4.823  11.410  11.719 -0.5094 -0.1064 -0.1978
20681W        W36490   1.918   1.224   3.348 -0.1555  0.0412 -0.3479
20682W        W36491   6.926  12.148   3.931  0.0912 -0.1911 -0.1527
20683W        W36492   1.896  11.027  15.239  0.1430 -0.0497  0.0533
20684W        W36493  17.240   7.474  13.865  0.1885 -0.1720 -0.1104
20685W        W36494   0.993   7.968   0.373  0.2232  0.1371 -0.1340
20686W        W36495   4.185   6.272  10.874 -0.1260 -0.3848  0.0282
20687W        W36496  17.227  12.075   2.629  0.0366  0.0688  0.0859
20688W        W36497  11.024  12.827   1.405  0.0598 -0.2301 -0.0092
20689W        W36498   9.172   3.662   1.591  0.1583 -0.1489  0.2524
20690W        W36499  15.944  13.742  16.062 -0.2088  0.1148  0.1377
20691W        W36500   2.161   7.185  10.272 -0.1431 -0.1694  0.1432
20692W        W36501   8.257   4.580   1.815 -0.1083 -0.1092  0.1157
20693W        W36502   0.861   3.189  11.981 -0.1789  0.0155  0.0717
20694W        W36503  12.587  15.237  11.853 -0.0316  0.1395 -0.1870
20695W        W36504  15.528  15.154  11.880  0.0689  0.0363 -0.1295
20696W        W36505   5.384  16.806  14.948  0.0481 -0.0818  0.1223
20697W        W36506   8.393   8.533   3.166  0.2549 -0.2719 -0.2011
20698W        W36507   8.653  10.842  14.026 -0.1452 -0.3495  0.1102
20699W        W36508  12.355  16.836   1.295 -0.0508 -0.1238  0.0473
20700W        W36509   9.677  16.704   0.156 -0.3631  0.1795 -0.4276
20701W        W36510  12.267  12.718   4.948  0.0195 -0.2041 -0.0992
20702W        W36511  13.514  14.641  13.790  0.1676  0.3236 -0.0414
20703W        W36512   3.067   2.474   3.635  0.2134 -0.1280  0.1849
20704W        W36513   2.941  14.124   2.593 -0.1921 -0.0791  0.0309
20705W        W36514  16.523   2.861  16.533 -0.1106 -0.2855  0.0741
20706W        W36515  17.601   2.015  11.470 -0.0479  0.0494  0.1775
20707W        W36516   8.284  14.242  13.692  0.2242 -0.1240 -0.1006
20708W        W36517   0.749   1.388   0.665  0.1658 -0.4349  0.2315
20709W        W36518   0.363  14.088  12.382  0.0356 -0.0353  0.1642
20710W        W36519   1.660  10.559   2.661 -0.3592  0.1569  0.0670
20711W        W36520  13.313  13.301   4.241 -0.1639 -0.0155 -0.0311
20712W        W36521   9.939  11.146   3.918 -0.1537  0.1548  0.0331
20713W        W36522   6.523   5.303   4.271  0.0970  0.0624  0.1260
20714W        W36523  10.444  15.880   1.202  0.3620  0.3351 -0.0883
20715W        W36524  13.129   7.111   5.023  0.0654 -0.5043 -0.2133
20716W        W36525   6.050  16.411  12.062  0.2400 -0.3123  0.1775
20717W        W36526   2.366  11.212   4.436  0.0629 -0.1985 -0.0453
20718W        W36527  10.639   6.886  12.335  0.0432 -0.0105 -0.0705
20719W        W36528   1.071   4.303  14.135  0.3847  0.0990  0.2010
20720W        W36529  14.847  13.302   1.915  0.1685 -0.1353 -0.3941
20721W        W36530  12.865  16.224  14.817  0.0959  0.0802 -0.1169
20722W        W36531   7.291   4.305   1.511  0.0826  0.1464 -0.2834
20723W        W36532   2.543   6.225   2.704  0.2610 -0.0189  0.0947
20724W        W36533   6.219   9.635   0.545 -0.0631  0.4445 -0.0003
20725W        W36534  16.362   2.119  16.021 -0.2185 -0.2279 -0.2158
20726W        W36535  11.275   1.935  13.674 -0.1579 -0.0307  0.1677
20727W        W36536   7.344   1.215   2.556 -0.0923  0.2318 -0.1739
20728W        W36537   9.630   2.888  14.136 -0.0877  0.1398 -0.2912
20729W        W36538  17.775   1.269   3.294  0.3147 -0.0032  0.1023
20730W        W36539   5.249  15.098  15.691 -0.1539  0.0499 -0.1249
20731W        W36540   1.249   4.492   2.118  0.0946 -0.0285  0.1296
20732W        W36541  16.374  14.506  12.995 -0.2687  0.1046 -0.3116
20733W        W36542   1.140  12.794  11.261 -0.0295  0.0650 -0.2684
20734W        W36543  12.701   7.224  14.370 -0.2598  0.0799 -0.2091
20735W        W36544   1.704  16.061  12.044  0.1297  0.0721 -0.0235
20736W        W36545  13.529   2.737   3.047  0.1092  0.1114 -0.0295
20737W        W36546   8.297   4.598  15.566  0.1829 -0.1417  0.3936
20738W        W36547   6.367  12.194   4.006 -0.2862 -0.1382 -0.0506
20739W        W36548   3.977   4.428   5.378  0.2415 -0.0229  0.2866
20740W        W36549  16.415  13.697   2.882  0.0240  0.0918  0.1098
20741W        W36550  17.215   4.096  16.503  0.0257 -0.1598 -0.1773
20742W        W36551  17.883   6.987  12.971  0.0148  0.0672 -0.4229
20743W        W36552   7.468  11.117  15.597 -0.2588 -0.1805  0.2742
20744W        W36553  14.468  11.142  14.492  0.0561  0.2259 -0.2594
20745W        W36554   5.584  17.662  12.236  0.1113 -0.2677  0.0446
20746W        W36555   5.318   7.267  14.499 -0.2124 -0.0769  0.2710
20747W        W36556  14.225  12.344   5.163  0.1628 -0.0762 -0.3650
20748W        W36557   9.688  11.222   4.951  0.1445 -0.0863 -0.0450
20749W        W36558  16.550  15.805  12.843 -0.0571  0.0800  0.0017
20750W        W36559   8.231  11.487   3.866 -0.1179 -0.1188  0.1319
20751W        W36560  17.639   4.777   3.097  0.1801 -0.1948 -0.0565
20752W        W36561   4.391  17.291  12.196  0.1590 -0.0768  0.0684
20753W        W36562   5.304   2.755  11.602  0.1763  0.3329 -0.1692
20754W        W36563  10.601  12.521   1.562 -0.1493  0.0388 -0.3078
20755W        W36564   2.563  11.931   1.409  0.3643 -0.2141  0.2827
20756W        W36565   0.582   8.337  14.265 -0.1663  0.0715 -0.0544
20757W        W36566   7.629   6.877   6.242  0.1204 -0.1553 -0.0382
20758W        W36567   2.976  15.630  14.353  0.0225  0.0517 -0.0959
20759W        W36568  16.917   2.302  16.665  0.0357  0.1050  0.1032
20760W        W36569   1.600  14.257  13.168  0.2477  0.0118 -0.0751
20761W        W36570  16.270   6.171   4.159 -0.0310 -0.0525  0.0398
20762W        W36571   0.904   0.419   5.083 -0.0763  0.0184 -0.1223
20763W        W36572  15.002  14.116   0.835  0.0457  0.1403 -0.0842
20764W        W36573   7.705   1.359   0.515  0.2041 -0.2822  0.1605
20765W        W36574   5.642  14.274   1.182 -0.1880  0.1064 -0.1953
20766W        W36575   0.185   6.320  14.957 -0.0905  0.0930  0.3024
20767W        W36576   2.300  13.062   1.375 -0.0824 -0.0761  0.0783
20768W        W36577   3.727   0.077  13.744 -0.1899 -0.2460  0.3137
20769W        W36578  16.822  16.867   2.927  0.0723  0.0174 -0.2571
20770W        W36579   9.004  10.483  11.649 -0.1282 -0.1347  0.0200
20771W        W36580  14.724   0.156  14.546 -0.0101 -0.0520  0.0285
20772W        W36581  15.468   6.453   2.951  0.0542 -0.0431  0.0113
20773W        W36582  17.106   3.443   4.951 -0.0374  0.0389  0.2614
20774W        W36583   7.683  17.632  11.600 -0.1806 -0.0835 -0.1798
20775W        W36584   4.676   6.331   2.545 -0.0127 -0.2661 -0.2726
20776W        W36585   0.314  10.395  16.311 -0.0347  0.1504 -0.0551
20777W        W36586   7.196   4.699   0.299 -0.1683  0.1098  0.2687
20778W        W36587   1.221  16.842   3.855  0.2880 -0.0189 -0.0196
20779W        W36588  13.011   8.834   1.917 -0.1885 -0.0793 -0.0376
20780W        W36589   3.168   8.858  13.406  0.2235  0.0185 -0.0822
20781W        W36590   9.726  13.246  14.934  0.0995  0.3790 -0.3276
20782W        W36591   3.355  15.686  16.330 -0.0799  0.2029 -0.1520
20783W        W36592   0.512  17.038  14.035 -0.0963  0.0267 -0.3933
20784W        W36593   7.992   0.033   1.482  0.0519  0.0531  0.1274
20785W        W36594  15.153   2.604  12.579 -0.1187 -0.1317  0.0813
20786W        W36595   7.004  10.907  15.731 -0.1990  0.0101 -0.1977
20787W        W36596   7.834   8.396   3.003 -0.1800  0.1592  0.0470
20788W        W36597  10.673   0.125  12.079 -0.0996 -0.2310 -0.3983
20789W        W36598   1.748   8.978   3.255 -0.1683  0.1654  0.0433
20790W        W36599  12.203   0.360  15.532 -0.2986 -0.0476 -0.0038
20791W        W36600   2.876  11.449   1.471  0.0023  0.1192  0.1979
20792W        W36601   4.841   3.878  13.459  0.1270 -0.2640  0.2659
20793W        W36602   5.347   7.497  12.517 -0.1602  0.0406  0.1099
20794W        W36603   9.449  14.075  16.134  0.3221  0.0991  0.1775
20795W        W36604  13.637  14.036  16.630  0.1103  0.0224  0.3413
20796W        W36605   0.808  14.991  13.463  0.0971  0.1899  0.0871
20797W        W36606   9.017  12.969  16.356  0.0952 -0.0691 -0.1405
20798W        W36607  12.911   3.461  14.166  0.0693 -0.0540  0.1461
20799W        W36608   1.548   2.921   0.172  0.3245  0.1632  0.1637
20800W        W36609  10.561   1.804  13.460 -0.0516  0.0194 -0.1249
20801W        W36610  17.874  12.463   5.789  0.5729  0.0616 -0.2089
20802W        W36611  11.335  15.565  16.428  0.2874 -0.2916 -0.3219
20803W        W36612   3.070   0.107  16.004  0.1872 -0.3320  0.2993
20804W        W36613   0.310  12.111  13.282 -0.0249  0.2044 -0.0804
20805W        W36614  17.668   1.744  13.095 -0.0233  0.1092  0.0887
20806W        W36615   2.554   6.888   0.790 -0.1904  0.2179  0.0492
20807W        W36616   9.137  10.182  12.718  0.0131 -0.0663  0.1515
20808W        W36617   6.284  15.967   0.389 -0.0483 -0.1659 -0.2412
20809W        W36618   3.030  14.896  11.795 -0.3445  0.0058 -0.1033
20810W        W36619  14.282   4.965  12.856 -0.0258 -0.0706 -0.0435
20811W        W36620  16.936   7.722  15.024 -0.2359  0.1630  0.3786
20812W        W36621   7.090   0.666   5.831 -0.2062 -0.2702  0.1459
20813W        W36622   1.336   2.941   4.666 -0.3065  0.0235  0.0647
20814W        W36623  14.532  13.916   0.560 -0.0504 -0.1238 -0.2856
20815W        W36624   8.044   2.051  16.502  0.0964  0.1197  0.1191
20816W        W36625  12.989   3.392   2.112  0.0112  0.0434 -0.0098
20817W        W36626  13.302  17.803   1.578  0.1418 -0.5307 -0.0903
20818W        W36627  14.177   0.868   0.582 -0.1377  0.0742 -0.1360
20819W        W36628  10.091   0.947  14.848  0.1492 -0.0148 -0.0548
20820W        W36629   6.954   0.190  13.201  0.1460 -0.1339  0.0142
20821W        W36630  14.277   1.221  15.209 -0.1590 -0.4487  0.1084
20822W        W36631   5.925  14.225   4.236 -0.0054  0.1794 -0.3297
20823W        W36632  11.213  16.902   3.999 -0.1564  0.2131 -0.1614
20824W        W36633  13.797  11.731  13.982  0.2494  0.1003  0.0891
20825W        W36634   6.271   1.857  13.288  0.1119  0.0583  0.1366
20826W        W36635  12.293   4.886  15.671  0.1183 -0.1438  0.0731
20827W        W36636  15.521   0.233  11.411  0.3339  0.1611  0.0556
20828W        W36637   9.236  16.002   0.315 -0.0423 -0.0398  0.1185
20829W        W36638  11.490   0.480   5.903 -0.0655 -0.3295 -0.1186
20830W        W36639   5.090   6.831   2.120  0.0467 -0.2544 -0.0502
20831W        W36640   0.323  10.215  14.825  0.0785  0.2450 -0.0933
20832W        W36641   5.096  10.199  14.473 -0.0901  0.0743 -0.4187
20833W        W36642   6.344  10.318   3.539  0.1494  0.1067 -0.2262
20834W        W36643  14.710   8.308   0.615  0.2702  0.0165  0.5667
20835W        W36644   2.323   8.502  12.685  0.0845  0.2358  0.0174
20836W        W36645  10.817  12.051   1.724  0.0583 -0.0235  0.2114
20837W        W36646  11.861   7.176   0.101  0.2852 -0.0485  0.3012
20838W        W36647   0.753   7.148   3.274 -0.2228 -0.1687 -0.2778
20839W        W36648   1.893   5.457   9.987 -0.1251  0.1579  0.0364
20840W        W36649   2.300  12.948   0.019 -0.3743 -0.0216  0.1458
20841W        W36650  11.886  12.144   2.177 -0.1907  0.2158 -0.0134
20842W        W36651  17.413   2.431  13.170  0.2858 -0.0764  0.0980
20843W        W36652   0.477  10.746  13.365  0.2254 -0.0999  0.1408
20844W        W36653  17.208   6.225  13.754  0.2412 -0.2101  0.4210
20845W        W36654   2.609   6.757  14.668 -0.0173  0.0138 -0.0755
20846W        W36655  12.529  13.294  14.111 -0.1010  0.2823  0.0714
20847W        W36656  11.910   5.321   2.734  0.4643  0.1413  0.4573
20848W        W36657  13.937   8.301   0.192  0.1194 -0.1549  0.3224
20849W        W36658   8.179  14.098   0.734 -0.0997 -0.0099 -0.0460
20850W        W36659  11.167   4.108  14.322 -0.2338 -0.0922  0.1104
20851W        W36660   1.077  17.682  16.700 -0.0414  0.1566 -0.2362
20852W        W36661  14.901   4.768  12.515 -0.0540 -0.0721 -0.0090
20853W        W36662  17.267  15.180   2.601 -0.0121 -0.1744  0.2053
20854W        W36663   9.165  10.106   4.056 -0.0020  0.0409  0.0324
20855W        W36664   4.450   5.588   1.455  0.0041 -0.2678 -0.0519
20856W        W36665   0.038   2.605   1.655 -0.1161 -0.3390  0.1315
20857W        W36666  11.529  12.575  12.094  0.2218  0.1445  0.1505
20858W        W36667   6.522   5.124  14.432 -0.2795  0.0267 -0.1424
20859W        W36668   4.540   9.452  10.985 -0.3992  0.0570 -0.2562
20860W        W36669   3.349  10.797   5.267  0.0415 -0.1951  0.1928
20861W        W36670   9.548   0.610  11.802 -0.0197 -0.1938 -0.2517
20862W        W36671   5.805  14.055  16.634  0.1463 -0.0550 -0.2439
20863W        W36672   5.403  11.871  13.301 -0.0472  0.0235 -0.0117
20864W        W36673  15.693   4.551   1.973  0.4988  0.2397 -0.0265
20865W        W36674   0.633   6.032   5.176 -0.1936 -0.0754  0.0964
20866W        W36675   4.963  14.214   0.193 -0.4140  0.0393  0.1043
20867W        W36676  13.137   6.023  15.215  0.2460 -0.2129  0.0590
20868W        W36677   4.955  17.164   4.181  0.2830  0.0171 -0.4516
20869W        W36678  17.245   6.110  12.784 -0.3574 -0.2512  0.0424
20870W        W36679   0.818  16.587  15.540  0.0366  0.1435  0.0938
20871W        W36680  12.572   9.471   2.429  0.1118  0.0772 -0.1972
20872W        W36681  10.451  10.390  16.196 -0.0541  0.0644  0.1365
20873W        W36682   0.237   2.335  14.001 -0.1390  0.1754  0.1163
20874W        W36683   8.962  17.015   2.328  0.0677  0.0863 -0.0937
20875W        W36684   8.280   9.033  13.697  0.1604 -0.1440 -0.2962
20876W        W36685  15.506   5.682   4.903 -0.3461 -0.2732  0.2283
20877W        W36686  13.743   0.619  16.449  0.3998  0.0833 -0.1725
20878W        W36687  17.959  15.397   1.462 -0.2369 -0.3269 -0.1838
20879W        W36688  16.255   5.850  11.469  0.1278 -0.0779 -0.1684
20880W        W36689   5.575  14.171   5.636  0.2524  0.2923  0.1542
20881W        W36690   5.509   8.746   3.962  0.0664  0.1098 -0.0145
20882W        W36691   3.407   5.077   3.141 -0.1030 -0.0776 -0.1842
20883W        W36692  13.302  17.058  15.052  0.2342 -0.1915 -0.2596
20884W        W36693   4.045   8.759   2.030  0.1282 -0.2847 -0.3373
20885W        W36694   3.587  11.961  12.441  0.3143 -0.0259  0.2715
20886W        W36695   6.741  17.146  13.328  0.2389 -0.1260  0.1136
20887W        W36696   3.175  11.662   4.491  0.2334  0.1217 -0.2990
20888W        W36697   7.426  13.265  13.047 -0.2884  0.0314 -0.0448
20889W        W36698   5.090   7.182   0.247 -0.0232 -0.0189 -0.1017
20890W        W36699   5.802  12.083  12.997 -0.0414  0.3973 -0.0897
20891W        W36700   1.841  13.347  12.827 -0.0099 -0.1930 -0.1085
20892W        W36701  10.787   4.907  14.752  0.0932  0.0561  0.0712
20893W        W36702   4.096   5.281   0.281  0.0768  0.2030  0.0594
20894W        W36703  10.800   6.515   0.967 -0.2006  0.2181 -0.1399
20895W        W36704   4.320  16.144  15.782  0.1993  0.1731 -0.2516
20896W        W36705  15.930  16.042   5.289  0.1932 -0.2491  0.0458
20897W        W36706   2.739   0.055   4.302 -0.2233 -0.2685 -0.3091
20898W        W36707  16.632   0.192   3.237  0.1338 -0.3831 -0.2907
20899W        W36708  14.865  11.372   5.528 -0.0427 -0.1538  0.1463
20900W        W36709  10.610   0.986  15.795 -0.0888  0.0623 -0.0116
20901W        W36710  16.271  16.522  15.769 -0.0514  0.3707  0.1707
20902W        W36711   1.148  17.820  16.204  0.2852 -0.1032 -0.3086
20903W        W36712  14.163  16.161   2.481 -0.0401  0.0165  0.0070
20904W        W36713  12.125   9.567   2.195  0.0284  0.0630 -0.1611
20905W        W36714   8.549   0.628   2.968  0.1388 -0.1260 -0.0621
20906W        W36715   5.950  10.379  12.814 -0.0358 -0.2839 -0.3847
20907W        W36716  12.109  12.463   3.424 -0.1227  0.2897  0.1412
20908W        W36717   0.129   1.341   2.109 -0.2351  0.1368 -0.0885
20909W        W36718   3.844  13.936   3.089  0.1710 -0.0420 -0.1194
20910W        W36719   6.796   9.891   2.753 -0.2104  0.1269  0.0718
20911W        W36720  17.673   8.022   2.772  0.0262  0.3835 -0.3568
20912W        W36721  12.699   9.091  15.355  0.1399 -0.1779 -0.0229
20913W        W36722  15.731   5.460  12.150  0.1704  0.1527  0.1020
20914W        W36723   1.678   2.010  15.570  0.4165 -0.0838 -0.2003
20915W        W36724   0.206  11.432   2.593  0.1103  0.0797 -0.0358
20916W        W36725   8.269  15.392   4.293 -0.0093  0.0079 -0.1629
20917W        W36726   4.459  13.890   2.509 -0.0517  0.1133 -0.1712
20918W        W36727  13.379   4.721   4.365  0.2649  0.4063  0.1333
20919W        W36728   9.396   5.031   1.948  0.1591 -0.2199  0.0279
20920W        W36729   5.670  13.976  11.365  0.0752 -0.0902  0.0553
20921W        W36730   8.375   1.802   6.725  0.1708 -0.3238  0.0876
20922W        W36731   5.682  13.655  15.184 -0.0988  0.0144 -0.0453
20923W        W36732   8.229  10.845   3.276  0.1817  0.0209 -0.0144
20924W        W36733   4.151   3.945   3.857  0.2398 -0.2790  0.1482
20925W        W36734  16.689   5.890   5.351 -0.2314 -0.0798  0.1208
20926W        W36735   3.284  10.768   0.982  0.0225 -0.2788 -0.1124
20927W        W36736  13.576   3.532   5.136  0.2480  0.0841 -0.1259
20928W        W36737   6.240   4.709   4.959  0.2918  0.1075  0.1676
20929W        W36738   4.059   1.085   2.534 -0.4583 -0.0904  0.1230
20930W        W36739   6.097  15.831  14.726 -0.0778 -0.1123  0.0847
20931W        W36740   8.574  13.906  14.110 -0.2267 -0.1718  0.0665
20932W        W36741  14.967  15.487   0.601 -0.0334 -0.3488 -0.0781
20933W        W36742  12.710   5.789   6.192  0.0645 -0.2657 -0.0514
20934W        W36743  13.157  16.371  13.338 -0.2183 -0.1419  0.2233
20935W        W36744   5.186  10.739  14.015 -0.0140  0.1067  0.0152
20936W        W36745  11.949   6.948   1.174  0.2470  0.1652  0.0838
20937W        W36746  12.341   2.096  16.056  0.1808 -0.1812  0.0687
20938W        W36747   6.659   2.685   3.264 -0.1323 -0.3618  0.0702
20939W        W36748   7.366  15.716   2.145 -0.0820 -0.0932 -0.0512
20940W        W36749  11.170   9.567  14.943 -0.2029  0.0179 -0.0976
20941W        W36750   0.381   3.586   4.215 -0.0573 -0.1327  0.1650
20942W        W36751  16.422  10.917  12.816 -0.0202  0.1438 -0.0799
20943W        W36752  16.409   9.753  14.544 -0.2663  0.4101 -0.1129
20944W        W36753  17.096  11.680  14.246 -0.4218  0.2837  0.0752
20945W        W36754  13.111   8.130  15.558 -0.1905 -0.1726 -0.0160
20946W        W36755  17.491   0.325  14.300 -0.0364  0.1890  0.1235
20947W        W36756  14.060   1.463   4.445  0.0862  0.2119  0.2049
20948W        W36757   8.755  13.315   2.019  0.0057  0.1024  0.0212
20949W        W36758   1.358   3.968  15.783  0.1453 -0.0107 -0.0665
20950W        W36759  15.066   2.898  13.457 -0.0021 -0.1776 -0.0605
20951W        W36760  16.214   0.819   3.877 -0.3632  0.2331  0.0563
20952W        W36761   9.113  16.980   3.713  0.1002  0.0700 -0.1524
20953W        W36762  12.255   0.627  12.819  0.2446  0.3257  0.0929
20954W        W36763   7.203  16.780   2.535 -0.1984  0.0894  0.2553
20955W        W36764  13.350  11.303   5.417  0.2859  0.3051  0.1610
20956W        W36765  17.519   1.580  16.389 -0.1700 -0.0388  0.0493
20957W        W36766  13.882  12.217   2.433  0.0722  0.1473  0.0242
20958W        W36767   0.288  13.317   0.472  0.3829 -0.0609 -0.3008
20959W        W36768  15.238  10.318   1.128  0.2415 -0.0895  0.4158
20960W        W36769  11.385  11.786   0.513 -0.1828 -0.0084  0.1925
20961W        W36770   0.366  17.685  11.589  0.0071 -0.3190 -0.3066
20962W        W36771   4.484  17.056   2.965 -0.2410  0.0845 -0.1056
20963W        W36772   3.486  17.476  14.290 -0.0101  0.0302  0.2837
20964W        W36773   7.655   3.960   0.713 -0.1442 -0.2558  0.1372
20965W        W36774   2.652   5.613  12.234 -0.1266  0.0221  0.2434
20966W        W36775   8.119  12.794   1.750 -0.2562  0.1909  0.0513
20967W        W36776   8.274   7.124   3.976 -0.4218  0.0231 -0.0809
20968W        W36777   5.113   1.258  12.391  0.0533 -0.1536  0.3295
20969W        W36778   9.231  16.350   3.007  0.0551  0.2126  0.0956
20970W        W36779   7.169   9.761   3.139 -0.3245 -0.0407  0.3570
20971W        W36780  16.506   8.319  15.930  0.2512  0.1153 -0.2212
20972W        W36781   6.466  12.092   0.819 -0.1405  0.1652  0.0418
20973W        W36782  14.838   9.746  11.602 -0.1168 -0.1051 -0.0528
20974W        W36783  13.698  17.700  13.805  0.1305 -0.0805  0.1717
20975W        W36784  16.309  15.097   2.634 -0.1712  0.1537 -0.1771
20976W        W36785  17.031   9.698   1.789 -0.2513 -0.0195 -0.2267
20977W        W36786  13.614  16.646   5.783 -0.1995  0.0451  0.0205
20978W        W36787  10.857   5.578  14.046  0.1105 -0.1912  0.0272
20979W        W36788  12.155   2.929  13.167  0.1959 -0.1612  0.2276
20980W        W36789  10.017  15.739  15.947 -0.0643 -0.0618 -0.0490
20981W        W36790   6.302  17.183  12.530  0.2402  0.1938  0.1251
20982W        W36791   5.469  10.381   3.815 -0.0598 -0.0106 -0.0470
20983W        W36792   0.221  13.620  14.802  0.1989 -0.0586 -0.0692
20984W        W36793   1.715   7.467   5.295  0.1598  0.1682 -0.1024
20985W        W36794   6.396   3.511   1.180 -0.1444 -0.1373 -0.0216
20986W        W36795   6.844   6.594  11.187  0.0334 -0.0198  0.4917
20987W        W36796   8.425   9.524  11.648 -0.1454 -0.2465 -0.2382
20988W        W36797  16.045   2.461  13.956  0.0613 -0.0890  0.2960
20989W        W36798  10.003  13.307   5.062 -0.1983 -0.0832  0.2219
20990W        W36799   1.554   7.491   1.366  0.1244  0.2261 -0.0003
20991W        W36800   5.866   3.537   4.717 -0.1424  0.0353  0.1359
20992W        W36801   8.118  13.857   0.272  0.0115 -0.3744 -0.0469
20993W        W36802   9.154   2.549   0.362  0.1164 -0.2255 -0.3366
20994W        W36803   1.210   2.868   2.794 -0.1831  0.1778  0.1961
20995W        W36804  13.687  14.781   3.783  0.1160 -0.0042 -0.1895
20996W        W36805  14.666  12.334   1.552  0.1155  0.0811 -0.2394
20997W        W36806  10.373  15.168   5.727 -0.0313 -0.2579 -0.0644
20998W        W36807  13.937   8.148  12.120  0.2523  0.0396 -0.0933
20999W        W36808  16.799   7.932  15.506 -0.3181  0.3232 -0.2465
21000W        W36809   7.975  10.286   3.292  0.0579 -0.1445 -0.2386
21001W        W36810  11.896  12.826  15.930  0.0861 -0.0251  0.4188
21002W        W36811   0.640  12.120   2.001  0.0269 -0.2001  0.2342
21003W        W36812  15.725   9.975  12.086 -0.0423  0.2503 -0.0841
21004W        W36813  10.173   3.116  12.415 -0.2952 -0.1885  0.3157
21005W        W36814  13.768  13.113  12.838  0.2720 -0.2838 -0.1730
21006W        W36815   4.641  12.038  11.229 -0.2808 -0.0247 -0.3803
21007W        W36816   5.659   1.335  13.941  0.1107 -0.1114  0.0170
21008W        W36817   8.753  14.065   4.547 -0.1164  0.1778 -0.1346
21009W        W36818  12.209  15.245  13.586 -0.1080  0.1839  0.3749
21010W        W36819  11.437  17.390  12.906  0.1688  0.0014  0.0388
21011W        W36820   2.150   3.181  13.804 -0.4265  0.2262 -0.0385
21012W        W36821   2.707   3.553  16.608  0.0167  0.1711 -0.1212
21013W        W36822   2.031   9.676  13.899 -0.2710  0.0982 -0.4015
21014W        W36823   4.120   3.370   2.243 -0.1337 -0.0342  0.1430
21015W        W36824  14.499  16.015  15.357 -0.1632  0.0638  0.2187
21016W        W36825   5.062   6.163  12.586 -0.1279 -0.0622 -0.2671
21017W        W36826   4.514   3.668  14.555 -0.1379  0.0550 -0.0590
21018W        W36827  12.992  14.471  14.276  0.1717  0.2613  0.0758
21019W        W36828  13.697  15.516   4.309 -0.0946  0.2033 -0.0620
21020W        W36829   2.321   6.374  12.034  0.0036 -0.0693  0.2061
21021W        W36830  17.012   4.158  12.782  0.1705  0.0580  0.1769
21022W        W36831  10.691  16.357   3.371  0.1531  0.1494 -0.1089
21023W        W36832  12.810  16.670  16.081 -0.1280  0.1061  0.0223
21024W        W36833   6.939   9.911  11.357  0.2762  0.0138 -0.0295
21025W        W36834  10.517  17.775   6.361  0.1461 -0.1576  0.0430
21026W        W36835  11.157  14.537   4.591 -0.0731 -0.1266 -0.1867
21027W        W36836   5.647  17.004   4.318 -0.1240  0.1081  0.2136
21028W        W36837  17.241   3.912  14.680 -0.2172  0.1916  0.0690
21029W        W36838   7.517   0.266  13.555 -0.1598 -0.0076  0.1540
21030W        W36839   3.263  17.495   5.100 -0.1112  0.1544 -0.1183
21031W        W36840  12.669  16.537   2.312  0.3303  0.3043  0.1963
21032W        W36841   7.548   3.967   2.425 -0.1825 -0.0399 -0.1168
21033W        W36842  10.905   9.350  12.999 -0.0920  0.2181  0.6879
21034W        W36843   6.699  12.694  15.978 -0.0665  0.0738  0.1088
21035W        W36844  17.617  12.294   2.936  0.0287 -0.2292 -0.3508
21036W        W36845   3.306  12.441  10.762 -0.3552 -0.2242  0.0851
21037W        W36846  12.782  15.611  13.595 -0.0397  0.0932 -0.0688
21038W        W36847   2.004  13.508  14.816 -0.0432 -0.1339 -0.0349
21039W        W36848  17.002   9.625  12.655  0.0210  0.0256 -0.1100
21040W        W36849  11.801   6.503  13.821  0.0741  0.1732 -0.1148
21041W        W36850  11.430   4.409  12.609  0.0116 -0.0748 -0.0117
21042W        W36851   5.614  15.931  14.904  0.0602 -0.2117 -0.0514
21043W        W36852  13.975  16.167   4.805  0.0753 -0.0643 -0.1298
21044W        W36853   4.869  14.999  11.656  0.3114  0.0574 -0.0506
21045W        W36854   3.219  13.726  14.366  0.1499  0.4111  0.0596
21046W        W36855  17.092  17.134  16.043 -0.0024  0.0139  0.0388
21047W        W36856   8.807  10.293  14.771  0.0741 -0.0035 -0.1455
21048W        W36857  12.282   4.347  14.381 -0.0634 -0.0030  0.2400
21049W        W36858   9.594   1.769   0.815 -0.1976 -0.4190  0.1884
21050W        W36859   4.831  17.321  16.508  0.0414  0.5344 -0.1170
21051W        W36860   1.358  13.274  14.107 -0.1853 -0.1021 -0.0108
21052W        W36861   8.605   2.410  12.878 -0.2079 -0.1193  0.0446
21053W        W36862  13.344  17.360   4.622  0.3483 -0.4465 -0.0785
21054W        W36863   0.743  13.048  15.336 -0.2788  0.0601  0.2383
21055W        W36864  13.920   6.397   6.152 -0.1347 -0.0702 -0.3163
21056W        W36865   9.395   7.955  15.713 -0.2699 -0.1942  0.0184
21057W        W36866  16.902   3.721  12.360 -0.1632 -0.1450  0.0082
21058W        W36867  15.230  17.031  13.446 -0.0238 -0.2415  0.1909
21059W        W36868   3.508  15.670  14.300 -0.3372  0.0563  0.0812
21060W        W36869  10.676   6.552   1.939 -0.1252 -0.1284  0.3470
21061W        W36870   3.150   4.366   5.324 -0.2098  0.0995  0.2334
21062W        W36871   9.023  14.799  13.831  0.1745  0.0030 -0.2343
21063W        W36872  14.076  11.989   4.872 -0.1441  0.2927  0.0859
21064W        W36873   4.314  14.190   6.014 -0.0004 -0.1580 -0.0706
21065W        W36874   5.387   4.830   3.359  0.3260 -0.0411  0.0814
21066W        W36875   6.845  11.717  13.530  0.0072  0.0934 -0.0183
21067W        W36876   0.587   0.627  13.240 -0.0492 -0.0930 -0.1937
21068W        W36877   6.626  10.167  15.244 -0.0794 -0.0509 -0.2580
21069W        W36878   4.405   5.182  16.446 -0.0935  0.0758 -0.1163
21070W        W36879   5.317   7.407   2.692  0.1549 -0.0936  0.0809
21071W        W36880   2.424   7.810  13.809 -0.2634 -0.0525  0.1499
21072W        W36881   7.884   5.202   1.875 -0.1172 -0.3103  0.0808
21073W        W36882  10.870   3.530   6.100  0.1289 -0.2396 -0.0967
21074W        W36883  13.094  11.022  10.669 -0.1860  0.1901  0.1305
21075W        W36884   0.153   2.403  15.294 -0.0607 -0.1246  0.0852
21076W        W36885  12.282   8.261  15.830 -0.0195 -0.0145  0.0831
21077W        W36886  10.180   2.616   0.525 -0.0124 -0.0552 -0.0404
21078W        W36887   5.885  16.163   3.754 -0.4656 -0.1331  0.0861
21079W        W36888  13.373   8.378   0.272 -0.1184  0.2923  0.0388
21080W        W36889  14.928   0.540  16.527 -0.0301  0.1826  0.4140
21081W        W36890   9.671  14.166  14.057 -0.1200 -0.1233 -0.1123
21082W        W36891  15.617  13.869   2.253 -0.0539 -0.2200  0.1017
21083W        W36892  12.316   3.638  11.559  0.0709 -0.1704  0.1108
21084W        W36893   4.964   8.390  14.548  0.0265  0.2911  0.3735
21085W        W36894  11.577  10.574  12.969 -0.0830 -0.1913  0.3734
21086W        W36895  13.054   2.556   2.768 -0.0380  0.0934  0.0208
21087W        W36896  10.813  16.104   1.479 -0.0878 -0.1563 -0.0838
21088W        W36897   2.976   7.796  15.940  0.0173 -0.0339 -0.0111
21089W        W36898   6.673  11.697   1.115 -0.1798 -0.3101  0.0064
21090W        W36899  16.065   6.854  15.618 -0.1536  0.2449 -0.1355
21091W        W36900  16.561  12.207   4.043  0.0463  0.0573  0.1078
21092W        W36901  13.120  12.848   4.356 -0.2479  0.0025  0.0250
21093W        W36902  12.478   8.619  15.172 -0.1808  0.0374 -0.3985
21094W        W36903   5.773   2.162   1.656  0.1980  0.2807 -0.1361
21095W        W36904  12.452   3.260  16.596  0.0103  0.1374 -0.0587
21096W        W36905  17.202   0.002  12.507  0.1419 -0.1033  0.0202
21097W        W36906  10.301  15.402   6.738 -0.1372  0.0334 -0.4348
21098W        W36907  12.887  15.922   5.592 -0.2180 -0.2735 -0.4850
21099W        W36908  11.821   9.743  16.474  0.1968 -0.0162 -0.0031
21100W        W36909   1.851   0.441  14.096 -0.1759 -0.0289 -0.0944
21101W        W36910   6.148   8.011   1.724  0.0897  0.2474 -0.1168
21102W        W36911  14.598   6.784   4.654 -0.0602  0.2100 -0.1946
21103W        W36912  17.300   7.928  13.739 -0.1053  0.1073 -0.0281
21104W        W36913  15.902  14.878   6.440 -0.1579 -0.0584 -0.2455
21105W        W36914   9.171   4.532   3.293 -0.0467 -0.2942 -0.1695
21106W        W36915  15.570  11.521  15.512 -0.2348 -0.0027 -0.1779
21107W        W36916   7.878   6.518  15.000  0.1628 -0.0963  0.2617
21108W        W36917   4.735  16.058   2.589  0.3366  0.2616 -0.2863
21109W        W36918   6.744   7.688  14.741 -0.2726 -0.2729  0.0307
21110W        W36919  13.135  14.729   4.739  0.1888 -0.3486 -0.0395
21111W        W36920  12.421  16.530   3.020  0.0719 -0.1743  0.0904
21112W        W36921   1.146   4.022   2.050 -0.0619 -0.0582  0.1129
21113W        W36922  17.022   1.511   0.370  0.0896 -0.1857 -0.0020
21114W        W36923   3.629   0.523   0.041  0.0982 -0.4610  0.0851
21115W        W36924  12.054  11.038   4.262 -0.0517  0.6401 -0.0362
21116W        W36925   1.388   7.046  15.159 -0.0976  0.1001  0.0945
21117W        W36926  17.028  14.729   2.656  0.0713 -0.0357 -0.1057
21118W        W36927   7.098   1.326  11.880 -0.0806  0.0985 -0.1653
21119W        W36928   0.313   9.778  15.387  0.3182  0.2421 -0.0600
21120W        W36929   2.117  17.552  15.374  0.1719  0.0449 -0.1594
21121W        W36930  10.602   9.617   5.565 -0.0576  0.2253  0.2140
21122W        W36931   8.610  15.029  16.325 -0.1179  0.0202  0.0556
21123W        W36932   4.306   5.724  14.310  0.0726 -0.0566  0.0046
21124W        W36933  11.331  16.049   5.313  0.2230 -0.1321 -0.2898
21125W        W36934  16.905   6.880  15.263  0.0671 -0.1030  0.3776
21126W        W36935  14.199   3.739  15.369 -0.1173 -0.0916  0.0266
21127W        W36936   0.914   4.753   2.518  0.2346  0.0326  0.1171
21128W        W36937   5.975   6.894   5.334 -0.0761 -0.0153 -0.0612
21129W        W36938   2.397   9.720  12.071 -0.1675 -0.1824  0.0730
21130W        W36939  13.656  11.862  15.219  0.2828  0.1232 -0.0870
21131W        W36940   8.578  17.398  15.266 -0.0580 -0.0197 -0.0350
21132W        W36941  17.231  13.073   0.839  0.0512  0.2164 -0.0217
21133W        W36942  11.720   5.641  10.468  0.1750  0.3030  0.1096
21134W        W36943  10.407   8.335   5.446 -0.0381 -0.0623  0.1808
21135W        W36944   7.775   4.117   1.617 -0.4246  0.1051  0.1337
21136W        W36945  13.167   0.255  14.674  0.1749 -0.4524 -0.4697
21137W        W36946   0.219  14.981  12.947  0.2083  0.2763  0.5524
21138W        W36947  14.181   1.832  16.431  0.0402 -0.1188 -0.0567
21139W        W36948  12.638   8.832   3.193 -0.1287 -0.2281  0.1177
21140W        W36949   0.719   9.823  15.685  0.0698  0.1301 -0.1777
21141W        W36950   1.283   6.342  12.724 -0.0239 -0.0913  0.0486
21142W        W36951   0.848  15.973  11.562  0.1801  0.1672 -0.0785
21143W        W36952   0.154   9.210   2.956  0.2353  0.1772 -0.2397
21144W        W36953   6.709  10.315  13.028  0.2348  0.3035  0.0275
21145W        W36954  17.598  10.741  16.188 -0.0520  0.3546 -0.2404
21146W        W36955   7.854  17.444   0.952  0.0374  0.0604 -0.1500
21147W        W36956   6.115  17.316   1.444 -0.1973  0.3232  0.1193
21148W        W36957  11.361   5.078   3.437 -0.4319  0.1883  0.1939
21149W        W36958  10.275  17.275   4.896 -0.2114 -0.1251  0.2531
21150W        W36959   1.268  16.441  15.531 -0.1491  0.1208  0.0917
21151W        W36960   3.592  13.320  12.216 -0.1170  0.1100 -0.0046
21152W        W36961  13.087  13.257  15.605 -0.2685  0.0912  0.0002
21153W        W36962  14.927  17.665  15.969 -0.0018 -0.0249  0.1167
21154W        W36963  15.316  17.525   3.087  0.0835  0.2874  0.0719
21155W        W36964  10.353   6.751  14.748 -0.0797  0.1187 -0.0552
21156W        W36965  10.506  15.886   4.091  0.0323 -0.0086  0.0096
21157W        W36966  14.342  10.783   3.100 -0.2905 -0.4067 -0.0361
21158W        W36967   9.908  16.528   2.592 -0.0779 -0.1016  0.0762
21159W        W36968  15.405   0.874   2.392 -0.1464 -0.0255 -0.2194
21160W        W36969   9.540  11.939  15.377 -0.2072 -0.2641  0.0366
21161W        W36970   1.867   9.076   4.962 -0.0961 -0.2183  0.1141
21162W        W36971   5.230  10.304   4.757  0.2355  0.0580 -0.0407
21163W        W36972  13.975  13.547  15.523  0.3634  0.0499 -0.0574
21164W        W36973  13.051  14.624  16.294  0.0913  0.1933 -0.0155
21165W        W36974   6.884   4.818   0.817 -0.0763 -0.0096  0.0403
21166W        W36975   3.896   7.448   1.145  0.0996 -0.0577 -0.5542
21167W        W36976   5.760   9.371   1.305 -0.1295  0.0107  0.2532
21168W        W36977   3.319  12.062  15.320  0.1432 -0.1014  0.0195
21169W        W36978   6.424  11.542  11.179  0.0500  0.0589  0.2183
21170W        W36979  10.898  12.982   0.324  0.0258 -0.0012 -0.0554
21171W        W36980  10.872   7.096   4.866 -0.1627 -0.1697 -0.1681
21172W        W36981  13.772  15.619   0.095 -0.3294  0.0308  0.1613
21173W        W36982  17.173   5.876  15.530 -0.0370  0.0588 -0.3231
21174W        W36983  11.422   1.336   3.805 -0.3057  0.0240 -0.1496
21175W        W36984   9.820   3.620   4.096  0.0048  0.0466 -0.0949
21176W        W36985   8.698  16.599  13.312  0.1343  0.1577 -0.0219
21177W        W36986  17.770   7.193  11.993 -0.0185  0.3160  0.0344
21178W        W36987  13.703  16.861   0.837  0.1517 -0.2446  0.0368
21179W        W36988   3.125  13.076  16.425  0.1008  0.1424 -0.1349
21180W        W36989   0.142   7.464  12.637 -0.0466 -0.4392 -0.1352
21181W        W36990   2.881   8.327  15.993  0.1355 -0.0677  0.1481
21182W        W36991  13.984   9.853   3.385 -0.2664  0.0076 -0.2604
21183W        W36992  11.665   5.853  14.613  0.0866 -0.0172  0.0201
21184W        W36993  10.351  13.449  16.003 -0.3602 -0.0557  0.0513
21185W        W36994   3.689   6.520  12.622 -0.0976  0.1120 -0.3077
21186W        W36995  16.409   1.493   0.772 -0.2501 -0.0610  0.0224
21187W        W36996   7.031  17.079   3.469 -0.2659 -0.1029 -0.3713
21188W        W36997   8.099  12.091   1.913 -0.3414  0.0330 -0.2103
21189W        W36998   8.741   2.804  12.426  0.0883  0.0626  0.0936
21190W        W36999  16.322   3.752  14.613  0.2666 -0.2881  0.1055
21191W        W37000  15.585  11.129   4.965 -0.1654 -0.0575 -0.1059
21192W        W37001  13.025  10.844  12.447 -0.0780 -0.0244 -0.1019
21193W        W37002  11.324   1.123   2.849 -0.0337 -0.3264 -0.0535
21194W        W37003  10.280  14.520  15.312 -0.1595 -0.2028 -0.1524
21195W        W37004  11.750   1.917   5.167 -0.2733  0.2516 -0.0994
21196W        W37005   1.374   8.937  11.735 -0.1012  0.0648 -0.3194
21197W        W37006   3.683   6.169   1.732  0.1571 -0.2218  0.1471
21198W        W37007   1.874  13.752  11.886 -0.2760  0.0776 -0.1874
21199W        W37008   7.588  12.074   0.882 -0.1026 -0.2585 -0.0997
21200W        W37009   5.888  17.610  14.051  0.0237 -0.4820 -0.1382
21201W        W37010  16.504   8.037   4.696 -0.1629  0.0618 -0.1469
21202W        W37011   2.120   3.746  13.596  0.2562 -0.2968 -0.3151
21203W        W37012   2.250   2.981   2.738  0.3666  0.2236 -0.2065
21204W        W37013   4.963   9.122  13.521 -0.0686  0.2446  0.2084
21205W        W37014   3.881  10.213  14.401  0.2256 -0.2280 -0.0705
21206W        W37015  16.601  11.542  14.236 -0.0500 -0.2151 -0.2742
21207W        W37016   2.117  13.087   3.514  0.2398  0.0514  0.0778
21208W        W37017  14.469   5.234   1.235  0.0698 -0.2292  0.3085
21209W        W37018   5.871  12.247  15.062 -0.1284  0.2810  0.0223
21210W        W37019  14.999   6.943  12.140  0.1445  0.1925  0.0985
21211W        W37020  17.308  17.529   6.242 -0.1703 -0.1552 -0.2081
21212W        W37021  10.888   0.060   3.449  0.0487  0.1862  0.0280
21213W        W37022   0.770   8.847   4.883 -0.1359 -0.0336 -0.0139
21214W        W37023   7.303   6.221   3.526  0.1752 -0.1987 -0.0554
21215W        W37024   7.307   6.878  14.410  0.2019 -0.1277 -0.0054
21216W        W37025   5.997   5.231  14.621  0.1459 -0.1383  0.1477
21217W        W37026  17.442  11.955   4.150  0.3227  0.0261  0.1528
21218W        W37027   3.667  15.745  13.846 -0.2548 -0.0651 -0.0799
21219W        W37028   3.240   3.345   4.816  0.0371 -0.1987  0.2622
21220W        W37029   9.230   2.196  15.715 -0.1446 -0.1461  0.3496
21221W        W37030  15.416   5.229   3.384  0.0302 -0.4783 -0.1539
21222W        W37031   9.041   2.091  14.543 -0.3309  0.0383 -0.0353
21223W        W37032  16.280   3.650   5.260  0.0305 -0.0941 -0.2890
21224W        W37033   3.208   4.158  10.444 -0.2779  0.1624  0.1538
21225W        W37034  10.618  11.773   5.299  0.3327  0.2375 -0.2858
21226W        W37035   7.920  11.501   4.246  0.1989 -0.1072  0.1773
21227W        W37036   6.904   5.354   4.522 -0.2428 -0.0329 -0.2407
21228W        W37037   4.329  10.995  14.357 -0.1637 -0.1048 -0.0966
21229W        W37038  14.739   3.324  12.762 -0.0487 -0.0789 -0.0864
21230W        W37039  12.149   2.465   1.814 -0.0824  0.0727  0.0564
21231W        W37040   3.243   7.721  13.092  0.1033  0.1829  0.0176
21232W        W37041  12.648  17.605   0.811 -0.0137 -0.1185  0.0717
21233W        W37042   9.281   6.441   4.191  0.0831 -0.2086  0.0561
21234W        W37043   1.984   1.696  12.604  0.2418  0.4193 -0.2655
21235W        W37044   7.501   8.413  11.022  0.0155 -0.1436 -0.1498
21236W        W37045   6.850  13.829  16.021 -0.2191 -0.4311 -0.2316
21237W        W37046   2.399  15.755  15.183  0.2650  0.0308  0.3503
21238W        W37047  10.265  14.213   4.852 -0.3607  0.3545  0.0520
21239W        W37048   4.440  15.458  13.563  0.0544 -0.1173  0.0058
21240W        W37049   2.816  13.111   1.596 -0.1165 -0.0387  0.0221
21241W        W37050   5.053   4.761   0.412 -0.0828 -0.1004  0.0241
21242W        W37051   2.341  15.350   4.704 -0.2277  0.0479  0.0279
21243W        W37052  17.415   7.026  13.177 -0.1139 -0.1242 -0.3495
21244W        W37053   8.146  10.932   0.781  0.2941 -0.0963 -0.1551
21245W        W37054  11.845   5.846   5.722  0.1458  0.1472 -0.0989
21246W        W37055   8.372   2.754  15.905 -0.0185  0.1143  0.0512
21247W        W37056  16.521  16.475  14.580  0.2477 -0.2031  0.2103
21248W        W37057  13.558   0.635   0.246  0.0260  0.1028  0.0348
21249W        W37058  15.411   9.215   1.874 -0.1219 -0.1570 -0.0861
21250W        W37059   6.185  16.741  11.598 -0.0981 -0.2072 -0.0802
21251W        W37060   4.461   5.520   5.401  0.0663  0.1755  0.2308
21252W        W37061  12.670  14.277   5.858  0.0199  0.1650  0.2276
21253W        W37062  16.855   1.042  14.754 -0.0114 -0.0899 -0.1092
21254W        W37063  10.785  17.536  12.072 -0.2442 -0.0868 -0.0021
21255W        W37064   5.293   7.592  16.333  0.2084 -0.2069 -0.0474
21256W        W37065   1.757   0.754   2.134  0.1005  0.2031  0.3463
21257W        W37066   2.690  12.935  11.470  0.2332  0.1280 -0.0460
21258W        W37067  12.503   9.067   2.755 -0.0158 -0.2155 -0.0561
21259W        W37068  11.852   0.845  11.957  0.3198 -0.0781 -0.1754
21260W        W37069  15.614  14.029  14.748  0.1535  0.2140 -0.1172
21261W        W37070   3.618   9.010  10.730  0.1394  0.1345  0.2242
21262W        W37071  12.797   7.295   3.083  0.1172 -0.0629 -0.3003
21263W        W37072   6.571   9.899  11.993 -0.0542 -0.1860  0.1037
21264W        W37073   9.947   5.377  14.738  0.2672 -0.1295  0.1129
21265W        W37074   1.617  16.584   3.078  0.0032 -0.3469 -0.0187
21266W        W37075   5.341  12.440   4.852  0.1114  0.1625 -0.3870
21267W        W37076   1.071  12.429  14.549 -0.0394 -0.1985 -0.0303
21268W        W37077   4.961   4.980   4.230 -0.0316  0.0986 -0.1226
21269W        W37078   8.239   1.575  13.408  0.2568 -0.1498 -0.1169
21270W        W37079   8.776  15.187   1.775 -0.3760  0.1533  0.2094
21271W        W37080  16.737   1.194  15.310 -0.2076 -0.1695  0.3883
21272W        W37081   6.283   7.431  12.640 -0.0204 -0.0537 -0.0092
21273W        W37082   4.344  15.119   4.571  0.1710 -0.1262 -0.1882
21274W        W37083  10.172  11.282   1.639 -0.1574 -0.0031 -0.0455
21275W        W37084   3.674  10.623  12.382  0.0682  0.0571  0.1047
21276W        W37085  10.203  15.381   6.197 -0.2596  0.1179  0.0801
21277W        W37086  11.573  11.345   4.176 -0.1041  0.1692  0.1177
21278W        W37087   7.315   2.165  11.809  0.0137  0.2076 -0.1386
21279W        W37088  15.992   0.387   3.967 -0.0817  0.0423  0.1032
21280W        W37089  16.858   8.570   1.853  0.1930 -0.1313  0.3008
21281W        W37090  15.207   9.557   0.500  0.0216 -0.1611 -0.2714
21282W        W37091  17.611  13.178  14.288  0.2114  0.2271 -0.1009
21283W        W37092   6.394   7.580  10.222 -0.0648 -0.2362  0.0564
21284W        W37093   9.866  16.515  12.665 -0.1550 -0.0005  0.2339
21285W        W37094   2.846   3.468  15.960 -0.2409  0.0167  0.1306
21286W        W37095   6.596   2.253   0.654 -0.2950  0.2715 -0.0641
21287W        W37096   0.787  13.451  15.669  0.0843  0.0151  0.2337
21288W        W37097  13.196   4.324   0.881 -0.2034  0.3479  0.1456
21289W        W37098   4.187  10.072  10.149  0.1506 -0.1174  0.0332
21290W        W37099   5.958   1.752   4.718 -0.2006 -0.0153 -0.2002
21291W        W37100  15.671  17.258   3.249  0.2473  0.1084  0.0817
21292W        W37101   4.382  11.583   1.110 -0.0891 -0.0106 -0.0448
21293W        W37102   8.688   5.799   0.673  0.0887  0.0897  0.3107
21294W        W37103  11.521   9.197   2.596  0.1916  0.1416 -0.2229
21295W        W37104   1.042  16.301  14.685 -0.2031  0.0314 -0.2491
21296W        W37105   5.782  16.267  11.664  0.2387  0.1553  0.0306
21297W        W37106   4.627  15.508  16.544 -0.2596 -0.0283  0.3353
21298W        W37107  10.986   3.447   1.123 -0.1832 -0.4694  0.4668
21299W        W37108   9.630  10.364  11.729  0.0315  0.1085 -0.1024
21300W        W37109   7.739  10.090  16.599  0.1212  0.0804 -0.1974
21301W        W37110  16.310   3.579  15.860 -0.2451 -0.0778  0.1034
21302W        W37111   3.640  13.763  11.935 -0.1045 -0.0208 -0.1120
21303W        W37112   4.422  15.014   3.004 -0.0325  0.2148  0.2324
21304W        W37113  16.790   6.601  14.419 -0.2564  0.0214 -0.0961
21305W        W37114   2.652   0.245   1.712  0.0588  0.0140  0.0092
21306W        W37115  12.378   6.135   4.519  0.1185  0.0565  0.1906
21307W        W37116   5.702  11.277  16.588  0.0400 -0.1120  0.0854
21308W        W37117   3.744  11.200   5.468 -0.1593  0.0203  0.0171
21309W        W37118  11.804   5.284  14.285 -0.1907  0.2144  0.0269
21310W        W37119  12.922   6.175  15.789 -0.1646 -0.0142  0.4008
21311W        W37120  16.569  15.544  14.291 -0.0213  0.0615  0.1210
21312W        W37121   9.819   4.474   5.271 -0.2630 -0.2701  0.1755
21313W        W37122   0.865   9.536  11.616 -0.0190  0.3185 -0.1207
21314W        W37123   8.178   0.734  16.188 -0.2694  0.2108 -0.2616
21315W        W37124   2.827  11.160  13.032  0.1140 -0.2256 -0.1605
21316W        W37125  14.819   5.040  13.434 -0.0989 -0.1333 -0.0577
21317W        W37126  17.093  16.973   4.669  0.1355  0.1900  0.3701
21318W        W37127  14.579   5.798   4.360 -0.1734 -0.1492  0.0501
21319W        W37128  11.910   4.318  13.490 -0.0828  0.0505 -0.3367
21320W        W37129   7.824  16.747   0.202 -0.5216 -0.0487  0.0529
21321W        W37130   3.276   9.084   5.549  0.2012 -0.2456 -0.1379
21322W        W37131  13.890   5.263  14.234 -0.1957 -0.3436  0.0952
21323W        W37132   4.044   1.657  12.162 -0.2948  0.2619 -0.1848
21324W        W37133  16.135  15.394  16.270  0.0897 -0.1773  0.0596
21325W        W37134  14.471  14.205   5.988 -0.0346  0.3139  0.0871
21326W        W37135  11.116  15.487   5.845 -0.0220 -0.0644  0.1054
21327W        W37136  16.984  12.113   3.761  0.1374 -0.2768  0.0181
21328W        W37137  10.685  14.539   5.387 -0.1052 -0.1666  0.0544
21329W        W37138  14.037  16.357   4.148 -0.0978 -0.0744 -0.3701
21330W        W37139  15.824   9.020   1.662  0.1093  0.0340  0.2141
21331W        W37140  16.402   8.155   3.119 -0.2378  0.0438 -0.1304
21332W        W37141   3.717  16.782  11.847 -0.0858  0.0465  0.0892
21333W        W37142  13.761   5.242   5.431  0.0575  0.0258  0.1343
21334W        W37143   3.152   7.232   4.444 -0.1654 -0.1252  0.1441
21335W        W37144  13.043  10.287  14.722  0.1973  0.1615  0.0341
21336W        W37145   7.426  17.680  15.445 -0.1092 -0.0398  0.4237
21337W        W37146   5.526   2.438   4.501  0.2403  0.0124 -0.2474
21338W        W37147   1.971  14.377   4.411 -0.0427 -0.2048 -0.1876
21339W        W37148   8.907   7.835   2.718  0.1226 -0.1211 -0.0863
21340W        W37149   1.963   9.980  14.304  0.1126 -0.2876 -0.0463
21341W        W37150  16.804  14.286  12.791 -0.0503 -0.0947  0.1145
21342W        W37151   7.680   3.992  14.176  0.2801  0.0908  0.0101
21343W        W37152  10.475   3.238   3.551  0.3453  0.3398 -0.1677
21344W        W37153   0.917  17.932  12.793  0.1394 -0.1481 -0.0611
21345W        W37154   8.764   2.927  15.543  0.1793 -0.4166  0.0919
21346W        W37155   7.749  17.218   1.880  0.0658  0.2495  0.0958
21347W        W37156   7.854   5.609   2.254  0.1315 -0.1780  0.1185
21348W        W37157   1.925   9.824  16.503  0.1130  0.3013 -0.3962
21349W        W37158   5.497   8.891  13.760 -0.1805  0.1793  0.0437
21350W        W37159   7.268  13.013   5.539 -0.2533  0.1455  0.2825
21351W        W37160  17.754  10.875  12.870 -0.1281 -0.0917 -0.1423
21352W        W37161  13.026   9.123   3.061  0.0224  0.2982 -0.0807
21353W        W37162   7.444   3.329   4.361  0.0483  0.1063 -0.0228
21354W        W37163   1.894  14.749  14.241 -0.1349 -0.0887 -0.1057
21355W        W37164  12.913   2.111  14.584  0.1061 -0.3371 -0.3137
21356W        W37165   1.557   7.877   4.826  0.2741 -0.1762 -0.0563
21357W        W37166  17.376   2.000  14.011  0.0286  0.0214  0.2581
21358W        W37167   4.066   9.260  15.409 -0.1380 -0.1319  0.0886
21359W        W37168  16.766   3.582   5.327 -0.0977 -0.0674  0.1869
21360W        W37169   0.681  15.541  16.679 -0.1395  0.0097  0.0104
21361W        W37170   4.949   9.182   0.507 -0.1360 -0.2976 -0.1152
21362W        W37171   9.704  17.875  14.598 -0.2348 -0.1356  0.1275
21363W        W37172  14.370   3.558  12.253 -0.0760 -0.3875  0.2662
21364W        W37173   2.148   9.378   4.659 -0.1696 -0.1026  0.0388
21365W        W37174  10.156  10.688   0.317  0.1634  0.4493  0.0405
21366W        W37175   8.709   5.523   1.694  0.0235 -0.2368  0.3784
21367W        W37176   7.615  12.132   5.072 -0.2040 -0.3155  0.2189
21368W        W37177  13.336   2.751   0.144 -0.2087 -0.0834 -0.1242
21369W        W37178  11.316   9.726   4.300 -0.0724  0.1067  0.0710
21370W        W37179   0.207  12.367  11.643  0.1402 -0.1255 -0.2702
21371W        W37180  14.543   8.817   0.713  0.1471 -0.0706 -0.1814
21372W        W37181  14.848   0.817   4.847 -0.0197  0.0320  0.1993
21373W        W37182  10.254  11.325  13.311 -0.2823  0.0039  0.0983
21374W        W37183   0.990   9.635   5.345  0.0541  0.3949 -0.1215
21375W        W37184   8.652  16.161  14.694 -0.0623  0.0935  0.2110
21376W        W37185   5.261  14.832   1.644 -0.2792  0.0968 -0.0992
21377W        W37186   8.856   9.714  10.783 -0.3255 -0.1562  0.2493
21378W        W37187  15.477   4.004  15.458  0.1412  0.0212  0.1011
21379W        W37188  10.541   2.799  15.540  0.0161  0.2740  0.1746
21380W        W37189   0.740   3.172  16.620  0.1409  0.1052 -0.3184
21381W        W37190  13.621   5.584   2.194 -0.0576 -0.2707 -0.0732
21382W        W37191   9.793  13.549   2.399  0.1626  0.2893 -0.0058
21383W        W37192   6.813  14.136   0.624  0.0535 -0.3249  0.0558
21384W        W37193  10.511  17.865   1.852  0.2787 -0.2184 -0.0388
21385W        W37194   8.739  10.999  14.679 -0.2286 -0.1254  0.2186
21386W        W37195   8.825   9.061  11.592 -0.1639  0.0004  0.3690
21387W        W37196  17.868   7.930  11.715 -0.1224 -0.2044  0.0586
21388W        W37197   0.311   8.566  12.429 -0.0965  0.0086  0.0352
21389W        W37198  16.514  12.561  14.678  0.1475 -0.0194  0.1688
21390W        W37199  14.694  10.450   2.991 -0.1536  0.0039 -0.0521
21391W        W37200   0.585   6.681   4.462  0.1070  0.2769  0.3010
21392W        W37201  13.483   8.775   3.412 -0.1125 -0.2558 -0.0069
21393W        W37202   8.090   6.770   3.409  0.1751 -0.3414 -0.0238
21394W        W37203   2.392  15.614   0.044 -0.2048  0.1095  0.1331
21395W        W37204  11.388  11.045   4.972  0.1154  0.0808 -0.1465
21396W        W37205   0.623   9.082   3.170  0.0372  0.3286 -0.0155
21397W        W37206   7.979  15.478  11.827  0.0229  0.2206 -0.0691
21398W        W37207   8.599  17.574  12.204  0.0622 -0.1855  0.0049
21399W        W37208  14.985   4.460   1.598  0.1857 -0.2589 -0.1624
21400W        W37209   2.884  17.058   1.378  0.0733  0.1790 -0.2162
21401W        W37210   4.771   8.182  11.614  0.1669  0.1683  0.1182
21402W        W37211   4.507   8.566   0.890 -0.0193  0.1269  0.1080
21403W        W37212   3.547  12.754  16.206  0.1505 -0.1117  0.0152
21404W        W37213  10.941  14.351   1.137  0.0218  0.2124  0.0280
21405W        W37214  15.998  12.018  13.402 -0.1349 -0.0431  0.1364
21406W        W37215  13.790  15.041   0.685 -0.1061 -0.0660  0.0634
21407W        W37216   9.047   3.187  12.601 -0.0771 -0.0427  0.0625
21408W        W37217   6.970  15.108   4.066  0.0417 -0.3775  0.1675
21409W        W37218   9.012  17.409   5.188  0.1050  0.1365  0.0946
21410W        W37219  13.218   0.587  15.491  0.2455  0.0635  0.0536
21411W        W37220   8.258   5.263   5.627 -0.4357  0.1795 -0.2579
21412W        W37221   3.972   3.878  16.199 -0.2299  0.0804 -0.2450
21413W        W37222   5.279  14.392  11.235 -0.0100  0.2154 -0.0917
21414W        W37223   4.636   9.719  14.648 -0.1208 -0.1310 -0.0461
21415W        W37224   6.916  17.600  15.759 -0.0833 -0.1126  0.1985
21416W        W37225  16.311  14.358   4.962  0.2351  0.2874 -0.2218
21417W        W37226  10.000   4.114   2.509 -0.0818  0.0581 -0.0800
21418W        W37227  12.396  13.230   4.761  0.0472 -0.0486  0.0995
21419W        W37228   7.532   7.661   2.633  0.0213 -0.1411 -0.2610
21420W        W37229  16.172   0.454   0.746 -0.1393  0.3508 -0.0332
21421W        W37230   1.037   6.923  13.576 -0.1760 -0.1363 -0.0821
21422W        W37231   1.145   1.807   2.181  0.0062  0.2260  0.0213
21423W        W37232  16.238   4.507  13.874 -0.0653 -0.4291  0.3465
21424W        W37233  12.677   5.762  11.769  0.1420 -0.0577 -0.1731
21425W        W37234   6.544  13.036   2.385 -0.0163  0.1280  0.1792
21426W        W37235  11.760  10.720   1.736  0.1281 -0.0015 -0.0116
21427W        W37236  15.304   4.916  12.199  0.0749  0.1865  0.1422
21428W        W37237  10.362  16.636   0.900 -0.0794  0.2431 -0.0970
21429W        W37238  17.771   9.455   6.339  0.2701 -0.1838 -0.0339
21430W        W37239  16.358  12.050   2.485  0.2008  0.2946  0.0186
21431W        W37240   3.378   1.418  11.796 -0.3052  0.3174 -0.2351
21432W        W37241   7.754  14.443   0.756  0.2294 -0.1010  0.1499
21433W        W37242   4.817   7.461   5.220 -0.0173 -0.1923  0.1079
21434W        W37243  16.323   2.877   1.330  0.2690  0.3026 -0.2708
21435W        W37244   7.137   4.663   5.587 -0.0325  0.0105 -0.2426
21436W        W37245  14.553  10.596  15.813  0.1818  0.0678  0.2908
21437W        W37246   4.509  11.791   1.534  0.0632  0.0416 -0.0316
21438W        W37247   8.233   2.840  13.655  0.0255 -0.0230  0.0264
21439W        W37248   9.518   7.960  16.659  0.0290  0.2090  0.1490
21440W        W37249  10.342   5.004  14.483  0.1186 -0.1492  0.0097
21441W        W37250  17.021   4.070   3.086  0.2189  0.2752 -0.0489
21442W        W37251  12.264   5.212   4.000  0.2214 -0.1713  0.0943
21443W        W37252   6.721  11.227   3.958 -0.0926 -0.1389 -0.2337
21444W        W37253   7.747  14.720   5.716  0.2240 -0.0216 -0.1068
21445W        W37254  17.086  14.241   2.587  0.0199  0.0878  0.1926
21446W        W37255  17.121  15.099   4.832 -0.0408  0.0842 -0.1845
21447W        W37256  16.765   3.848   2.724  0.0221 -0.0273  0.0173
21448W        W37257  16.698  16.880  11.333  0.0850 -0.0159  0.1388
21449W        W37258  12.975   1.341  11.236  0.2142 -0.1664 -0.1822
21450W        W37259   4.384   6.789   0.009  0.0489 -0.1642 -0.1241
21451W        W37260  13.464  11.312   3.627  0.1923 -0.0955 -0.2671
21452W        W37261  16.846  12.760   2.883  0.1350  0.1947 -0.0486
21453W        W37262   3.744   1.060   1.018 -0.1761 -0.2800 -0.0353
21454W        W37263   6.010  15.050  12.317 -0.0765 -0.3799  0.0555
21455W        W37264  11.791  13.558  14.702  0.1432  0.0162  0.1167
21456W        W37265   5.307   4.017  12.354 -0.4279 -0.3036 -0.2292
21457W        W37266   5.982   1.283  15.007 -0.0546  0.0278 -0.1288
21458W        W37267   2.177   4.381   1.232 -0.0234  0.2377 -0.2396
21459W        W37268   1.418   1.166   0.289  0.0379 -0.0045 -0.0420
21460W        W37269   3.676   7.971   4.458 -0.1304  0.0434 -0.1109
21461W        W37270  10.425   9.093   2.335 -0.1550  0.0918 -0.0532
21462W        W37271   2.607   1.973  14.405 -0.0785 -0.1393 -0.2489
21463W        W37272   5.013   9.934   2.925  0.0694  0.4687  0.1340
21464W        W37273  13.482  11.575   3.144  0.2767 -0.1044  0.0668
21465W        W37274   9.467  13.274   3.750  0.2158  0.0910  0.1104
21466W        W37275  11.412  16.185   3.919 -0.0202 -0.2983  0.2682
21467W        W37276  11.365   4.455  15.582  0.3581  0.0179 -0.4426
21468W        W37277   8.861   3.486   4.959 -0.0013 -0.1575  0.2324
21469W        W37278   6.522   3.409  13.841  0.0783  0.0960  0.1000
21470W        W37279  17.063   5.451   1.457  0.0874  0.2485 -0.1812
21471W        W37280   4.028   9.709   6.062 -0.1711  0.2832  0.1139
21472W        W37281   3.461   8.556   2.241  0.0857 -0.0182 -0.1104
21473W        W37282   1.297   2.796   0.750  0.0365 -0.0263  0.1557
21474W        W37283  15.669   9.342   0.721  0.0349 -0.0980  0.1339
21475W        W37284  15.676  17.110  15.888  0.1088  0.0790  0.2180
21476W        W37285   0.052  12.363   4.970  0.1098 -0.0684 -0.1875
21477W        W37286   5.545   8.408   5.357 -0.0260 -0.1373 -0.0014
21478W        W37287   9.336   0.285  12.893 -0.1383  0.2034 -0.0236
21479W        W37288  13.399   3.518  12.351 -0.3284 -0.0671  0.1343
21480W        W37289  13.202   6.536  11.343 -0.3572  0.1854 -0.0411
21481W        W37290   2.940  15.390  11.838  0.2004 -0.0093  0.1917
21482W        W37291   4.416   4.948   2.861  0.0806  0.0834  0.2062
21483W        W37292   1.684   3.350   4.900 -0.1452  0.0045  0.1181
21484W        W37293   9.054  16.109  15.724 -0.1936  0.3284 -0.1965
21485W        W37294  15.325  15.563  11.692  0.5455  0.2729  0.2780
21486W        W37295   1.998  11.151   1.063  0.0180  0.1166  0.1033
21487W        W37296  13.450  11.980  11.657 -0.2388 -0.1277  0.0179
21488W        W37297  10.598   1.792  15.389 -0.2948 -0.0677  0.2982
21489W        W37298   5.958   5.724  15.911 -0.0488  0.2342  0.4173
21490W        W37299   3.230   2.675   5.521 -0.0823  0.1324  0.1545
21491W        W37300  13.013   5.584  13.182 -0.1344  0.1477  0.1885
21492W        W37301  14.714  11.352  11.768  0.1529  0.0626 -0.3027
21493W        W37302   7.252   6.451   5.129  0.4449 -0.0041 -0.1341
21494W        W37303  12.722   7.917  12.668 -0.1669  0.0222  0.2273
21495W        W37304   1.483  15.080   0.074  0.1187  0.1113 -0.1302
21496W        W37305   7.649   6.157  16.195 -0.0284 -0.2861  0.0714
21497W        W37306  16.643   3.632  13.552  0.4210 -0.0394 -0.1392
21498W        W37307   5.060   9.278   2.487  0.0138  0.1290 -0.0888
21499W        W37308  10.631   4.001  13.003  0.0803 -0.0816  0.4005
21500W        W37309   1.501  15.442   0.446  0.2297  0.1441 -0.1122
21501W        W37310   7.655   9.001  13.942  0.1128 -0.0906 -0.0168
21502W        W37311   5.819  11.520   2.993 -0.2191 -0.2004  0.2757
21503W        W37312  14.935   1.932  11.833 -0.1267 -0.1045  0.2548
21504W        W37313   2.499  16.380  12.424  0.0262  0.2567  0.4735
21505W        W37314  13.479  17.339   0.864  0.0772  0.0409  0.0207
21506W        W37315   6.630   6.891  13.240  0.2355 -0.1345  0.1709
21507W        W37316  14.894   9.964  12.054 -0.0597  0.2353 -0.0596
21508W        W37317  16.125   7.831  16.523  0.0799 -0.1896  0.1167
21509W        W37318   6.139   3.161  13.577 -0.2537  0.0424  0.0429
21510W        W37319   4.798  17.273  15.187 -0.0126 -0.1448 -0.3769
21511W        W37320   7.973  10.340  12.464 -0.1482  0.0459 -0.1821
21512W        W37321   8.613  14.881  13.359  0.2878  0.1385 -0.0282
21513W        W37322   7.477  13.724   2.350  0.0761 -0.0010  0.0169
21514W        W37323   4.296  10.879  11.663  0.3842 -0.2119  0.0657
21515W        W37324   1.863   1.300   5.569 -0.0831 -0.1673  0.0792
21516W        W37325   3.476   4.744   4.630 -0.1104  0.1616  0.0218
21517W        W37326   0.168   1.696  11.263 -0.0996 -0.0612  0.2569
21518W        W37327   7.888  15.118   3.038  0.1169  0.1692 -0.1288
21519W        W37328  14.808  13.784   1.554  0.2858 -0.1381  0.2221
21520W        W37329   8.378  17.405   4.264  0.1712  0.0492  0.3282
21521W        W37330   9.405  13.138   0.270  0.0126  0.5007  0.0718
21522W        W37331  16.102  16.914   4.564 -0.2215  0.2059 -0.1455
21523W        W37332   9.869  11.427  13.820 -0.1354 -0.0651 -0.1673
21524W        W37333   8.507   3.213  12.791  0.0708 -0.0117 -0.2216
21525W        W37334  16.730  11.773   0.874  0.1304  0.2307 -0.0755
21526W        W37335   1.056   6.665  15.693 -0.2729 -0.4377 -0.0979
21527W        W37336   9.619   3.623  12.025 -0.0507 -0.0648 -0.0351
21528W        W37337   0.887  12.005  16.322 -0.1864  0.0612  0.2673
21529W        W37338   1.664   8.287  14.235  0.0814  0.1253 -0.1778
21530W        W37339  11.251  10.858   3.261  0.0682 -0.5077  0.1879
21531W        W37340  13.865   4.086   5.137  0.0840 -0.1647 -0.1050
21532W        W37341  12.252   7.378  14.469 -0.2794 -0.0106  0.0685
21533W        W37342   0.903  11.929  11.849  0.1199 -0.4851  0.1491
21534W        W37343  10.388  15.625   2.477  0.0320  0.1059  0.4651
21535W        W37344  10.473   6.999   3.769  0.2752 -0.1138  0.0926
21536W        W37345  11.378   5.481  14.060 -0.2656  0.3201 -0.1103
21537W        W37346  17.195   8.849  11.653  0.0667  0.0717  0.0739
21538W        W37347  14.202   5.767  15.031  0.0272  0.0278 -0.1391
21539W        W37348  12.267   9.380  16.529  0.0792  0.0865  0.2179
21540W        W37349  10.210  13.507  11.577  0.1556  0.0864 -0.0270
21541W        W37350  12.372   7.447   3.999 -0.1555  0.2163 -0.0681
21542W        W37351   6.477   1.111   5.011 -0.0381 -0.0179  0.1276
21543W        W37352   5.849   4.407   5.634 -0.1386 -0.1445 -0.0026
21544W        W37353   7.211   3.872   3.153  0.0996 -0.1370  0.0419
21545W        W37354   2.862   8.872  14.709  0.2415 -0.1263 -0.0654
21546W        W37355  11.662   8.155  13.018  0.0556  0.0659  0.0086
21547W        W37356   2.038   0.711  15.612  0.0023 -0.2563 -0.1458
21548W        W37357   6.184  13.809  16.091  0.0434 -0.0707 -0.1222
21549W        W37358   8.368   3.483  16.172  0.2947  0.1369 -0.0176
21550W        W37359   8.824  15.041  12.938 -0.0940  0.0920  0.0228
21551W        W37360  14.387  14.446  11.417 -0.1010 -0.2882 -0.5332
21552W        W37361  10.426   9.926   3.364  0.1137 -0.0058  0.1272
21553W        W37362   3.909  10.180   1.998 -0.1247 -0.1271 -0.0233
21554W        W37363   7.730   3.577   1.560  0.1844  0.2245 -0.0786
21555W        W37364  17.311   8.567  15.260 -0.1068 -0.2206 -0.0420
21556W        W37365   7.035  13.214  14.349 -0.2987  0.4191 -0.1633
21557W        W37366   5.375  11.331   1.639  0.0827  0.1227  0.4307
21558W        W37367   2.711   0.233   2.865 -0.2118 -0.0401 -0.3679
21559W        W37368  14.908  17.391   2.715  0.4158 -0.2315 -0.3149
21560W        W37369   1.507  16.294   2.204  0.0391 -0.2974  0.2809
21561W        W37370   8.115   0.890   4.641 -0.1184  0.1568 -0.0030
21562W        W37371   7.066   4.781  16.480 -0.0217 -0.1760  0.1292
21563W        W37372   7.446   3.299   1.904 -0.0729  0.2172  0.3875
21564W        W37373   2.866  10.346  16.054 -0.0276 -0.0645 -0.2532
21565W        W37374   4.263   3.281  11.640 -0.0820 -0.2914 -0.2622
21566W        W37375   8.980   0.959   3.829  0.2793 -0.1628  0.1728
21567W        W37376  16.385   1.168   1.175 -0.0076 -0.0293  0.0563
21568W        W37377   6.301   4.040   4.923 -0.0344 -0.0061 -0.1176
21569W        W37378   9.945   6.052   1.757  0.2739 -0.0135 -0.2243
21570W        W37379  16.798  16.975  15.098 -0.3191 -0.1512  0.1100
21571W        W37380   5.877   5.444  15.359  0.0304  0.1745  0.1057
21572W        W37381   0.097   8.808   2.633  0.2570  0.0114 -0.2895
21573W        W37382  17.926   1.596  14.969  0.2316  0.0997  0.0044
21574W        W37383   0.399  11.941  16.283 -0.0526  0.2678  0.1312
21575W        W37384   3.374  12.957   1.325  0.1175 -0.0181 -0.0653
21576W        W37385   6.649   9.149   5.194 -0.0045 -0.0555  0.1847
21577W        W37386  13.700  15.826   0.974 -0.2135 -0.1290  0.0938
21578W        W37387   2.581   6.696   2.873  0.2077 -0.2590 -0.2919
21579W        W37388   2.028  14.471   3.758  0.1033 -0.3775  0.2272
21580W        W37389   6.540   7.241  14.458 -0.2030  0.0750 -0.1604
21581W        W37390   1.065   5.111  13.195  0.3472  0.0351 -0.0531
21582W        W37391   8.372  15.239   3.821  0.2369 -0.1456 -0.1059
21583W        W37392   8.329  14.254  16.190 -0.0443  0.0990 -0.0584
21584W        W37393  13.627   5.845  16.280  0.0362  0.1362  0.1206
21585W        W37394   1.396   6.305  12.237 -0.0562  0.1129 -0.0788
21586W        W37395   1.720   4.723   2.170 -0.2508 -0.2043  0.0325
21587W        W37396   1.425  13.489  11.760 -0.2803 -0.3638  0.3705
21588W        W37397   2.843  13.096   4.687 -0.1235  0.3343  0.0396
21589W        W37398  13.993   9.316   0.027  0.0205  0.0659  0.1304
21590W        W37399  12.608  17.014   2.293  0.2370  0.1197  0.1907
21591W        W37400  15.169  12.675   0.803 -0.3411 -0.3690  0.0371
21592W        W37401   9.292   4.998   4.106  0.0082 -0.2312 -0.1488
21593W        W37402  15.860   8.242   2.862 -0.1174  0.2059 -0.0056
21594W        W37403   2.536  13.429   4.343  0.3000 -0.1888 -0.1700
21595W        W37404  14.976   3.094   3.269 -0.2932 -0.2891 -0.0634
21596W        W37405   2.827  13.821   0.749  0.1517  0.4369  0.1064
21597W        W37406   6.009  16.286   3.221 -0.1080 -0.1027  0.1771
21598W        W37407   0.507  15.004  11.921  0.0249  0.0950 -0.0337
21599W        W37408   0.146   2.346  16.457  0.0599  0.2370  0.0908
21600W        W37409  10.207   4.088  15.002 -0.0331  0.0775 -0.0653
21601W        W37410  11.170  13.124  13.514 -0.1162  0.0178 -0.1666
21602W        W37411   3.928  15.764  15.756 -0.1020  0.2655 -0.3162
21603W        W37412   0.020   9.809  12.862 -0.2332 -0.3022 -0.1702
21604W        W37413   2.762   9.238  15.761 -0.0215 -0.1703 -0.3746
21605W        W37414   1.355   3.613   3.862  0.1718  0.0157 -0.6664
21606W        W37415   2.408  11.237  15.202 -0.0212  0.0113  0.0622
21607W        W37416  12.612   3.629  12.018  0.1703  0.2449  0.0652
21608W        W37417   0.214   0.927   1.789 -0.1091 -0.0848 -0.1745
21609W        W37418  11.925  10.568   5.562  0.0915  0.0828  0.0348
21610W        W37419   3.999  11.099  14.725  0.1160  0.1834  0.1164
21611W        W37420   7.210  13.164  16.467  0.1145  0.3900 -0.0979
21612W        W37421   6.492   4.581  13.504  0.0801 -0.0409 -0.2451
21613W        W37422  17.030   8.208   0.949  0.1835 -0.0754 -0.0960
21614W        W37423  16.006   3.719  11.909 -0.2408  0.0996 -0.0611
21615W        W37424   4.556  16.410  16.181  0.3468  0.3827  0.0564
21616W        W37425  13.636  16.338  13.046  0.1343 -0.0625 -0.1503
21617W        W37426   1.580   0.980   1.713  0.1810  0.1930  0.0189
21618W        W37427  12.982   6.446  15.031 -0.1712 -0.2238 -0.0426
21619W        W37428  12.527  10.010   4.450 -0.0792 -0.1316 -0.2392
21620W        W37429  17.788   1.655   0.643  0.2368 -0.2963  0.1998
21621W        W37430   1.166  15.178  12.211 -0.3347  0.1956 -0.0699
21622W        W37431   2.298   3.855  11.541 -0.0200  0.3211 -0.0694
21623W        W37432   8.846   5.238   4.389  0.3160 -0.1140  0.0981
21624W        W37433   7.371   2.819   2.538 -0.0478 -0.2700 -0.2743
21625W        W37434   6.883   6.673  15.151 -0.2020  0.0987 -0.2683
21626W        W37435   0.997  14.387   4.234 -0.1907 -0.3493  0.1034
21627W        W37436  17.293   3.669   1.869 -0.0275  0.2213 -0.1213
21628W        W37437   4.995   5.971   4.758 -0.2219  0.1754 -0.1166
21629W        W37438   6.277   7.489   1.619 -0.2544  0.0827  0.3019
21630W        W37439   5.383   0.467   0.764 -0.3468 -0.1150  0.1482
21631W        W37440   8.359  13.176  13.647  0.0829  0.1618 -0.1039
21632W        W37441  11.144  13.643   4.641 -0.0742 -0.0273  0.0123
21633W        W37442   9.665  15.552   3.710 -0.0952  0.1748 -0.1536
21634W        W37443  17.839  15.943   0.865 -0.2743  0.3355  0.2182
21635W        W37444   6.312   4.495  12.855  0.0859 -0.2813  0.3268
21636W        W37445   0.096  12.938   3.662 -0.1581 -0.0761 -0.3296
21637W        W37446  15.947  15.693   1.049  0.1164 -0.1113  0.0944
21638W        W37447  13.244  15.502  10.649 -0.1125 -0.2002 -0.1910
21639W        W37448  15.425  15.349   5.745  0.0238 -0.0083  0.0650
21640W        W37449   6.771   6.384   0.623 -0.1039 -0.1512  0.2182
21641W        W37450   3.153  16.556   0.471  0.2187 -0.0140  0.0822
21642W        W37451  12.618   0.859  11.541 -0.1648  0.1175  0.2229
21643W        W37452   8.738  16.091   1.557  0.0233  0.1025  0.1071
21644W        W37453  11.144  17.956  14.539  0.0428  0.1435  0.2505
21645W        W37454  16.845   9.931   3.432  0.1181 -0.1391 -0.2002
21646W        W37455  10.104  16.265  15.860 -0.0523  0.0518  0.1357
21647W        W37456   2.263  10.407  14.239 -0.1795  0.3180  0.5090
21648W        W37457  17.766   9.758  15.693  0.0692  0.0465 -0.0185
21649W        W37458   5.347  12.742   5.309  0.1063 -0.0195  0.1644
21650W        W37459   2.629  10.219   2.688  0.2167  0.0735 -0.1400
21651W        W37460   3.971   4.657   1.282  0.1888  0.1229 -0.2325
21652W        W37461   6.322  16.677  15.767  0.2126 -0.1129  0.0421
21653W        W37462   3.344   2.513   3.001 -0.0642 -0.0371 -0.0646
21654W        W37463   1.474   5.074   6.171  0.2352  0.2435 -0.3064
21655W        W37464   8.072  15.759  13.773  0.1688 -0.1822  0.1571
21656W        W37465   3.524  15.027   5.105 -0.2571 -0.0304  0.5108
21657W        W37466   7.030   8.725   4.104  0.0005 -0.2971  0.0315
21658W        W37467  12.141  13.414   3.124  0.0049  0.2010 -0.0549
21659W        W37468   0.419  13.106  12.301 -0.1060 -0.0657  0.0047
21660W        W37469  13.717   6.581  12.936  0.1630 -0.0122 -0.1015
21661W        W37470   2.411   9.624   2.640 -0.2239  0.1595 -0.0905
21662W        W37471  12.081   6.112   1.405 -0.1387  0.0192 -0.1411
21663W        W37472  10.986  15.484   4.509  0.2113  0.1086  0.1291
21664W        W37473   4.708   4.602   4.876  0.0569  0.0176  0.0177
21665W        W37474   4.939   7.032  10.377 -0.2315 -0.1048  0.1906
21666W        W37475   9.212   3.821   0.411 -0.2183  0.2116 -0.2203
21667W        W37476  11.253   0.283   0.046  0.0183  0.2464 -0.1317
21668W        W37477  17.639   0.475  11.612 -0.2834 -0.1399 -0.0046
21669W        W37478   0.611  17.574   0.887 -0.0702  0.0903 -0.1625
21670W        W37479   1.520   1.174  13.017 -0.0550 -0.0720 -0.1631
21671W        W37480   8.867  13.367  15.010 -0.2904 -0.1560 -0.1358
21672W        W37481  15.493  15.021  13.969  0.5940 -0.0620  0.1741
21673W        W37482   4.997  15.583  13.626 -0.1906  0.0332 -0.0697
21674W        W37483   5.925   9.897   0.260  0.0008 -0.0753  0.0120
21675W        W37484  13.229  15.433  14.343  0.0880 -0.0754  0.3570
21676W        W37485  16.035  10.138  11.698  0.3671 -0.0884 -0.1349
21677W        W37486   5.753  10.350  13.695  0.0859 -0.0976 -0.0226
21678W        W37487  12.607   6.686  12.196 -0.1403 -0.0158  0.1791
21679W        W37488   6.440   2.300  13.148 -0.0275 -0.3224 -0.0670
21680W        W37489   4.223   3.390  13.764  0.1547  0.3095 -0.0643
21681W        W37490  14.358  17.640  14.282  0.0913 -0.0340  0.1837
21682W        W37491  16.967  10.702  15.706 -0.1126  0.2989  0.3272
21683W        W37492  13.432  10.079  12.750  0.2743 -0.1466 -0.0399
21684W        W37493   0.553   4.315  13.447  0.0248 -0.0179 -0.0031
21685W        W37494   5.686  10.695  11.433  0.1899  0.0527 -0.2416
21686W        W37495   8.947   7.861  14.848 -0.1220  0.2333  0.2969
21687W        W37496   2.548   3.346   5.569  0.1081 -0.1719 -0.0746
21688W        W37497   6.872   3.363   4.548  0.0868 -0.2352 -0.1737
21689W        W37498   4.430  10.394   1.902 -0.0288 -0.0510 -0.0080
21690W        W37499  11.026  14.025  11.635 -0.0038 -0.0768  0.0572
21691W        W37500   9.681  13.160   2.806 -0.1706  0.2181  0.2055
21692W        W37501   0.692  17.765  14.325 -0.0173 -0.0423 -0.1123
21693W        W37502   1.870  17.403   3.275  0.1967 -0.2595 -0.3355
21694W        W37503  17.944   7.236  16.077 -0.0551 -0.0095  0.0752
21695W        W37504  11.394  11.792  13.729  0.2962 -0.0529  0.0527
21696W        W37505  10.309  17.935   0.800  0.0666 -0.2191  0.0892
21697W        W37506   4.380  12.877  11.894  0.0877 -0.2252  0.3307
21698W        W37507   7.037   8.967  11.656  0.2043 -0.1549  0.1338
21699W        W37508  10.841  13.173   3.812 -0.0292  0.0161 -0.3752
21700W        W37509  10.352  13.505   3.652  0.0200 -0.0514  0.0317
21701W        W37510   8.296   1.506   1.595  0.1845  0.0106  0.0080
21702W        W37511   8.593   2.378   3.273 -0.0462 -0.0968  0.1722
21703W        W37512   0.503   4.454   2.554  0.0027  0.1881  0.2422
21704W        W37513  11.842  10.394  13.364 -0.0120 -0.2737 -0.1460
21705W        W37514   3.863   1.865   4.056 -0.0872 -0.3083  0.1064
21706W        W37515  12.333  17.684  14.877 -0.0611 -0.0850  0.0226
21707W        W37516   9.558   0.124  15.065  0.1817  0.0812 -0.4202
21708W        W37517   7.729  12.481   1.830  0.2013  0.2042  0.1280
21709W        W37518  12.172  17.278   1.428 -0.0729 -0.2203 -0.3698
21710W        W37519  15.031   9.953   2.123  0.1307 -0.1484  0.0703
21711W        W37520  14.093   7.598   2.200  0.1695  0.1309 -0.0627
21712W        W37521   8.319   6.616   1.773  0.2935  0.0287 -0.1723
21713W        W37522   2.279  17.576  12.046 -0.2341 -0.1013 -0.0156
21714W        W37523  17.178   0.768  16.663 -0.1702  0.0900  0.1458
21715W        W37524   2.824   8.350   4.117 -0.3173 -0.2962  0.4617
21716W        W37525   6.656   7.234   2.318 -0.0982 -0.3245 -0.1523
21717W        W37526  11.238   9.104  14.980 -0.3619 -0.0842  0.1290
21718W        W37527   8.701  11.197   3.722 -0.0322  0.0976 -0.1880
21719W        W37528  17.575   9.365   1.013 -0.0959  0.3252 -0.2497
21720W        W37529  15.781   7.757   5.280  0.0205  0.0026  0.0786
21721W        W37530  12.854  17.519  12.642  0.1533 -0.0624 -0.0888
21722W        W37531   3.780  17.826   5.540 -0.2940  0.1272  0.1733
21723W        W37532  13.861  16.861   4.147 -0.1126 -0.2089 -0.0445
21724W        W37533  16.731   3.195   3.496  0.2697  0.0124  0.1555
21725W        W37534   6.272   5.639  12.773 -0.1377  0.1195 -0.5080
21726W        W37535  11.731  15.142   1.857  0.0200  0.1237  0.0435
21727W        W37536   8.933  12.368   0.725 -0.0146  0.3478  0.1056
21728W        W37537  13.746   9.074  13.818  0.1280 -0.0847  0.0534
21729W        W37538   7.754  16.538   5.065 -0.1255  0.0567 -0.0887
21730W        W37539   9.918   9.225   3.066 -0.0416  0.3200  0.0376
21731W        W37540  13.855  13.443  13.921 -0.2502 -0.1654  0.2638
21732W        W37541  16.861   0.326  15.663 -0.1122  0.2642  0.2068
21733W        W37542  10.074  11.520  12.800 -0.1745  0.2057 -0.0493
21734W        W37543   6.308   5.974  16.186 -0.1185  0.0404  0.0976
21735W        W37544   9.229   2.993   4.231  0.4356  0.0054  0.1014
21736W        W37545   4.078   4.983   5.412  0.2996  0.0526 -0.3961
21737W        W37546  14.662   5.441  15.876 -0.4051  0.0542  0.0724
21738W        W37547   2.197  12.423  15.345  0.0313  0.2160  0.2622
21739W        W37548   6.067   8.029   0.677 -0.0095  0.3896  0.1023
21740W        W37549   5.819   3.765  12.423 -0.1223  0.0147  0.1247
21741W        W37550   8.926   6.595  12.388 -0.0359 -0.0860  0.2023
21742W        W37551  11.588   2.296   5.650  0.1499  0.0166  0.3488
21743W        W37552  17.319  16.693  16.208  0.3213  0.3808 -0.0580
21744W        W37553  13.832   1.911   5.342 -0.1399  0.0403 -0.4149
21745W        W37554   5.289   8.782   0.620  0.2110 -0.2387 -0.1472
21746W        W37555  16.186   0.490   4.423 -0.0598 -0.0839  0.1565
21747W        W37556  17.250   3.306   3.548  0.0398 -0.0232  0.3235
21748W        W37557  10.078  15.265   3.554  0.1056 -0.1986  0.2165
21749W        W37558   7.400   7.351   3.636  0.3216  0.0808  0.0613
21750W        W37559   5.592   7.247  11.494 -0.2474  0.1690 -0.0223
21751W        W37560   3.342   8.395  13.798 -0.1516  0.2934  0.0766
21752W        W37561  15.443  16.383  12.595 -0.1927  0.2035  0.0357
21753W        W37562   5.575   3.602   0.725 -0.1721 -0.3380 -0.1590
21754W        W37563   1.798   2.787   4.842  0.0332 -0.3475 -0.0099
21755W        W37564   8.035  13.607   0.917  0.1676  0.0469  0.0977
21756W        W37565  13.130   6.450   4.407 -0.2478  0.0897  0.1111
21757W        W37566   5.111  15.037  12.761  0.2630 -0.0351  0.1026
21758W        W37567   6.291  15.456  11.938  0.3241  0.1249 -0.1009
21759W        W37568  13.548  16.387   6.431  0.4263 -0.1462 -0.1279
21760W        W37569   5.842  17.767  11.442  0.0140 -0.2085 -0.1198
21761W        W37570   2.443   5.543  11.705 -0.1523  0.2998 -0.0400
21762W        W37571  16.718   4.592   5.055 -0.1580  0.0882 -0.0110
21763W        W37572  17.074  13.120  16.251 -0.1346 -0.0184 -0.2361
21764W        W37573  11.438  10.049   0.848 -0.3664 -0.1709  0.1939
21765W        W37574   3.187  16.373   5.964 -0.0911  0.0920 -0.0149
21766W        W37575   8.024   8.229  13.507 -0.1328  0.0051  0.1445
21767W        W37576   4.582   4.893  13.582  0.0757 -0.0231 -0.0046
21768W        W37577   4.287   0.219   2.129 -0.1585  0.3056 -0.1695
21769W        W37578   5.282  13.886  16.601 -0.4766 -0.2764 -0.1714
21770W        W37579   6.526  14.131  15.190  0.1001 -0.1858 -0.0974
21771W        W37580  13.742   6.955  10.622  0.0293  0.0574 -0.0195
21772W        W37581   3.698   9.553  16.129 -0.2702  0.0440  0.3923
21773W        W37582   7.194  13.069  13.462  0.1235  0.1075  0.0314
21774W        W37583   0.852  16.151   0.850  0.0519 -0.3088 -0.1727
21775W        W37584  10.740   0.813  12.354 -0.0894 -0.0354  0.2371
21776W        W37585   5.943   2.181  15.319 -0.0210  0.2837 -0.1754
21777W        W37586   2.469  14.969   3.938  0.2339  0.0970 -0.1659
21778W        W37587   6.388  17.206   2.260  0.2246  0.1679  0.2261
21779W        W37588   3.945  17.569  16.527 -0.0241  0.0233  0.0792
21780W        W37589   7.778  17.055  16.552 -0.2200  0.0341 -0.5453
21781W        W37590   8.318  12.890  14.630  0.1415  0.0283  0.1259
21782W        W37591   8.791   5.712  13.297  0.0933 -0.0307  0.0621
21783W        W37592   1.087   2.934  14.463 -0.0523  0.4784 -0.0400
21784W        W37593   2.561   7.816  15.645 -0.0624 -0.1102  0.1996
21785W        W37594   6.142   5.887  15.264  0.3501  0.0991  0.1884
21786W        W37595  11.726  17.245   2.472 -0.0054 -0.1231 -0.0486
21787W        W37596   0.261   9.158  14.050 -0.1246  0.1824 -0.2598
21788W        W37597   7.247  17.197  14.558  0.2333  0.0731 -0.0968
21789W        W37598  10.025   7.885   3.458 -0.1974  0.0563 -0.1796
21790W        W37599   9.695   5.164  15.992  0.2311  0.0295 -0.1029
21791W        W37600  15.478   7.899  15.721  0.0446  0.0564 -0.0910
21792W        W37601   4.745   6.670   3.103 -0.0348 -0.2758  0.5221
21793W        W37602  12.475   9.961   2.405  0.4183 -0.0794  0.0889
21794W        W37603   0.586  16.551  14.484 -0.1739  0.0538  0.0998
21795W        W37604   6.369   5.404   3.775 -0.0037 -0.1811 -0.2156
21796W        W37605  11.959   1.666   0.266  0.1756 -0.0398  0.0433
21797W        W37606   3.592  14.809   1.857 -0.0341  0.0570 -0.0913
21798W        W37607  17.512  12.337  13.730 -0.0538 -0.1153  0.0214
21799W        W37608  11.254  14.669   3.419 -0.0147  0.2009  0.0695
21800W        W37609   2.786  13.001  13.857 -0.2306 -0.1890 -0.1082
21801W        W37610   8.083   5.474  16.595 -0.1389 -0.0759  0.1639
21802W        W37611  17.681  11.386   2.580  0.1091 -0.1561  0.4943
21803W        W37612  12.897   3.816   2.344  0.0442 -0.1634  0.0342
21804W        W37613  17.244   2.565  14.164 -0.2131  0.0058  0.0063
21805W        W37614   2.753  11.385  15.953 -0.1912  0.0827 -0.0489
21806W        W37615   9.726  12.307  12.699  0.2961 -0.0404  0.0319
21807W        W37616   9.998  16.965   6.532  0.0258  0.0515  0.0330
21808W        W37617   0.638  17.175  12.372  0.2487  0.2433  0.0312
21809W        W37618  17.496  13.632   1.115  0.0121 -0.1096 -0.4662
21810W        W37619   4.650  16.851  12.179  0.0489 -0.2166  0.0070
21811W        W37620  11.781  14.705   2.235  0.2857 -0.0632 -0.0616
21812W        W37621  17.442   3.026  12.596 -0.0130  0.0165 -0.0355
21813W        W37622  14.326  14.663  13.884 -0.0428  0.1101  0.3978
21814W        W37623   9.105  12.478  15.154  0.2248  0.2685  0.1039
21815W        W37624   1.103  16.807  16.223  0.1022  0.1501 -0.1988
21816W        W37625  13.162   1.340   4.837 -0.2029  0.0348 -0.3440
21817W        W37626   0.942  10.078  12.374 -0.0409 -0.3849  0.1984
21818W        W37627   4.708   6.300  15.095  0.1303  0.0653 -0.0530
21819W        W37628   7.301  14.034   0.876  0.0011  0.0914 -0.0720
21820W        W37629  14.462   4.388  13.437  0.2329  0.0634 -0.2546
21821W        W37630  16.176   0.745   2.519 -0.0734 -0.0063  0.1785
21822W        W37631   8.272  16.302   5.846 -0.1057  0.0876  0.0178
21823W        W37632   9.680   2.639   2.062 -0.3318 -0.1729  0.0313
21824W        W37633  11.374   0.106   0.668 -0.0048  0.0830  0.0811
21825W        W37634  15.645   3.353   5.938  0.2916  0.1988 -0.4678
21826W        W37635   3.557   4.987  13.566  0.1807 -0.0422 -0.0001
21827W        W37636   8.637  11.720   3.520 -0.1446 -0.0377 -0.0732
21828W        W37637  13.184   1.370  13.283  0.0311 -0.0908  0.0034
21829W        W37638  10.339  17.682  12.186 -0.1236 -0.0828  0.3181
21830W        W37639  14.351   9.840   0.795 -0.1789 -0.1944  0.2986
21831W        W37640  14.952   3.749   2.166 -0.0069 -0.2803 -0.0044
21832W        W37641  17.320   9.466  16.317 -0.0313  0.0418  0.2758
21833W        W37642   5.768  15.087  15.580 -0.1282 -0.1483 -0.1376
21834W        W37643  16.415   9.157  11.398  0.0473 -0.0597 -0.0638
21835W        W37644  15.927  15.169  12.417 -0.1521 -0.0329 -0.0959
21836W        W37645   3.633   2.732  13.211 -0.1734  0.0715 -0.3766
21837W        W37646  12.255   5.532  16.498 -0.1923  0.1277  0.0363
21838W        W37647  12.154   0.185   3.936  0.1148  0.0200 -0.2068
21839W        W37648  17.433   9.035   5.383  0.1773 -0.0640 -0.2665
21840W        W37649  17.097   7.617   3.390  0.1928  0.2654 -0.2670
21841W        W37650  10.561  15.414   4.290 -0.1590 -0.1363  0.1657
21842W        W37651   8.793   3.114   4.489 -0.1865 -0.0123 -0.0382
21843W        W37652  16.157  13.779   1.324  0.0896 -0.2231 -0.2263
21844W        W37653   9.529   3.762   2.211  0.0504 -0.0976 -0.2580
21845W        W37654   0.614   2.657  13.703 -0.0481 -0.1599  0.0473
21846W        W37655  14.068   3.070  11.941 -0.0665 -0.0627 -0.0695
21847W        W37656   9.760   6.347   3.961  0.1721 -0.0705  0.0038
21848W        W37657   1.487  14.057   2.018  0.1309  0.2118  0.3617
21849W        W37658  14.498  12.885   2.587 -0.1841 -0.0047  0.3818
21850W        W37659   6.226  13.407   2.229 -0.1263 -0.1992  0.1681
21851W        W37660   2.888   0.850   0.537 -0.3035  0.3319  0.2777
21852W        W37661  14.939   1.687   0.459 -0.2425 -0.1471  0.0221
21853W        W37662   6.730  12.845   6.269 -0.2197  0.0486 -0.2732
21854W        W37663  10.954   7.313  15.324 -0.3069 -0.4151 -0.0033
21855W        W37664   7.629  11.677  13.930 -0.2725  0.0682 -0.2812
21856W        W37665   2.416   3.837   4.552  0.0494 -0.2126 -0.0115
21857W        W37666  11.366   0.662  14.772 -0.0794  0.0442  0.2453
21858W        W37667  10.916  11.859   4.643 -0.0180  0.3039  0.1555
21859W        W37668  16.320   6.314   3.506  0.0479  0.3289  0.0749
21860W        W37669   4.003   3.879   5.010  0.1963 -0.1475  0.0576
21861W        W37670   8.752  16.045   3.966 -0.2470  0.1914  0.0031
21862W        W37671  13.007   7.891   3.008 -0.0492  0.2524  0.0400
21863W        W37672   0.403   5.084   1.835  0.2982  0.2333 -0.4136
21864W        W37673  12.860   8.323  12.315 -0.0235 -0.2348 -0.4670
21865W        W37674  12.126  16.572  13.840  0.0801  0.0317 -0.3145
21866W        W37675  11.590  13.212  15.703 -0.0163  0.0686 -0.2355
21867W        W37676   6.084  13.632   2.743 -0.1356  0.3258  0.2912
21868W        W37677   9.030  11.249   4.741 -0.1326 -0.0493 -0.0375
21869W        W37678  10.618   1.331  11.562 -0.0670 -0.2350  0.1217
21870W        W37679  14.323   4.027  11.908 -0.0981 -0.1095  0.0100
21871W        W37680  10.142  16.549  13.611 -0.0166  0.1474  0.1300
21872W        W37681   3.843   3.123   6.152 -0.1460 -0.0366 -0.0132
21873W        W37682   2.523   4.539   1.579  0.0908  0.0417  0.3338
21874W        W37683   9.969   0.985   1.183  0.1208 -0.3515  0.1409
21875W        W37684  13.278  17.450  13.965  0.1017  0.2872 -0.2048
21876W        W37685   8.739  15.745   1.851  0.1553  0.1805 -0.4165
21877W        W37686  10.161   7.196   1.492 -0.1022 -0.2416  0.1917
21878W        W37687   9.322   0.475   0.305 -0.3940 -0.2429  0.6703
21879W        W37688  10.442  12.157   4.592 -0.1665  0.3094 -0.3258
21880W        W37689   6.005   9.537  13.560 -0.0637  0.2985  0.0779
21881W        W37690   6.340   6.842   1.268  0.0956  0.2073 -0.1035
21882W        W37691  14.489   4.287  15.565 -0.0129 -0.0221  0.3400
21883W        W37692  11.995   8.680   4.828 -0.0823 -0.3489 -0.2314
21884W        W37693  13.906   7.193   4.747 -0.0532 -0.4078 -0.0652
21885W        W37694   5.981   1.604   5.266  0.1535 -0.5921  0.0155
21886W        W37695  17.938   6.582   2.906  0.0408 -0.2319 -0.1243
21887W        W37696   4.659  13.598  13.072  0.1270 -0.1869  0.1509
21888W        W37697   3.762   2.561  15.573 -0.2077  0.2715 -0.3836
21889W        W37698  12.732   2.773  12.353 -0.0180  0.0444  0.0610
21890W        W37699   1.426  16.023  13.108  0.1078  0.0901 -0.0803
21891W        W37700   7.130  14.791   1.504  0.0632 -0.0096 -0.3798
21892W        W37701  14.090  13.061   2.325  0.0191  0.1557 -0.4261
21893W        W37702  14.697   2.517  12.370  0.1220 -0.1655 -0.0586
21894W        W37703   9.399  15.947  14.322 -0.0989  0.0612 -0.0948
21895W        W37704   6.630   7.547   4.807 -0.3915 -0.1460 -0.1979
21896W        W37705  14.683   5.088   0.723 -0.1200  0.0103  0.0077
21897W        W37706  17.348   1.260   0.776 -0.2021  0.0546 -0.3221
21898W        W37707   1.941   0.680   2.691 -0.0681  0.0771 -0.0085
21899W        W37708  16.219   6.789  14.445 -0.2818 -0.0250  0.0951
21900W        W37709   7.568   2.380  15.692 -0.2747 -0.2954  0.1061
21901W        W37710   1.743   8.422  14.757 -0.1305 -0.0980  0.0946
21902W        W37711  13.268   1.224   3.925  0.4867 -0.2626  0.2048
21903W        W37712   0.902  14.018   3.927 -0.1715 -0.1528 -0.3015
21904W        W37713   0.940  14.732   0.848  0.1410  0.1587 -0.1267
21905W        W37714   6.814   4.636   2.211 -0.0308  0.2927  0.0965
21906W        W37715   4.391  14.723   5.926  0.2249 -0.1049 -0.1816
21907W        W37716  11.325  15.032   3.722 -0.0123  0.1099 -0.3399
21908W        W37717  14.521  11.804   0.245 -0.1134 -0.0929  0.0944
21909W        W37718  17.468   0.976  11.546 -0.0241 -0.0387 -0.1303
21910W        W37719   5.149  14.523   4.954 -0.1601  0.2200  0.1498
21911W        W37720  14.649   1.660  13.160  0.0317 -0.0452  0.0008
21912W        W37721  12.227   1.108  11.751  0.0826  0.0988  0.2332
21913W        W37722  14.473  17.434   5.788  0.1042 -0.1613 -0.0677
21914W        W37723  17.910  12.994  15.038  0.0171 -0.1604 -0.0558
21915W        W37724  15.069   4.477  12.090  0.1816 -0.1105 -0.1149
21916W        W37725  12.639   1.727  14.408  0.2237  0.2681 -0.0485
21917W        W37726  14.173   6.793  13.145 -0.0081  0.1297 -0.0015
21918W        W37727   7.036   4.881  13.337  0.0088 -0.2427  0.0719
21919W        W37728  14.769   7.576   1.230 -0.1304 -0.1030  0.0503
21920W        W37729   8.723   2.884   5.014  0.3092 -0.1474  0.2740
21921W        W37730  17.667  14.235   0.167  0.0644 -0.1160  0.0160
21922W        W37731   8.695  10.206   3.723  0.0427  0.0459 -0.2913
21923W        W37732   0.793  14.754  15.509  0.0144  0.0209 -0.0787
21924W        W37733   5.482  14.253  11.743 -0.2707  0.0666 -0.0968
21925W        W37734  17.101  15.471   3.588 -0.2091  0.2905 -0.0635
21926W        W37735   5.175  15.887   0.533  0.0322 -0.1745  0.2296
21927W        W37736   0.564   1.597   3.085  0.1663 -0.0310 -0.0612
21928W        W37737   2.023   8.439  10.394  0.1083 -0.0481  0.0877
21929W        W37738  15.658   5.402  12.840 -0.0809  0.0933  0.4960
21930W        W37739  11.209  12.052  12.115  0.1340  0.0273  0.2387
21931W        W37740   9.760  11.693   2.896  0.1616 -0.2138 -0.1535
21932W        W37741  12.326   4.932  12.674 -0.1110  0.3741  0.2297
21933W        W37742   0.237  10.191   3.041  0.2146 -0.0753 -0.0533
21934W        W37743  16.726  17.082   0.172  0.4003 -0.0718 -0.0169
21935W        W37744   9.426  13.609  15.135 -0.2625  0.0176 -0.1664
21936W        W37745   3.859  12.720   0.711  0.1401 -0.1058 -0.0773
21937W        W37746  16.400   5.008   2.291  0.0654  0.0058 -0.0014
21938W        W37747  14.599   0.991  16.289  0.2523  0.0023  0.0878
21939W        W37748  12.696   4.537   3.042 -0.1864  0.0953 -0.0022
21940W        W37749  12.164   2.866  15.512 -0.0103 -0.1517 -0.0216
21941W        W37750  10.350  16.827  14.219 -0.1015  0.0634  0.1407
21942W        W37751   4.886   7.297   4.619  0.4091  0.0456 -0.3397
21943W        W37752  16.183   2.591   3.545  0.2796 -0.1281  0.0952
21944W        W37753   3.447   2.749   0.801 -0.1159  0.0925  0.2135
21945W        W37754   6.591  11.108   5.910  0.1653 -0.0074 -0.2719
21946W        W37755   5.169  11.443  13.455  0.2703  0.0540  0.0315
21947W        W37756   2.505  16.280   3.451 -0.1385 -0.2677 -0.1023
21948W        W37757  12.941  12.176   0.691 -0.0455 -0.0917  0.0820
21949W        W37758   5.956   7.068   0.262 -0.0702  0.1766 -0.0348
21950W        W37759  12.020   3.533   2.423 -0.0560 -0.0248  0.3142
21951W        W37760   2.020  14.170  15.641 -0.1406 -0.0641  0.3329
21952W        W37761  12.370  12.349   2.283 -0.2513 -0.2488 -0.5270
21953W        W37762   2.829   6.278  12.888  0.0306  0.0200 -0.0174
21954W        W37763  12.108   8.455  14.892 -0.1087  0.0148  0.3330
21955W        W37764   9.735  13.680   4.280 -0.2772  0.4085 -0.1686
21956W        W37765   6.451   0.407  12.768  0.1344 -0.1940 -0.0987
21957W        W37766   2.940  13.999   3.687  0.0350 -0.0331  0.1667
21958W        W37767   0.647   3.518  16.336 -0.4045  0.3200 -0.1160
21959W        W37768  15.257   8.370   2.212  0.0315 -0.0797 -0.2888
21960W        W37769   2.697  14.606  14.847  0.1009  0.0801  0.0114
21961W        W37770   7.923   0.044   5.215  0.0870 -0.0875 -0.0100
21962W        W37771   9.754   1.841   5.955 -0.2584  0.0300 -0.0608
21963W        W37772  11.453   4.061  13.369 -0.2629 -0.0660 -0.0250
21964W        W37773   8.768   1.727   0.042  0.0739 -0.1812  0.1114
21965W        W37774   9.241  11.893  16.146  0.1718  0.2866 -0.4615
21966W        W37775  11.785  15.445   1.104  0.0814  0.0543  0.0193
21967W        W37776  10.896   1.364   3.640  0.1325  0.4074 -0.0770
21968W        W37777   4.029   3.238  12.090  0.0541  0.1375 -0.2329
21969W        W37778   0.247   0.606   5.603 -0.0231 -0.0889 -0.2382
21970W        W37779   6.365  15.673   4.614 -0.0361 -0.0970 -0.0054
21971W        W37780   0.776  10.710   4.619 -0.1796 -0.1958  0.1553
21972W        W37781  17.264  10.506   5.321 -0.0244 -0.1458 -0.2239
21973W        W37782   6.377  11.957  10.484 -0.1789 -0.0006 -0.1065
21974W        W37783   1.836  15.921   1.430 -0.0893 -0.3216  0.1016
21975W        W37784  12.261   4.991  11.593 -0.1361 -0.2087  0.0439
21976W        W37785   2.808  13.799  13.934  0.1469  0.0918  0.1037
21977W        W37786   2.579  11.266  11.302 -0.1291  0.1150  0.1022
21978W        W37787   2.415   8.250  13.571  0.0944  0.2130 -0.0683
21979W        W37788  11.748  11.197  15.144  0.1788  0.3720 -0.2842
21980W        W37789   6.695  16.180  11.127 -0.1234  0.1852  0.1450
21981W        W37790   7.483  15.701   4.228  0.0170 -0.1391  0.5446
21982W        W37791  13.958  15.253   1.883 -0.0010  0.0240  0.0861
21983W        W37792  11.906   1.575   4.163 -0.0759  0.1126  0.0475
21984W        W37793   6.001   8.300  12.122 -0.3322 -0.1448  0.0980
21985W        W37794   6.504   8.735  13.915  0.1052  0.0803  0.1814
21986W        W37795   6.254   2.173  11.416  0.0677 -0.3130  0.1542
21987W        W37796   4.982   6.879   0.658  0.0154 -0.0405  0.2305
21988W        W37797   4.882  13.267  15.024 -0.2604  0.1072  0.0152
21989W        W37798  13.728   6.568  15.706 -0.0921  0.0692 -0.4060
21990W        W37799   2.075   9.204  14.117 -0.1013 -0.1011 -0.2538
21991W        W37800   3.435  14.247   2.037 -0.2457  0.1270  0.0533
21992W        W37801   0.884   2.536   0.610 -0.0005  0.1083  0.2997
21993W        W37802   9.969   9.771  12.978 -0.1049 -0.1739  0.1997
21994W        W37803  12.333  10.893   1.625  0.1477 -0.0879 -0.1557
21995W        W37804  11.758  17.617  13.865  0.0333  0.2807  0.3594
21996W        W37805  11.710   0.443  16.572  0.0785  0.0420 -0.0100
21997W        W37806   5.662  11.708   4.414 -0.2900  0.1058 -0.0152
21998W        W37807  15.669   6.523  16.364 -0.1638 -0.2164 -0.2966
21999W        W37808   0.471  15.898   5.161  0.0699  0.0972  0.2171
22000W        W37809  12.564  15.612   5.446  0.0983 -0.2067  0.2295
22001W        W37810   2.939   3.987  16.638 -0.0325 -0.0437  0.0099
22002W        W37811  10.416  16.919   2.780 -0.0913  0.4065 -0.1697
22003W        W37812   4.110   8.329  16.606  0.1803 -0.1839  0.0401
22004W        W37813  17.495   8.318  13.486 -0.1487 -0.2947  0.3772
22005W        W37814   6.495   7.364  13.395 -0.0145 -0.1668 -0.4907
22006W        W37815  16.468  16.224  15.039 -0.0919  0.2292  0.4138
22007W        W37816  12.274   9.037  13.214 -0.0978  0.1844  0.1986
22008W        W37817  14.481   9.520  15.331  0.0023 -0.0081  0.4465
22009W        W37818   5.254  17.941  13.124  0.1786 -0.0525 -0.0120
22010W        W37819   0.966  13.650  11.879 -0.1888 -0.0011  0.0397
22011W        W37820  10.810  15.367  16.565  0.2313 -0.1480  0.1373
22012W        W37821  13.969   0.275   3.926  0.1092 -0.1260  0.2140
22013W        W37822   2.767   8.346  12.531  0.1141  0.1509  0.0770
22014W        W37823   2.858  14.281   0.803 -0.1715  0.3521  0.1779
22015W        W37824  15.569   5.403  13.449 -0.0858 -0.0648 -0.6118
22016W        W37825   6.955   7.841   4.574  0.4281  0.0530 -0.0042
22017W        W37826  15.902   9.732  13.578  0.1732 -0.2468 -0.0361
22018W        W37827  17.188   5.745   4.194  0.3362 -0.0181  0.0544
22019W        W37828   2.172  10.473   2.495  0.1797 -0.2687 -0.0025
22020W        W37829   8.939   9.624  15.050 -0.0794  0.1403 -0.0512
22021W        W37830  11.290   2.870   1.923  0.1595 -0.0752  0.1620
22022W        W37831  13.963   6.951  15.498 -0.0711  0.1650 -0.0323
22023W        W37832  13.177  16.380  14.115 -0.2342 -0.2692  0.1973
22024W        W37833   7.970   8.535   3.477 -0.1142 -0.2834 -0.0776
22025W        W37834   4.035  17.229   1.175 -0.2313 -0.1135 -0.1021
22026W        W37835  12.510   2.141   4.694 -0.1805  0.4088  0.2178
22027W        W37836  15.653   6.005  16.526 -0.5534  0.0349  0.1480
22028W        W37837   8.066   4.946  12.528  0.0625  0.2075  0.0130
22029W        W37838   3.318   3.946  12.420 -0.0579  0.5176  0.3206
22030W        W37839  10.862   5.522   3.704  0.2484  0.0784 -0.2164
22031W        W37840  13.143  14.097   4.990  0.0047  0.1357  0.2861
22032W        W37841  16.351   6.327  11.639  0.2337  0.1745  0.0061
22033W        W37842   0.371  12.512  14.074  0.4431  0.2464 -0.0202
22034W        W37843  10.440   1.584   5.289  0.0926  0.3917  0.1077
22035W        W37844   8.159   3.712  14.296 -0.1285 -0.0487 -0.0321
22036W        W37845  14.076   6.171   5.739  0.0373  0.0724 -0.0293
22037W        W37846  15.025   7.492   5.899  0.2316  0.5382  0.0086
22038W        W37847  15.337  16.726  14.379 -0.1556  0.2724  0.0529
22039W        W37848  17.376   2.090  15.743 -0.1282  0.1663  0.0378
22040W        W37849  14.167   3.470   5.530 -0.0522  0.2013  0.1328
22041W        W37850   0.638  16.928  16.456 -0.0463  0.1299 -0.0482
22042W        W37851  12.808   1.412   1.263 -0.4702 -0.0069  0.3139
22043W        W37852   6.511  17.826   5.411  0.0141  0.1030  0.5226
22044W        W37853  10.986   8.224  15.825  0.1379 -0.3620  0.0628
22045W        W37854   4.479   8.559   3.376  0.2047 -0.2169  0.0265
22046W        W37855   8.892   3.850  13.048  0.1221  0.1132 -0.2929
22047W        W37856   1.192   4.383   4.646 -0.0984 -0.0208  0.0971
22048W        W37857   4.825  16.383   5.390 -0.0990 -0.0271 -0.2138
22049W        W37858   2.063   2.691   4.362 -0.3341  0.2886 -0.1303
22050W        W37859  11.457   7.754   4.626  0.0610  0.2724 -0.0085
22051W        W37860   9.141  12.479   2.643  0.1378  0.2952 -0.1820
22052W        W37861   3.313   8.685   4.182  0.1043  0.0408  0.1656
22053W        W37862   9.954  14.081   2.450 -0.1245  0.0115 -0.0569
22054W        W37863  17.653   2.555   1.122  0.1936 -0.2084 -0.2190
22055W        W37864   8.247  15.575   3.462 -0.1496 -0.0559  0.0489
22056W        W37865  14.403   0.772   5.861  0.0594  0.0670  0.1814
22057W        W37866   9.181  15.915  11.554  0.0462 -0.0400 -0.1615
22058W        W37867   5.424   1.834   0.401 -0.0493 -0.0963 -0.1505
22059W        W37868   0.002   4.500   2.662  0.1757 -0.1646 -0.1538
22060W        W37869  11.393   5.328   0.351 -0.2754 -0.3271 -0.1933
22061W        W37870  13.775   4.681   4.058 -0.0571 -0.2017 -0.1218
22062W        W37871  10.460   9.350   0.318 -0.2641  0.4743  0.1637
22063W        W37872   9.140  10.607   4.395  0.0928 -0.1165 -0.0213
22064W        W37873   8.544  11.935  13.823 -0.1793 -0.0211  0.1207
22065W        W37874  15.146  14.030   1.345 -0.1340  0.0536 -0.0542
22066W        W37875   8.470  16.732   0.965 -0.0329  0.0550 -0.1471
22067W        W37876   5.265  12.153  16.210  0.1429 -0.2868  0.1814
22068W        W37877  11.829   1.635  16.097  0.4043 -0.0270 -0.0561
22069W        W37878  11.526  16.220  11.991  0.0070 -0.2179  0.0505
22070W        W37879  10.892   4.366  12.560  0.1314  0.1557  0.0700
22071W        W37880  12.843   5.551  15.100  0.0746 -0.0853  0.3061
22072W        W37881  11.185   0.545   0.907  0.0606  0.0707  0.2092
22073W        W37882  11.378   2.514   1.189  0.1734  0.3111  0.3093
22074W        W37883  10.064  13.116   4.562  0.0542 -0.0588 -0.0921
22075W        W37884   9.100  14.368  15.989 -0.0348  0.1653  0.3114
22076W        W37885  12.230   8.258   4.539 -0.0202  0.1040  0.3061
22077W        W37886   1.290  14.357   0.705  0.0238 -0.1800 -0.0250
22078W        W37887  14.005   0.109   4.872 -0.2751 -0.0028  0.0876
22079W        W37888  11.330   2.150  15.582  0.0396 -0.1960 -0.0770
22080W        W37889  10.618  15.942   3.576 -0.1625 -0.0359 -0.1283
22081W        W37890   8.479   9.226   2.602  0.0698  0.0341 -0.3295
22082W        W37891   6.925  15.187   5.577 -0.3419 -0.1543  0.0602
22083W        W37892  14.179   9.686   3.885  0.1655  0.0248 -0.3197
22084W        W37893   8.906   9.423   0.780  0.2694 -0.0782  0.2034
22085W        W37894   6.637  13.470   2.775 -0.2567  0.1295 -0.1069
22086W        W37895  14.128  14.356  12.877  0.0853 -0.0502 -0.1394
22087W        W37896  12.736  11.043  16.571  0.1648 -0.0903 -0.0350
22088W        W37897   0.549  15.243  14.417  0.0712  0.1481 -0.0093
22089W        W37898  10.046  14.496  13.985 -0.0246  0.3429 -0.2142
22090W        W37899  10.913  11.617   3.660  0.0410  0.2804 -0.4832
22091W        W37900  10.884  15.457  12.308  0.1583 -0.1918 -0.2293
22092W        W37901  15.941   7.097   3.999  0.2331 -0.0618 -0.0466
22093W        W37902   6.076   6.770   2.312  0.4994 -0.0884  0.1794
22094W        W37903  15.308   4.655  14.360  0.0710  0.0482 -0.1187
22095W        W37904   1.115   2.732  13.925 -0.1732  0.4467  0.1039
22096W        W37905   9.769  14.467   2.727 -0.2891  0.0278 -0.0715
22097W        W37906   6.295  12.201  15.338 -0.1147 -0.0865 -0.0739
22098W        W37907   7.070   1.869   0.712 -0.2483 -0.0072 -0.4785
22099W        W37908   0.066   3.262  15.145  0.2660 -0.1143 -0.1773
22100W        W37909  15.135   2.188  16.443 -0.3277 -0.1999 -0.1055
22101W        W37910  14.169   8.935  13.628 -0.0518 -0.1586  0.2342
22102W        W37911  16.177  12.186  11.990 -0.1241  0.1164 -0.0621
22103W        W37912   4.228   2.352   0.772 -0.3168  0.1267 -0.1104
22104W        W37913   5.344   7.239   3.178  0.1851  0.2002  0.3071
22105W        W37914   7.594  14.785   4.412  0.0128 -0.1074  0.2368
22106W        W37915  15.752   6.998   1.264 -0.0441 -0.2082  0.0277
22107W        W37916   7.572   6.679   2.109  0.0462  0.0930  0.0553
22108W        W37917   6.504   6.829  16.265 -0.0459  0.1206  0.0262
22109W        W37918   1.099  15.578  15.639 -0.2565  0.1567 -0.0109
22110W        W37919  14.414  14.231   2.758  0.0960 -0.0623  0.1228
22111W        W37920  15.449  12.555  11.593 -0.3052  0.0762  0.1650
22112W        W37921   3.461  11.387   4.798  0.2155  0.0358 -0.0697
22113W        W37922  17.041  17.225  13.435 -0.1111  0.1232  0.0360
22114W        W37923   5.420  14.583   5.428 -0.2186  0.4824 -0.0508
22115W        W37924   6.666  16.146  13.540  0.0436 -0.3505  0.2591
22116W        W37925  11.298   0.424   3.892  0.2204 -0.2330 -0.0726
22117W        W37926  14.271  11.774   3.292  0.1467 -0.3865 -0.0957
22118W        W37927   3.691  11.671   4.419 -0.3569  0.3162 -0.4092
22119W        W37928   4.634  17.709   3.567 -0.2207 -0.4044  0.3327
22120W        W37929   4.585   2.397   6.150 -0.1161 -0.0744  0.1812
22121W        W37930  14.039  17.917  13.364 -0.0022 -0.1239 -0.4644
22122W        W37931   1.971   4.709   2.660  0.3077 -0.1058  0.3128
22123W        W37932  12.578   7.305   3.535  0.2454  0.0457 -0.2264
22124W        W37933   8.628  12.031   2.107 -0.0640  0.2445  0.2228
22125W        W37934   5.311   3.262  11.871 -0.0301 -0.0602  0.2092
22126W        W37935   3.438   9.503   3.713 -0.0422  0.3442  0.1422
22127W        W37936  15.982   7.919  14.252 -0.3053 -0.3518 -0.0558
22128W        W37937  15.381  14.463   4.566 -0.1209 -0.1362  0.0445
22129W        W37938   4.893  15.244   5.464  0.0765  0.1455 -0.0006
22130W        W37939  11.870  11.215  11.766 -0.0457 -0.0625 -0.1532
22131W        W37940  12.504   9.764   1.826 -0.1499  0.0143 -0.3217
22132W        W37941  15.953  10.313   5.416 -0.1113 -0.2377  0.0523
22133W        W37942  14.765  11.949   5.715  0.0067  0.0910 -0.0504
22134W        W37943  17.645  12.736   3.530 -0.1889  0.0599  0.1767
22135W        W37944  12.800  15.221   3.734  0.3105 -0.0872 -0.0908
22136W        W37945   9.680  10.452   4.938  0.0605  0.3678  0.0439
22137W        W37946   5.337   4.146   3.900 -0.1236 -0.0290 -0.2027
22138W        W37947  17.147   2.889  11.923 -0.0786 -0.3441  0.1320
22139W        W37948  14.536   0.552  13.350 -0.0469 -0.1270  0.2479
22140W        W37949  13.750   5.521   1.220  0.0510 -0.3934 -0.1371
22141W        W37950   6.188  17.699  16.489 -0.1390 -0.0700  0.4009
22142W        W37951  14.611   3.181  15.931  0.0650  0.2503 -0.3233
22143W        W37952   7.688   8.669  15.649  0.1738 -0.3484  0.0456
22144W        W37953   9.676   7.898  16.177  0.0619  0.0845  0.2923
22145W        W37954  14.026   5.296  12.200  0.0003 -0.2521 -0.1636
22146W        W37955   0.537   7.968   4.704 -0.1181  0.1548 -0.5104
22147W        W37956   9.048   6.551   0.245  0.1670 -0.1587  0.1066
22148W        W37957  16.507  11.018   5.244  0.0918 -0.1691  0.1925
22149W        W37958  12.138  17.080  14.505 -0.1671 -0.1306  0.1992
22150W        W37959   5.113  10.071  13.362 -0.0993 -0.2837  0.0929
22151W        W37960  10.071   0.979  15.341  0.2527  0.1602 -0.0596
22152W        W37961   5.167  13.557  15.391 -0.1736 -0.4966  0.0271
22153W        W37962  10.690   3.055  16.573  0.1955  0.0167 -0.0093
22154W        W37963   4.819  10.251  14.871 -0.1221  0.2443  0.3161
22155W        W37964   6.683   9.564   4.278 -0.3374  0.0709 -0.0989
22156W        W37965   9.986  12.175   0.900  0.2002 -0.1099 -0.1998
22157W        W37966   7.096  14.821  14.828  0.0442 -0.2105  0.2443
22158W        W37967   5.146   1.207   1.121  0.0532 -0.1542  0.0945
22159W        W37968  12.805  14.426  15.850 -0.0604 -0.2224 -0.3176
22160W        W37969   2.175  14.411   4.928 -0.1241 -0.0664 -0.1255
22161W        W37970   2.345  13.635  13.524  0.2384 -0.0011  0.0580
22162W        W37971   1.936  15.831   2.967 -0.0814  0.1102  0.2348
22163W        W37972   7.976  17.168  16.112 -0.3081  0.0573  0.2681
22164W        W37973  10.315  17.376  14.165 -0.0726 -0.0218 -0.1903
22165W        W37974   0.875   9.048  14.520 -0.0183 -0.0820  0.1398
22166W        W37975   6.781  11.530  16.420  0.1052 -0.0348 -0.0044
22167W        W37976   4.948   0.382   5.408 -0.0154 -0.1458  0.0293
22168W        W37977  10.677   5.948   5.611 -0.3155 -0.4348 -0.5440
22169W        W37978  17.942  12.890   4.847  0.1806  0.3053  0.2172
22170W        W37979  12.419   0.989   3.555  0.2757 -0.1908 -0.0454
22171W        W37980   0.899   0.303  15.922 -0.0284 -0.2111  0.2303
22172W        W37981   2.741  10.364   1.657  0.1323  0.0870  0.1422
22173W        W37982  15.053  16.211  14.494  0.2162 -0.1025 -0.2271
22174W        W37983   3.726   4.078   3.577 -0.0404  0.4025 -0.0312
22175W        W37984   0.473  16.185   3.163  0.2908 -0.3206  0.1233
22176W        W37985  13.164   8.742   0.015 -0.0581  0.2690 -0.1235
22177W        W37986   8.533  16.210  13.579  0.2640  0.2090  0.1298
22178W        W37987   4.654   5.766   5.764  0.1211 -0.3400 -0.1377
22179W        W37988   5.063   9.947   3.471  0.1799  0.2800 -0.1031
22180W        W37989   9.252   1.425   1.509 -0.0163 -0.1028 -0.0788
22181W        W37990   8.256   9.443  14.043  0.0233  0.1840 -0.4771
22182W        W37991   2.892   3.384   3.403 -0.1125 -0.1523 -0.0454
22183W        W37992  17.361  11.513   2.186 -0.0480  0.0327 -0.0807
22184W        W37993  14.107   6.779   4.553  0.1748  0.2211  0.2506
22185W        W37994   7.527   8.847  16.083 -0.0941 -0.0010 -0.0707
22186W        W37995   0.732   0.173  13.435  0.0092  0.0184 -0.0559
22187W        W37996   5.640   8.950  11.827 -0.1102 -0.1668 -0.0887
22188W        W37997  13.919   9.131   5.031 -0.0615  0.0581 -0.1928
22189W        W37998  11.066  12.604  12.269 -0.2362 -0.0335 -0.2351
22190W        W37999  12.008  12.496   2.571  0.1462 -0.1529  0.0511
22191W        W38000  14.429  10.363   0.822  0.1678 -0.2747  0.0519
22192W        W38001  12.682   8.542  15.606 -0.2490 -0.1607  0.0909
22193W        W38002   4.960   0.946  10.895  0.0715 -0.1946 -0.1445
22194W        W38003  14.880   0.279   5.181  0.2245 -0.3175 -0.1226
22195W        W38004  16.203   9.375   0.936  0.0991  0.2522 -0.0393
22196W        W38005   6.466   6.744   0.483 -0.1216  0.4510  0.1826
22197W        W38006  17.694   3.206   3.191  0.0170 -0.1125  0.2584
22198W        W38007  12.382  11.629  16.508  0.0193 -0.0447  0.1023
22199W        W38008   0.121  17.352   5.291  0.0892 -0.0577 -0.0306
22200W        W38009  12.628   8.087  15.416  0.1077 -0.2956 -0.1533
22201W        W38010   5.197   3.529  13.367  0.1408 -0.3388 -0.0331
22202W        W38011   8.562  14.428   5.419  0.1851  0.1013 -0.0992
22203W        W38012   5.049   1.847  15.314  0.1104 -0.1079 -0.0307
22204W        W38013  13.662   7.329   6.636  0.2336  0.0596 -0.1350
22205W        W38014   8.935   5.502  14.545  0.2920 -0.0601 -0.2059
22206W        W38015   1.274   1.519   2.547  0.0461  0.0460  0.2435
22207W        W38016  16.164  13.395   5.275 -0.1849 -0.1120  0.2597
22208W        W38017  16.149  11.000  15.976  0.0965 -0.0514  0.1605
22209W        W38018   6.266  11.138   5.477  0.1894 -0.2919 -0.4741
22210W        W38019  17.375   4.354   2.764 -0.1392  0.1986  0.2182
22211W        W38020   0.626  15.782  12.997 -0.2071  0.1070 -0.0992
22212W        W38021  16.779   5.460  15.562 -0.1302 -0.1185  0.1888
22213W        W38022   4.300  12.720   3.803  0.1278  0.2336 -0.1459
22214W        W38023   3.421  13.318   4.757 -0.0181  0.3930 -0.1906
22215W        W38024   1.372  17.306  11.603 -0.3146 -0.0142  0.0503
22216W        W38025  14.642  16.468   4.532 -0.1355  0.0745  0.2272
22217W        W38026  12.135  15.846   5.145  0.1084 -0.1211 -0.0266
22218W        W38027   7.165   7.604  14.291  0.0421  0.2687  0.1536
22219W        W38028   3.932   1.770  11.596 -0.0846 -0.0366  0.2160
22220W        W38029   6.127   4.776   5.453 -0.0258 -0.0550  0.4769
22221W        W38030   1.485   5.921  14.564  0.0990 -0.3656  0.0097
22222W        W38031  15.870  10.458  13.522 -0.0885  0.0442  0.3388
22223W        W38032  10.417  12.593  15.848  0.0986  0.2580 -0.1775
22224W        W38033   4.499  17.091   4.386 -0.2623  0.1982 -0.2416
22225W        W38034  11.095   1.763   5.870  0.2997  0.1983  0.1372
22226W        W38035  16.158  12.187   2.033 -0.0787 -0.5293  0.0155
22227W        W38036  14.215  15.493   5.955 -0.0575 -0.2832  0.0712
22228W        W38037  13.025   3.250  12.685 -0.0614 -0.2672  0.0942
22229W        W38038  14.578   3.642   2.841 -0.1452  0.3096 -0.1285
22230W        W38039   0.063   5.004  13.646 -0.2750 -0.5003  0.2977
22231W        W38040  15.734  11.834   4.326  0.1310  0.2153 -0.2545
22232W        W38041   8.715   8.822   4.138 -0.1098 -0.0979  0.1088
22233W        W38042  11.506  15.138  11.878  0.3214  0.0700  0.0533
22234W        W38043   2.688   4.507  16.174 -0.1661 -0.1410  0.0365
22235W        W38044   0.412  11.143   3.823  0.1710 -0.2381 -0.0430
22236W        W38045   3.019   8.260  14.225  0.0101 -0.1843  0.0899
22237W        W38046   0.814   6.474  16.306 -0.0317  0.1692 -0.0775
22238W        W38047   0.222   2.888   0.182  0.1852 -0.1404  0.3203
22239W        W38048   7.867   7.723   1.818 -0.0076 -0.0492 -0.1119
22240W        W38049  12.537  12.079   6.093 -0.1414  0.2527 -0.0269
22241W        W38050  17.018   0.409   2.114  0.1824 -0.2116 -0.1637
22242W        W38051  16.706  15.791  12.198  0.0304 -0.0130 -0.0491
22243W        W38052   9.312   4.768  13.037 -0.2528  0.2659  0.0717
22244W        W38053   5.893   0.574   0.633  0.1267 -0.0716 -0.0688
22245W        W38054  15.328   3.461   3.464  0.2894 -0.3898 -0.1960
22246W        W38055   9.472   0.839  14.679 -0.0034 -0.0833  0.0609
22247W        W38056   2.695  11.430   3.542  0.1358  0.0225  0.1747
22248W        W38057   0.867   7.464   0.258 -0.1874  0.1890 -0.0442
22249W        W38058  10.454  17.183  15.574  0.0802 -0.1968 -0.0580
22250W        W38059   3.168   5.655  15.642  0.0219  0.2049 -0.3092
22251W        W38060   2.632   0.581  15.934 -0.0703  0.1056  0.1864
22252W        W38061   9.714  12.646  16.077  0.0250  0.2091 -0.1241
22253W        W38062  10.467  14.991   3.329 -0.0357  0.1145  0.0489
22254W        W38063   8.727  16.978   6.595  0.0240  0.1299  0.5487
22255W        W38064  11.804   1.626   1.534  0.1641  0.0464 -0.2730
22256W        W38065   2.896  12.450   1.972  0.2857  0.0036 -0.1423
22257W        W38066  16.191  11.943  11.458 -0.0876 -0.3824 -0.0363
22258W        W38067   6.936  17.433   1.340  0.0481 -0.0657 -0.0319
22259W        W38068  15.251   5.452   5.420 -0.0019  0.2518  0.2236
22260W        W38069   0.293  15.052   0.086 -0.3314 -0.3656 -0.0816
22261W        W38070   0.016   0.744   2.222  0.0177  0.2384  0.1926
22262W        W38071   4.023  11.938  10.947  0.1674  0.3695 -0.0197
22263W        W38072   3.244   7.670   0.609 -0.3287  0.0002 -0.2261
22264W        W38073  10.324   3.038   1.619 -0.0815 -0.0105 -0.2622
22265W        W38074   8.939  10.958   2.122  0.0194  0.1253  0.0093
22266W        W38075   7.104  10.393  12.266 -0.2020  0.0761  0.1116
22267W        W38076  10.454   9.735   0.680  0.0148 -0.0343 -0.0674
22268W        W38077   3.522   4.401  12.214  0.3369 -0.0863 -0.4886
22269W        W38078   5.097   7.700   3.165  0.0640  0.0267  0.2060
22270W        W38079   2.998  15.694  16.681  0.1725 -0.1219 -0.0531
22271W        W38080  10.188   5.211   6.444  0.4063 -0.1745  0.2300
22272W        W38081   5.790  10.629   2.215 -0.2787 -0.2523 -0.1690
22273W        W38082  13.380   7.466   4.261  0.0990  0.0408 -0.0644
22274W        W38083  15.614  11.934  15.845 -0.0152 -0.0900  0.1177
22275W        W38084  14.633   6.265   5.594 -0.0638  0.0334 -0.0857
22276W        W38085   2.213   2.669  12.601  0.1443 -0.0243 -0.1165
22277W        W38086   0.757  17.026   4.029 -0.2292 -0.0130 -0.0508
22278W        W38087   2.534   1.600   5.745 -0.1128 -0.0952  0.0229
22279W        W38088   3.621  13.388   0.497 -0.1381 -0.0504 -0.0795
22280W        W38089   7.862  12.624   3.114 -0.3052 -0.2673 -0.1636
22281W        W38090  12.282  13.560   1.924  0.0636  0.0346  0.1793
22282W        W38091  14.896   0.253   2.500 -0.2107  0.1127 -0.0109
22283W        W38092   3.770   4.645   0.804  0.0497 -0.0865  0.0382
22284W        W38093  16.238  15.309   5.775 -0.0104  0.1240  0.2085
22285W        W38094  15.279   6.822  13.926  0.3559  0.2800 -0.0120
22286W        W38095   6.839   0.732  14.760 -0.1818 -0.3759  0.0068
22287W        W38096  15.812  11.021   4.102  0.1199  0.1201 -0.2355
22288W        W38097  15.891   7.637   1.845  0.1730 -0.0683 -0.2128
22289W        W38098   8.497   3.770   0.286  0.0283 -0.1875  0.1379
22290W        W38099  13.052  13.109   3.098  0.1115 -0.3173  0.1750
22291W        W38100   6.726   9.284  12.961  0.0571 -0.1085 -0.1491
22292W        W38101  17.832  13.995   6.130 -0.3375  0.0286  0.1411
22293W        W38102  12.214  16.457   0.546 -0.1568  0.0696  0.2423
22294W        W38103   1.909   7.915   0.181  0.2534  0.2980  0.0699
22295W        W38104  17.313   3.203   1.683 -0.1683  0.0554  0.0546
22296W        W38105  13.499   6.215   1.682  0.0073  0.0450 -0.1545
22297W        W38106   4.425   6.637   5.062  0.0658  0.1992  0.1091
22298W        W38107   3.246  16.174   2.976 -0.0586 -0.0335 -0.4542
22299W        W38108  14.516   8.064   2.622  0.0810 -0.1557  0.3241
22300W        W38109  10.845   1.726   4.878 -0.1614 -0.0444  0.0909
22301W        W38110   6.789  13.852   3.068  0.1458  0.1984 -0.1914
22302W        W38111  17.693   2.890  15.311  0.1580  0.4576 -0.2557
22303W        W38112   9.011  15.136   6.049  0.0420  0.3209 -0.1314
22304W        W38113   3.647   3.964   0.313  0.0700 -0.1619  0.4438
22305W        W38114   4.013   5.921   0.731 -0.0176 -0.4013 -0.1497
22306W        W38115   5.353   0.963  16.660 -0.1106 -0.1328  0.1818
22307W        W38116   9.986   8.846  11.882  0.0139 -0.3675 -0.0194
22308W        W38117  11.231   0.835  11.784 -0.2037  0.1172  0.1544
22309W        W38118  11.137   6.017  13.885 -0.1210 -0.1501 -0.1132
22310W        W38119   1.301   7.924   3.962 -0.1938 -0.5003  0.0139
22311W        W38120  16.814   3.889  14.071  0.0023  0.0807 -0.2115
22312W        W38121  10.908   9.723   0.355 -0.0747  0.0324  0.0391
22313W        W38122   4.840   8.613  13.675  0.1858 -0.0217  0.3052
22314W        W38123   4.688   3.439  13.619 -0.0073 -0.0987 -0.2934
22315W        W38124   0.013   7.991   0.071 -0.2221 -0.3360  0.1065
22316W        W38125   3.709   5.147  14.706 -0.2743  0.1944  0.1260
22317W        W38126   1.010  11.877  15.193 -0.0825 -0.0629  0.0215
22318W        W38127   1.564  10.046   6.057  0.0457  0.2097 -0.2739
22319W        W38128   5.687   9.485  16.237  0.0507 -0.3190 -0.0702
22320W        W38129  11.829   1.495  12.553 -0.2177  0.0301  0.0912
22321W        W38130  15.293  10.905  14.300  0.0770  0.1249 -0.5233
22322W        W38131  12.073   1.338   1.821  0.4355  0.2107 -0.2208
22323W        W38132   9.584   6.129   0.863 -0.2536  0.0531 -0.3096
22324W        W38133   1.178   1.090   2.865 -0.0713  0.0840 -0.0050
22325W        W38134  16.541   8.368   5.955 -0.0952 -0.0816  0.1770
22326W        W38135   5.812  10.230   4.490 -0.0245  0.0137  0.1918
22327W        W38136   5.370   1.272   3.224  0.3143 -0.0000 -0.0940
22328W        W38137   9.773   2.176   2.774 -0.0454 -0.0929  0.1063
22329W        W38138   5.207  17.830   1.931 -0.1686 -0.0790  0.1624
22330W        W38139   2.897   8.449  13.520  0.0152 -0.0045 -0.2385
22331W        W38140   1.734   0.604   6.137  0.1077 -0.1894 -0.1555
22332W        W38141   1.505   0.858  13.431  0.1084  0.0667 -0.0945
22333W        W38142  13.559   9.363  13.084  0.0029 -0.0986  0.3728
22334W        W38143   9.600   6.565   1.506  0.0912 -0.2193  0.0098
22335W        W38144   3.701   3.173   0.896  0.0221 -0.3622  0.0183
22336W        W38145  11.136  11.320  13.649 -0.3778  0.0411 -0.0709
22337W        W38146  10.037   6.564  16.049 -0.1737  0.1201 -0.1085
22338W        W38147  16.649  15.289   3.670 -0.1351  0.0233  0.1958
22339W        W38148  11.840  17.519   0.166  0.1675  0.2417  0.0215
22340W        W38149   9.396  16.384  15.389  0.1844  0.1264 -0.0306
22341W        W38150   7.568  17.043   3.835 -0.2054  0.1549  0.1258
22342W        W38151   7.629  17.904   3.121  0.0574 -0.1091  0.0696
22343W        W38152  17.955   3.480   4.878 -0.3514  0.0959  0.0235
22344W        W38153  14.102  14.630   4.087 -0.3590 -0.2385 -0.0569
22345W        W38154   7.835  14.062   1.116  0.0688  0.2481 -0.2530
22346W        W38155   6.054   1.446  15.510 -0.1768 -0.0207  0.2631
22347W        W38156   6.384  16.946   5.085  0.0636  0.2484  0.3439
22348W        W38157   0.818   4.495   4.988 -0.0230  0.0707  0.0166
22349W        W38158  17.095   7.517  11.521  0.1558 -0.0834  0.1076
22350W        W38159   1.605   6.580  15.451 -0.0686  0.2358 -0.0046
22351W        W38160   1.961  17.525   0.581 -0.2891 -0.1677  0.0439
22352W        W38161  17.547  12.242   1.090  0.1594 -0.0793  0.2301
22353W        W38162  14.091   3.982  13.283 -0.2182 -0.1569  0.1221
22354W        W38163   0.886   4.401  14.683  0.0837  0.4339 -0.0542
22355W        W38164  13.706   6.342  11.382 -0.0002 -0.0808 -0.0223
22356W        W38165   4.665   0.591  11.011  0.1757  0.0546 -0.1290
22357W        W38166  12.817  12.753  14.350 -0.0252  0.1179  0.3873
22358W        W38167  12.319   0.893   3.029  0.2146 -0.1652  0.2998
22359W        W38168   4.168  14.906   5.022 -0.0679 -0.1372  0.1319
22360W        W38169   3.284   7.194  13.890  0.0354 -0.0166  0.0165
22361W        W38170  10.287   5.911   4.842  0.2327  0.3115 -0.0275
22362W        W38171  12.082  15.497  15.605 -0.2035  0.0338  0.0312
22363W        W38172   9.650   2.224  15.410  0.0022  0.0674  0.0771
22364W        W38173   8.953  16.890   5.443 -0.0685 -0.1536 -0.0409
22365W        W38174  14.440   0.612  14.279 -0.0141  0.1719 -0.1905
22366W        W38175   7.122   3.808   5.037 -0.0079  0.1243 -0.0618
22367W        W38176   6.671   8.490   3.495  0.0980 -0.4270  0.0398
22368W        W38177  16.376   3.170  16.119 -0.3040  0.2121  0.1316
22369W        W38178  15.465  16.866  12.810 -0.0362 -0.1164 -0.0137
22370W        W38179   0.707  12.355  11.396 -0.1169 -0.0067  0.1345
22371W        W38180   3.844   2.896  11.220 -0.0385 -0.0179  0.0569
22372W        W38181  17.327   1.860  15.077  0.0701  0.1290 -0.0209
22373W        W38182  11.527  12.923  12.856 -0.1109  0.2381  0.0591
22374W        W38183   9.034  11.979   3.486  0.0780 -0.0594 -0.0734
22375W        W38184   1.876   6.574  10.810 -0.3327  0.1825 -0.2212
22376W        W38185   9.326  14.121  13.224  0.1280  0.1347  0.0754
22377W        W38186   9.321   8.164   1.285  0.1115  0.1862  0.3951
22378W        W38187   2.151   9.885  11.396 -0.2494 -0.0820 -0.4275
22379W        W38188  15.599   8.990  11.674  0.1118  0.0681  0.0932
22380W        W38189  17.543   7.084   0.134  0.1957  0.3613  0.1657
22381W        W38190  14.890   1.670  13.976 -0.4070 -0.0755 -0.1105
22382W        W38191   9.680  16.047   3.479  0.1552 -0.1276 -0.0622
22383W        W38192   2.111   7.583  14.114 -0.2236  0.1245  0.0632
22384W        W38193   1.063  12.886   1.695 -0.1362  0.1142  0.1137
22385W        W38194  16.699   2.645  14.194  0.1851 -0.1128  0.0630
22386W        W38195   3.832  11.168  15.436 -0.1772 -0.0083 -0.3531
22387W        W38196   9.869   8.647   1.777 -0.2985  0.3325 -0.1632
22388W        W38197  15.236   1.988  13.796  0.0765 -0.0218  0.2819
22389W        W38198  10.217   3.758  15.682 -0.0920 -0.0938 -0.0874
22390W        W38199  10.038   2.964  15.429  0.1012  0.2382  0.0117
22391W        W38200   2.051   5.722  13.769  0.3040  0.0237  0.2010
22392W        W38201  17.651  15.647  14.485  0.2213 -0.0248 -0.2518
22393W        W38202   0.552   7.705  12.346 -0.0153 -0.1158 -0.0813
22394W        W38203   9.639  13.770   0.891 -0.3317 -0.4919  0.4026
22395W        W38204   2.256  15.660   4.237 -0.1171 -0.0700  0.1822
22396W        W38205   5.422  10.962   2.158  0.0540  0.0317 -0.1739
22397W        W38206   2.004  16.222   3.676  0.1407  0.1264 -0.2801
22398W        W38207  16.526   6.078  11.099  0.2521 -0.0683  0.1835
22399W        W38208   2.685   8.120   1.232 -0.2475  0.1127 -0.2558
22400W        W38209   3.508   2.913   4.465 -0.2101 -0.0061  0.2210
22401W        W38210  15.806   9.963   3.551 -0.0905  0.0732 -0.0044
22402W        W38211  13.257  10.441   1.305  0.0154  0.1151 -0.0105
22403W        W38212   4.666  13.494   0.592  0.0391 -0.2684 -0.1275
22404W        W38213   2.762  11.255  14.481  0.1775 -0.1153 -0.0946
22405W        W38214   4.416  11.592  12.120 -0.3337 -0.2011  0.1989
22406W        W38215  14.171   3.470   1.942  0.0656 -0.1448  0.1749
22407W        W38216  16.963   4.925  16.468  0.4027  0.1386  0.0668
22408W        W38217  14.540   1.549   4.339 -0.3551 -0.0692  0.2751
22409W        W38218  13.236   8.616   1.362 -0.0788 -0.0197 -0.0600
22410W        W38219   7.872   9.590  11.586 -0.2123  0.0225  0.1025
22411W        W38220  17.335   1.757   2.633  0.0829 -0.1140  0.0248
22412W        W38221  17.933   0.668  12.396 -0.1757  0.0492  0.1373
22413W        W38222  16.283  14.289   0.223  0.0653 -0.1652  0.1409
22414W        W38223  13.748  10.858   4.949 -0.2353 -0.3208 -0.2962
22415W        W38224   9.378   0.883   3.332  0.2947 -0.2830  0.1517
22416W        W38225   8.114  15.132   6.096 -0.0741 -0.1365 -0.0195
22417W        W38226   2.731  11.378   0.627  0.1129  0.1440 -0.0383
22418W        W38227  14.165   8.139  14.287 -0.0138  0.1042  0.2512
22419W        W38228  12.511   0.452   2.828  0.1566  0.3575 -0.0559
22420W        W38229   2.715  15.701   4.490  0.3851  0.1434  0.1738
22421W        W38230   2.222  11.563  16.437  0.3357  0.0518  0.1924
22422W        W38231  12.357   9.768   0.510 -0.2364 -0.1735  0.4676
22423W        W38232  17.929   0.227  11.155  0.0845  0.0208  0.2577
22424W        W38233  17.393   9.147   0.578 -0.1919  0.0157  0.1181
22425W        W38234  17.346   2.824   2.574 -0.0657 -0.1072 -0.3548
22426W        W38235   2.029   0.576  13.229  0.3632 -0.0239  0.1466
22427W        W38236   6.982  13.268   2.395  0.2357 -0.0063  0.2050
22428W        W38237   0.337   5.670  11.092 -0.1316  0.1314 -0.0833
22429W        W38238  13.183  15.686   5.194  0.1127 -0.1097  0.1213
22430W        W38239  14.351  17.692  16.586  0.1994  0.1168  0.0782
22431W        W38240   1.796  13.951   2.794 -0.2545 -0.1587  0.1722
22432W        W38241   5.600  16.704   5.594 -0.2065  0.0273 -0.0885
22433W        W38242   4.031  14.577   1.569  0.1941 -0.0862  0.1524
22434W        W38243  10.745  17.037  14.435 -0.0711  0.0534  0.0705
22435W        W38244   0.974   5.876   4.070  0.1109 -0.0644 -0.0172
22436W        W38245  14.496  13.359   2.239  0.3393 -0.0795  0.0892
22437W        W38246   3.396   8.752   4.694 -0.3500  0.1245 -0.3491
22438W        W38247   8.947   6.748   4.559 -0.1734 -0.3267 -0.0465
22439W        W38248   3.449   8.993   1.954 -0.0241  0.1206 -0.2208
22440W        W38249  16.296   8.668  11.152 -0.0545  0.2127  0.2932
22441W        W38250   2.104   3.779   1.120 -0.1442  0.2270  0.2208
22442W        W38251   9.083  14.790   5.410 -0.4706 -0.0884  0.1053
22443W        W38252  11.232   7.853  16.414 -0.0651 -0.3130  0.1437
22444W        W38253   2.405  11.650  12.176  0.1450  0.0333 -0.1792
22445W        W38254   8.267  15.833   1.892 -0.2998 -0.1503 -0.1836
22446W        W38255   0.815   9.485   2.568  0.3360 -0.0555 -0.1408
22447W        W38256   8.513   2.844  13.198 -0.0486  0.1793 -0.0631
22448W        W38257  12.570   6.754   0.652 -0.1831  0.3267  0.2954
22449W        W38258   4.886  14.399  14.444  0.1652  0.1777 -0.0304
22450W        W38259   5.029  15.080  12.127 -0.3311  0.0860  0.2323
22451W        W38260  17.665  11.297  13.073  0.0500 -0.2250  0.0350
22452W        W38261   8.472   3.685  15.353 -0.3538 -0.0929 -0.2304
22453W        W38262  17.912  11.438   1.055 -0.1384 -0.1925  0.2855
22454W        W38263   8.165   7.328   4.954  0.1388 -0.1041 -0.3304
22455W        W38264  13.431   2.151   5.510  0.2269  0.1462 -0.0188
22456W        W38265   1.311   9.379  11.463 -0.0248  0.0995 -0.1378
22457W        W38266  17.887   3.113   1.961 -0.1791 -0.0287 -0.2101
22458W        W38267   6.794   7.496   0.688  0.0271 -0.1517  0.0874
22459W        W38268  15.458   9.497   1.275 -0.3867  0.0408 -0.2695
22460W        W38269   8.701  12.594  14.395 -0.2553  0.1125 -0.1603
22461W        W38270   5.317  16.085   3.791 -0.2723  0.1948  0.1756
22462W        W38271   8.738   2.331  15.721  0.1348 -0.1248  0.1718
22463W        W38272   5.257   8.985  11.549 -0.0866  0.0043  0.0847
22464W        W38273   8.138  11.540  14.504 -0.2107 -0.2106 -0.0472
22465W        W38274  14.779   3.209  11.434  0.0251  0.0209  0.2233
22466W        W38275   3.723   6.465  10.838 -0.1236 -0.0783  0.3431
22467W        W38276   5.059   5.526  11.902  0.0549 -0.0636  0.2149
22468W        W38277  10.382   5.226   3.024 -0.2441  0.2417  0.0312
22469W        W38278   5.143   0.697   2.956 -0.1359  0.1767  0.0164
22470W        W38279   0.410  12.113   4.717  0.5462  0.1906 -0.1398
22471W        W38280  14.398  14.397  11.928 -0.1139  0.2000  0.2787
22472W        W38281  11.442   4.323   0.695 -0.2349  0.3608  0.1099
22473W        W38282  17.773   9.251   3.323 -0.3446 -0.1854  0.0176
22474W        W38283   4.991   2.839  14.914  0.1641 -0.1340 -0.1441
22475W        W38284   7.919   7.848  16.109  0.2212 -0.1089 -0.1311
22476W        W38285   5.967  10.693   0.828  0.0829 -0.0064  0.5303
22477W        W38286   9.449  14.938   5.770  0.0397  0.2040 -0.2459
22478W        W38287  12.170   9.264  16.015  0.1386 -0.1528  0.0861
22479W        W38288  10.220  11.774   4.406 -0.0976 -0.3184  0.2763
22480W        W38289  17.332   3.131   5.350  0.0431  0.2400  0.1259
22481W        W38290  11.555  10.896   5.406  0.1182 -0.0587  0.2796
22482W        W38291   2.719  14.003  11.684  0.0861  0.0042  0.2421
22483W        W38292  17.891   0.199   4.194  0.0954 -0.2187 -0.0435
22484W        W38293   0.832  15.220   5.453 -0.0847  0.1695 -0.3045
22485W        W38294   9.298   6.686   4.991  0.0479  0.0986 -0.3153
22486W        W38295  17.829   1.377  14.376 -0.0312  0.3846 -0.0486
22487W        W38296   1.734   1.924   3.857 -0.0859  0.0164 -0.0070
22488W        W38297  14.492   1.176  12.907  0.1948 -0.0435  0.0833
22489W        W38298  17.305   1.510   3.464 -0.1680  0.0664 -0.0108
22490W        W38299   8.971  17.421   3.435  0.2761 -0.0182  0.2785
22491W        W38300  17.907   4.396   1.351 -0.1342  0.1818  0.2636
22492W        W38301   0.206   5.176  12.688  0.2122 -0.0162 -0.2050
22493W        W38302   8.984   9.537  11.579  0.1427  0.0822 -0.0950
22494W        W38303   7.257  13.646   4.085 -0.3882 -0.1217  0.0852
22495W        W38304   4.502   5.402  13.612 -0.0705 -0.1280  0.0338
22496W        W38305   8.018   3.621   5.537 -0.1305 -0.1889  0.0409
22497W        W38306   8.428   1.575  12.353  0.0242  0.0355 -0.1066
22498W        W38307  11.080   4.413   5.672  0.0629  0.1631  0.2360
22499W        W38308   0.184  10.448   2.473  0.2935  0.1309 -0.2017
22500W        W38309   5.107   2.171  16.127  0.4164 -0.1828 -0.2825
22501W        W38310  16.331   6.806   2.496 -0.1737 -0.0919  0.0577
22502W        W38311  12.072  17.664   3.833  0.1792  0.1577  0.1135
22503W        W38312  13.754   2.640  15.117 -0.1456 -0.1701  0.1835
22504W        W38313   4.485  14.031   3.666  0.2219  0.3619  0.2079
22505W        W38314   1.231   4.591   3.887  0.1341 -0.0649 -0.2887
22506W        W38315   6.089   0.114   0.757  0.1240  0.2055  0.1130
22507W        W38316   9.414  13.243  16.444  0.0494  0.0434 -0.1750
22508W        W38317  14.909   1.236   2.532 -0.1851 -0.0128 -0.0249
22509W        W38318  17.435   3.331   2.767  0.1155  0.0244 -0.2236
22510W        W38319  14.430   1.506  14.700 -0.0133  0.0311 -0.0047
22511W        W38320   7.520   7.161   2.266 -0.0287  0.2038 -0.1345
22512W        W38321   9.756  13.461  13.524  0.1738  0.1991 -0.1015
22513W        W38322  16.769  17.710  14.414  0.2784 -0.2344  0.0063
22514W        W38323  16.458   1.404  13.643  0.0131  0.0939  0.0435
22515W        W38324   1.654   3.099  16.450  0.1548 -0.0775  0.0500
22516W        W38325   6.948   0.481  12.812 -0.0749  0.0198 -0.0989
22517W        W38326   5.476   6.191  11.443  0.2786 -0.0772 -0.2396
22518W        W38327  17.921  14.465  14.033 -0.0201 -0.0915 -0.1024
22519W        W38328   4.773   6.530  16.287 -0.1600 -0.1233 -0.2576
22520W        W38329   9.504   9.237  16.532  0.0630  0.4065 -0.0831
22521W        W38330  17.777  10.234  14.716  0.0864 -0.0940 -0.1020
22522W        W38331   3.962  11.859   3.601  0.0569  0.3059  0.0520
22523W        W38332   9.487   8.281   5.589 -0.2163  0.1665 -0.0220
22524W        W38333  13.818   5.454  13.291  0.0524  0.0830 -0.1907
22525W        W38334   3.904  14.106  13.011  0.1347 -0.0730 -0.0225
22526W        W38335   6.995  15.223  13.174 -0.3337 -0.3441 -0.0236
22527W        W38336   1.207  13.503   3.483 -0.1891 -0.1639  0.0047
22528W        W38337   1.296  10.921   2.286 -0.0334 -0.0930 -0.1101
22529W        W38338   3.634   7.858   0.329  0.0558  0.3127 -0.2792
22530W        W38339   8.570   8.727   2.657 -0.3853  0.0019 -0.3251
22531W        W38340   9.043   4.050   3.192 -0.2827 -0.3128 -0.1319
22532W        W38341   0.351   6.412  11.773 -0.0620 -0.2343 -0.0235
22533W        W38342  13.561  11.687  13.141  0.2462 -0.3203 -0.1568
22534W        W38343  12.297   8.595   0.136 -0.0217  0.0226 -0.1478
22535W        W38344  12.108  16.624   4.001 -0.1370 -0.0618  0.1499
22536W        W38345   8.179  12.238  13.620  0.1674 -0.1686  0.0991
22537W        W38346  14.977  11.764   2.026 -0.0244 -0.1152 -0.2522
22538W        W38347   5.316   7.976  14.710  0.0910  0.0311 -0.0485
22539W        W38348   6.441  17.550  15.564  0.2136 -0.2230  0.1766
22540W        W38349  16.673  14.392  15.285 -0.1797  0.1158  0.2115
22541W        W38350   6.057   5.051   4.077  0.2213 -0.1774 -0.0564
22542W        W38351  11.559  16.013  14.552  0.0625 -0.0026  0.0201
22543W        W38352  17.056   9.544  12.170 -0.3563 -0.1426  0.2710
22544W        W38353   7.522   1.056  12.045 -0.0833 -0.1765  0.0898
22545W        W38354   2.381   3.373  12.425  0.1040  0.0067 -0.0291
22546W        W38355  15.636   3.878  12.267  0.2026  0.0275  0.1256
22547W        W38356   1.414   7.157  16.285  0.1281  0.1891  0.1381
22548W        W38357   7.161  16.404  11.801  0.0565  0.3816 -0.0347
22549W        W38358   7.807  15.420   1.421  0.0979 -0.1296  0.1264
22550W        W38359  17.141   2.809   3.602 -0.0368 -0.0716  0.0597
22551W        W38360   0.830   8.779   4.257  0.1232  0.0819  0.0967
22552W        W38361   4.685   1.647   2.916  0.1103  0.1923  0.2462
22553W        W38362  15.161  14.025   2.344 -0.0761  0.0353  0.2458
22554W        W38363   5.734  14.796  11.527  0.0747 -0.0367  0.3230
22555W        W38364   5.738   2.924   1.730 -0.3637  0.0440 -0.1078
22556W        W38365  11.357  11.994  15.384  0.0775 -0.1085 -0.1518
22557W        W38366  11.430  17.564   0.621  0.1310 -0.2780  0.3390
22558W        W38367  15.882   3.439  12.448 -0.0561 -0.0224 -0.2075
22559W        W38368  14.728   4.204   3.026  0.0043 -0.2688  0.0036
22560W        W38369   5.828   9.218  14.968 -0.4020  0.2632  0.1149
22561W        W38370   3.132   1.976   2.222  0.2285  0.1933  0.2064
22562W        W38371  11.250  15.524  12.724 -0.1278  0.3997  0.2967
22563W        W38372   8.880   0.184  15.701 -0.0518 -0.1732  0.2494
22564W        W38373   5.632   5.117  14.956  0.0789 -0.1321 -0.1521
22565W        W38374  16.116  10.246  15.365 -0.0109  0.1852 -0.1110
22566W        W38375  12.551  17.682   3.089 -0.0946 -0.0344 -0.0479
22567W        W38376  11.499   7.588   5.442  0.0596 -0.0581 -0.1990
22568W        W38377  16.867   1.557  14.780 -0.0808  0.2261  0.4743
22569W        W38378  12.254   7.250  16.027  0.1007 -0.0348  0.0354
22570W        W38379   3.974   1.563   3.406  0.0369 -0.1140 -0.1511
22571W        W38380   1.338   5.703  16.493 -0.0064  0.0634  0.0144
22572W        W38381  14.424   4.367   0.171 -0.2674  0.0294 -0.2232
22573W        W38382   9.001   4.963   2.957 -0.1366 -0.0513  0.0366
22574W        W38383   9.298  14.949  11.678 -0.0121  0.1183 -0.1139
22575W        W38384  17.326  17.634   0.235  0.1591  0.4632  0.2890
22576W        W38385   1.696   2.141   4.586 -0.0815 -0.3848 -0.1153
22577W        W38386   6.668   1.284   0.514 -0.2080  0.0895 -0.0938
22578W        W38387   5.173   5.059   1.307  0.0171 -0.1373  0.1220
22579W        W38388   2.159   8.992  11.272 -0.0748  0.0108 -0.0594
22580W        W38389  14.509  15.244   4.834  0.2374 -0.0522 -0.0749
22581W        W38390  10.083   4.327  11.523  0.0336 -0.0675  0.0048
22582W        W38391  12.668   9.826   3.725 -0.0976 -0.1482  0.2158
22583W        W38392  12.829   4.443   4.057 -0.0897 -0.3074  0.0007
22584W        W38393   9.761  10.209   2.595 -0.0351  0.0209  0.0055
22585W        W38394  17.505   3.380  10.842 -0.1139  0.0631  0.0446
22586W        W38395   7.602  14.359   3.455 -0.0944  0.1172 -0.0596
22587W        W38396   5.167   0.020   5.669  0.0209 -0.0860 -0.0994
22588W        W38397   4.923   4.398   0.763 -0.1143  0.2420 -0.0159
22589W        W38398  11.153  16.002  13.001  0.2579 -0.1231 -0.0436
22590W        W38399  15.513   6.579   3.489  0.2358  0.0113  0.0283
22591W        W38400  17.590   7.064   4.210 -0.1034 -0.1229  0.1568
22592W        W38401   4.245   7.942  12.094  0.3594  0.1389 -0.0679
22593W        W38402   8.819   4.926   0.824  0.0552  0.1234  0.0096
22594W        W38403   0.849   7.057   0.727 -0.1480  0.2422  0.3854
22595W        W38404   4.760   5.006  11.990  0.0051 -0.1163 -0.1555
22596W        W38405  17.193  10.325  13.127 -0.2402  0.0235 -0.2532
22597W        W38406   3.350   3.058  11.119  0.0005  0.0880 -0.0805
22598W        W38407   4.829   3.726  12.033  0.0341  0.0090 -0.3154
22599W        W38408   2.847   0.486  11.690 -0.1334 -0.0216 -0.0860
22600W        W38409  14.547  10.947  16.136  0.1963  0.3094  0.0848
22601W        W38410   4.241   1.350   1.196 -0.1117  0.1824  0.1281
22602W        W38411   9.144  10.531  16.084  0.0083 -0.0935  0.0988
22603W        W38412   3.221   9.400  14.041 -0.2344 -0.0630 -0.0204
22604W        W38413   5.373  17.382  14.192  0.2257  0.0963  0.1236
22605W        W38414   5.183  15.980  12.182 -0.1502 -0.0558  0.1379
22606W        W38415   8.582   4.120  15.118 -0.0424  0.1368 -0.0837
22607W        W38416   9.425  14.407   5.115 -0.0835  0.2328 -0.0755
22608W        W38417  12.822  15.564  16.076  0.0458 -0.1614  0.0462
22609W        W38418   8.533   4.342  16.462 -0.2394  0.0983  0.0759
22610W        W38419   6.004   4.929  15.232 -0.0635  0.0278  0.0543
22611W        W38420  11.685   9.387   3.057  0.0632 -0.1401  0.1900
22612W        W38421   0.567   5.611   1.950  0.2091 -0.1602  0.2080
22613W        W38422   4.595  17.343  12.680 -0.3076 -0.1094 -0.0776
22614W        W38423  12.626   6.270   2.332  0.1964 -0.1069  0.4335
22615W        W38424   6.953   2.994   0.665  0.2733 -0.1154 -0.1327
22616W        W38425   2.262   5.593   0.709  0.2862 -0.1791  0.1017
22617W        W38426  17.479   7.608  11.899  0.1038 -0.2684 -0.0105
22618W        W38427  10.989  11.812  14.733 -0.2406 -0.1380  0.0381
22619W        W38428  16.434  17.486   1.957 -0.0171 -0.1749  0.1045
22620W        W38429   8.133   0.305  15.932  0.1241  0.1053  0.0839
22621W        W38430   2.603   7.671   5.211  0.1751 -0.1332 -0.0055
22622W        W38431   0.291   2.310  13.326  0.0411 -0.2448  0.0916
22623W        W38432   5.443   7.438  15.391 -0.2624  0.1293 -0.0934
22624W        W38433   3.192   6.112   3.618  0.1226  0.1371 -0.0502
22625W        W38434   4.632   7.397  12.695  0.3431 -0.1979  0.0389
22626W        W38435  11.396   9.895  15.310 -0.0059  0.0306  0.1588
22627W        W38436  13.385   1.698   5.179  0.1693  0.1065  0.0856
22628W        W38437   4.051  14.868  11.013  0.1403 -0.0076 -0.0453
22629W        W38438  10.797  12.236   0.736  0.1207 -0.0194 -0.0767
22630W        W38439  13.315  14.741   1.618  0.1603 -0.2008  0.0659
22631W        W38440  11.348  16.279  15.734  0.3234 -0.1095  0.5102
22632W        W38441   7.779  16.863  14.778 -0.4345 -0.0723  0.2290
22633W        W38442   8.142  10.807   2.389  0.1777  0.3548  0.3229
22634W        W38443  13.007   3.421   0.541 -0.2374  0.0080  0.4024
22635W        W38444  14.832  12.232  12.808 -0.0369  0.3117 -0.3998
22636W        W38445   6.939   0.177  11.386  0.0333  0.1263 -0.0809
22637W        W38446   7.281  13.692  14.171  0.1513  0.0292  0.1192
22638W        W38447  10.188   0.568   3.539  0.1939 -0.1772  0.1825
22639W        W38448  11.753   0.281  15.275  0.2336 -0.1950 -0.1919
22640W        W38449  10.645  10.474  15.282  0.0243  0.1992 -0.1017
22641W        W38450  12.434   0.954   2.344 -0.5455  0.2509  0.2404
22642W        W38451   1.545  10.051   4.504 -0.2398  0.3472  0.2906
22643W        W38452   0.446  16.661   5.982  0.0714 -0.1116  0.0319
22644W        W38453  16.481  13.051  14.915 -0.0057 -0.2631  0.1416
22645W        W38454   7.203  15.192  15.174 -0.1110  0.1123  0.1610
22646W        W38455   9.331  17.403  16.243 -0.1289  0.3147  0.2152
22647W        W38456   1.461   4.255   4.238  0.1189  0.0730  0.0225
22648W        W38457  17.507   2.666  14.529  0.0349 -0.1579  0.0141
22649W        W38458   2.900  16.184   0.745 -0.0441 -0.0876 -0.2031
22650W        W38459   5.128   5.236  14.845  0.1866  0.2815  0.0290
22651W        W38460   3.293  17.616  15.774  0.1465 -0.1766 -0.2655
22652W        W38461  17.346   0.590  13.027  0.0033  0.0086 -0.2653
22653W        W38462   6.927   3.614  11.341 -0.0262  0.0424  0.5071
22654W        W38463   3.633   4.746   2.618  0.2295  0.1473 -0.4019
22655W        W38464   0.464   8.991  12.927  0.0523  0.4861 -0.1320
22656W        W38465  10.226   8.294  14.091 -0.1645 -0.3787 -0.0163
22657W        W38466  14.595  11.492  14.053 -0.0867  0.0894 -0.0755
22658W        W38467   5.070  10.820  16.375  0.0545  0.2143 -0.1297
22659W        W38468   5.586   7.431   0.017  0.0570 -0.0395 -0.0160
22660W        W38469   5.258   2.136   2.461  0.0014 -0.3667 -0.1149
22661W        W38470   0.828   5.185  12.736 -0.1192 -0.2820  0.0354
22662W        W38471   7.092   3.240  16.475 -0.2126 -0.0430  0.0712
22663W        W38472  11.859  11.471  12.242  0.0455  0.0361  0.0520
22664W        W38473   0.737   8.238   2.655 -0.2014 -0.1558 -0.1102
22665W        W38474   5.982  15.503   2.901  0.1137  0.0503 -0.1760
22666W        W38475   2.166  15.695   1.124 -0.0371 -0.3420  0.0687
22667W        W38476   8.690  11.487  14.558  0.1769 -0.0994  0.3778
22668W        W38477  13.287  16.270   0.677  0.0850 -0.1819  0.0098
22669W        W38478   9.061  10.566   3.900 -0.0148  0.0308  0.3224
22670W        W38479  10.151  11.468   1.092  0.4539  0.2052 -0.0881
22671W        W38480   3.097  10.296   2.081  0.3021  0.0753  0.0116
22672W        W38481   7.679   0.917  14.871  0.1067  0.0540 -0.3509
22673W        W38482  16.688   3.142  13.389 -0.1429  0.1107  0.0896
22674W        W38483  17.336   9.613  11.418  0.1108  0.0496  0.2747
22675W        W38484   7.859   1.348   1.168 -0.0154 -0.0422  0.1325
22676W        W38485   8.256   9.674   4.953 -0.2673  0.0689 -0.1234
22677W        W38486  13.662   4.582   2.932  0.3525  0.0481 -0.0314
22678W        W38487   7.657  13.861   0.626 -0.2780  0.1595 -0.1754
22679W        W38488  17.262  11.148  13.313 -0.0482  0.0842 -0.0477
22680W        W38489   0.299   6.613   2.536 -0.1382  0.1654  0.1102
22681W        W38490  16.367   4.902   4.786 -0.1889 -0.1600 -0.3123
22682W        W38491  15.205   7.989   5.780 -0.1141  0.3418  0.0297
22683W        W38492  15.860   6.297  15.215  0.2298 -0.0762 -0.0753
22684W        W38493   2.239   5.685  10.965 -0.0984 -0.0451  0.3440
22685W        W38494  15.233   6.719  16.018 -0.1958 -0.0817  0.1394
22686W        W38495  14.746   6.856   5.139 -0.0760  0.0209 -0.2191
22687W        W38496   8.375   5.446  13.423 -0.0226  0.1692 -0.2549
22688W        W38497   4.440   7.960   1.722  0.0991 -0.1243  0.0363
22689W        W38498   8.746  13.012  10.521 -0.3053 -0.2869 -0.0719
22690W        W38499   6.842   5.310  15.712 -0.1297 -0.0113  0.1995
22691W        W38500  12.522  10.392   1.476 -0.3139 -0.0568 -0.3858
22692W        W38501   3.995   6.220  15.704 -0.4372  0.2316 -0.0121
22693W        W38502  14.166  16.552   5.730 -0.0062 -0.0103 -0.1294
22694W        W38503  12.022   4.569  11.819  0.2878 -0.0567  0.2103
22695W        W38504   1.190  12.977  11.722  0.0218 -0.0321 -0.3445
22696W        W38505   3.514   0.653  14.817  0.0995 -0.1043  0.1715
22697W        W38506  10.482  16.357   4.790  0.0689 -0.0430  0.1266
22698W        W38507   0.766  10.213   4.913 -0.0101  0.1945 -0.1861
22699W        W38508  16.636  14.109  16.193 -0.0934 -0.0420  0.0035
22700W        W38509   3.286  11.179   3.723  0.2809 -0.0641  0.3507
22701W        W38510  14.204   2.291   4.664  0.0136  0.1954  0.1339
22702W        W38511   5.907  11.512  11.521 -0.0103 -0.0728 -0.2721
22703W        W38512   8.721   5.272   2.182  0.0799 -0.1309  0.2295
22704W        W38513  13.657   6.940  12.233 -0.2031 -0.0446  0.0022
22705W        W38514   1.191   2.014  15.353 -0.1397  0.0769 -0.1541
22706W        W38515   9.953  10.759  13.140  0.3785  0.0062 -0.0946
22707W        W38516   1.861   5.911   3.451  0.1170 -0.1304 -0.0207
22708W        W38517   1.873   7.466  15.162  0.0415 -0.0326 -0.0649
22709W        W38518  10.817   7.948   1.149  0.0478 -0.2494 -0.0162
22710W        W38519  15.354   3.386  16.044  0.1469 -0.0510 -0.2556
22711W        W38520   9.453  17.572  16.699 -0.1499  0.1488 -0.0356
22712W        W38521   9.418  12.043  11.942  0.0757 -0.2313  0.2422
22713W        W38522  12.283   4.388  12.682  0.2008 -0.1527  0.3686
22714W        W38523  16.428   5.865   2.080 -0.1851  0.0504  0.0016
22715W        W38524   1.373   9.135  14.749  0.0798 -0.1228 -0.0826
22716W        W38525   1.828   9.723   1.910 -0.0689 -0.0636 -0.0485
22717W        W38526  11.670  10.889  15.530 -0.0161  0.3656 -0.2617
22718W        W38527  10.720   9.860   1.610 -0.1019  0.1309  0.1156
22719W        W38528   5.088  11.825  11.911 -0.1601  0.2345 -0.0692
22720W        W38529  13.567  14.425   2.390  0.1027  0.1048 -0.1663
22721W        W38530  17.847   8.850  13.842  0.1008  0.1989 -0.2389
22722W        W38531   5.156   4.293  14.701  0.0233  0.2717 -0.1051
22723W        W38532   5.866   6.387   3.194  0.2100 -0.0759 -0.1460
22724W        W38533  14.296  14.032   2.312  0.0104 -0.2487 -0.1520
22725W        W38534  15.385   4.280   6.008  0.1391  0.0515 -0.1148
22726W        W38535  15.632   2.956   0.224  0.0926  0.2228 -0.3661
22727W        W38536  17.402  15.804   5.361  0.1877  0.0186  0.4965
22728W        W38537   7.329   5.896  14.495 -0.2885  0.0147  0.2914
22729W        W38538  15.760  11.871   3.381 -0.0587 -0.1193  0.0377
22730W        W38539   1.289   4.320   3.387 -0.0304 -0.2021 -0.1618
22731W        W38540  15.245   9.543  14.479 -0.1306 -0.1123  0.1401
22732W        W38541   5.880  16.707  14.878  0.0001  0.1437 -0.1156
22733W        W38542   7.151  11.826  14.638  0.0999  0.0670 -0.1630
22734W        W38543   2.863   4.016   2.356  0.0180 -0.4438  0.1070
22735W        W38544  15.734  10.823   0.311 -0.2635  0.2091 -0.1124
22736W        W38545   6.705  10.449  14.277  0.0081 -0.2136  0.1656
22737W        W38546   0.336  12.446   6.422 -0.4503 -0.4581 -0.5055
22738W        W38547   7.549   1.834   0.413 -0.2197 -0.1123  0.0784
22739W        W38548  13.638  15.197  14.600  0.0303  0.1057  0.1127
22740W        W38549   6.766   0.960  16.519 -0.3346 -0.0555 -0.0425
22741W        W38550  16.929  17.158  11.658 -0.0676  0.1215  0.1962
22742W        W38551   6.303  15.939  13.235  0.2734  0.2525 -0.3594
22743W        W38552   4.784  14.361   4.049 -0.0804 -0.3539 -0.2196
22744W        W38553   2.446  11.217  11.856  0.0951 -0.2788  0.2729
22745W        W38554  10.290   7.188  16.499  0.3545 -0.0390  0.1733
22746W        W38555   8.361   6.346  14.987  0.0560  0.0418  0.0311
22747W        W38556   2.325   2.468   4.035 -0.1133  0.1266 -0.1173
22748W        W38557   9.430   9.751  14.901  0.0345 -0.2281  0.1045
22749W        W38558   5.771   6.176  16.532  0.1822 -0.0802  0.0774
22750W        W38559   5.642   6.214   3.580  0.0068 -0.0328 -0.0950
22751W        W38560   3.155  13.544  16.669  0.5113 -0.0351 -0.1962
22752W        W38561   5.191   8.814   5.278 -0.1797  0.1066  0.2898
22753W        W38562   3.612  11.555  14.562  0.0070  0.0118  0.0233
22754W        W38563   7.042  10.954  13.694 -0.2071  0.0177 -0.1327
22755W        W38564   7.621   4.445   1.172 -0.1424  0.0417  0.0670
22756W        W38565  16.334   0.368  14.712 -0.0047 -0.1012  0.0599
22757W        W38566  12.883   2.942  16.095 -0.0038 -0.1787 -0.0087
22758W        W38567  13.916  15.855   6.230  0.0928 -0.1664 -0.0708
22759W        W38568   8.197   9.686   0.747 -0.2590 -0.1775  0.2309
22760W        W38569  11.057  15.679   1.692 -0.2113  0.0879  0.1048
22761W        W38570   9.209   2.318   2.768 -0.2543 -0.1576  0.1973
22762W        W38571  16.694   6.056  15.593 -0.2090  0.0325  0.2745
22763W        W38572  17.220   2.274   0.821  0.2563  0.1995 -0.3342
22764W        W38573  16.167  15.330  15.326 -0.1074 -0.1227 -0.1823
22765W        W38574  11.738   8.972   5.202 -0.1304  0.0230 -0.0853
22766W        W38575  12.700  15.888   5.074  0.0880 -0.0931 -0.5294
22767W        W38576   9.254   1.535  13.059  0.2830  0.0934 -0.0333
22768W        W38577  14.129   2.870   4.836 -0.1596 -0.1544 -0.2785
22769W        W38578   7.125   6.133  12.882 -0.1085  0.2557  0.0243
22770W        W38579   0.947   6.144   3.010 -0.1739 -0.2254 -0.0405
22771W        W38580   7.016   5.128   5.140 -0.1751 -0.2393  0.1882
22772W        W38581  16.018  13.266  13.624 -0.0317 -0.0110  0.2766
22773W        W38582  11.460  13.016  12.352 -0.1312 -0.1066  0.0962
22774W        W38583   4.196  12.644   2.016  0.0614 -0.0283 -0.3668
22775W        W38584   1.359  17.424   3.107  0.2974  0.1329  0.1153
22776W        W38585   6.689  17.912  13.591  0.1098 -0.0956 -0.2766
22777W        W38586  13.746   3.551   3.333 -0.0372 -0.1370  0.0292
22778W        W38587  11.021   7.969   4.270  0.2025  0.0537 -0.5268
22779W        W38588  17.560   3.490  12.519  0.0316  0.0667 -0.0644
22780W        W38589  12.642   8.961   1.512 -0.1857 -0.3447  0.1617
22781W        W38590  11.150  10.102  11.749 -0.1814 -0.0508 -0.0421
22782W        W38591   2.142   7.493   3.113  0.0704 -0.1025 -0.2375
22783W        W38592   7.913   8.529   4.041 -0.3305 -0.0016  0.2860
22784W        W38593  15.694  13.662  13.990 -0.2341 -0.2638  0.0724
22785W        W38594  14.715  12.503   5.665  0.0003  0.1616  0.0344
22786W        W38595   4.005  11.973  14.472 -0.1421  0.1055  0.0098
22787W        W38596  17.035   6.829  12.320 -0.1205 -0.0492 -0.3083
22788W        W38597   0.098   9.817  14.685  0.5092 -0.1783 -0.0195
22789W        W38598   7.096   9.789   1.896  0.2583 -0.2413  0.2094
22790W        W38599   7.354  16.234   3.554 -0.0083  0.0316 -0.0036
22791W        W38600  14.512  11.522   2.726  0.0251 -0.0899  0.1866
22792W        W38601  14.502  16.522  12.289  0.1870 -0.0256  0.1406
22793W        W38602   0.085   7.709   1.990 -0.2327  0.0186  0.0178
22794W        W38603  11.538  11.137  12.519 -0.3474 -0.1662  0.1067
22795W        W38604   7.658   5.622  15.144 -0.5680  0.0321 -0.2312
22796W        W38605  13.629  13.970   3.169 -0.1050  0.1215  0.0695
22797W        W38606  15.236  13.128   4.701  0.1759  0.0797 -0.2393
22798W        W38607   7.486   5.538   3.392  0.0320  0.1234 -0.1923
22799W        W38608  14.752   6.013   0.470 -0.1593 -0.0176  0.0002
22800W        W38609  13.716   2.592   4.713 -0.1353 -0.0959 -0.0853
22801W        W38610   8.841  16.065  13.171 -0.0808  0.0704 -0.0995
22802W        W38611  11.934   1.079   4.282  0.0232  0.0121  0.3479
22803W        W38612   5.372  14.940  16.442 -0.0194 -0.1223 -0.2622
22804W        W38613   9.363  15.149   2.004  0.4757  0.4480 -0.2016
22805W        W38614   8.071  12.760   5.917  0.1242  0.0627  0.0415
22806W        W38615  10.674  16.477  13.718 -0.2324 -0.1623  0.1509
22807W        W38616   4.211  10.156  10.644  0.0370 -0.0529  0.2866
22808W        W38617  16.009   6.437   5.292 -0.2118  0.1507 -0.0007
22809W        W38618  17.478   7.819  13.128  0.1533 -0.1847 -0.0898
22810W        W38619   3.248   0.590   5.095 -0.0917 -0.0662 -0.0129
22811W        W38620   5.858   0.117  12.150  0.0320  0.1718 -0.0911
22812W        W38621   0.332   3.806  12.079 -0.1323  0.4271 -0.0650
22813W        W38622  12.659   0.554  13.582  0.0573 -0.2282 -0.2377
22814W        W38623   1.661   5.243  11.606  0.0786  0.1664 -0.0913
22815W        W38624  10.176  14.283   3.010 -0.2107  0.2543  0.0040
22816W        W38625  13.553  13.875   4.744  0.1445 -0.3936 -0.0405
22817W        W38626  10.082  17.550  13.692  0.2164 -0.0253  0.2253
22818W        W38627   4.117  13.368  16.363 -0.0644 -0.2821 -0.4974
22819W        W38628  13.240   6.922  14.296 -0.0365  0.1650  0.0504
22820W        W38629   1.848   8.406   0.096 -0.1144  0.1977 -0.0789
22821W        W38630  17.061  15.879   3.317 -0.1670  0.1323 -0.1811
22822W        W38631  10.412  14.603  12.036 -0.2607 -0.1303  0.1904
22823W        W38632  13.445   3.717   4.637  0.4154  0.3644  0.0455
22824W        W38633  15.806   3.813   2.284  0.1541  0.3011  0.2405
22825W        W38634   1.888  12.378   4.979 -0.0663  0.1200 -0.1894
22826W        W38635   9.721   5.881   1.311  0.1122  0.1808 -0.1126
22827W        W38636  14.910   5.650  10.883 -0.2792  0.4620 -0.1902
22828W        W38637  12.510   5.083  13.717  0.0317 -0.2853  0.0027
22829W        W38638  17.515  17.746   2.820 -0.1485 -0.1488  0.1831
22830W        W38639   5.399  14.896   4.652  0.1025 -0.1103 -0.0318
22831W        W38640  17.108  15.483  13.380 -0.2609 -0.2338  0.0378
22832W        W38641   6.123   8.683  10.792  0.0784  0.0512 -0.1757
22833W        W38642  14.207  10.000  15.386 -0.0220  0.5529  0.1444
22834W        W38643   1.940   6.332  11.689 -0.1789  0.0019 -0.0676
22835W        W38644   5.468   5.261   4.813 -0.0481  0.0135  0.1084
22836W        W38645  17.582   0.805   0.995  0.0449 -0.0332  0.1556
22837W        W38646  11.702   9.092   4.738  0.0718 -0.0050  0.2323
22838W        W38647  13.611   9.966  14.157  0.1634  0.3143 -0.0945
22839W        W38648  13.012  10.699   2.826 -0.0915  0.0458  0.1711
22840W        W38649   6.970   6.183   1.289  0.1690  0.1068  0.1188
22841W        W38650   8.667  15.980   1.078 -0.2131  0.0310  0.1368
22842W        W38651  11.622   9.433  14.738 -0.1349 -0.0086 -0.1893
22843W        W38652   2.592   9.021   4.638  0.2090  0.0915  0.1420
22844W        W38653   5.489   5.748   3.679  0.1619  0.1101 -0.0494
22845W        W38654  12.240  11.255   0.652 -0.0065 -0.0241  0.0824
22846W        W38655  11.132   0.752   2.462 -0.0472 -0.0310  0.0204
22847W        W38656  14.151   4.087  14.403 -0.1226 -0.0515 -0.1253
22848W        W38657   5.047   5.070  11.620 -0.2679  0.0475  0.2014
22849W        W38658   7.748  15.242  12.280  0.0087 -0.1708  0.1830
22850W        W38659  11.327  12.365   5.745 -0.2302  0.0449 -0.1416
22851W        W38660   0.571   9.926   1.771 -0.0230 -0.0349  0.0459
22852W        W38661   8.649   8.293   2.455 -0.0685  0.2453 -0.2276
22853W        W38662  17.846  10.741  14.258  0.0662 -0.0832  0.1515
22854W        W38663   8.202  11.961   3.765  0.1285  0.3410 -0.2702
22855W        W38664  13.797  11.371   4.050  0.2419  0.1400  0.0042
22856W        W38665   5.380  15.517  12.087  0.3813 -0.1663 -0.2582
22857W        W38666   4.125  12.517  15.166  0.1137 -0.0683  0.2053
22858W        W38667   6.756  16.803  15.525  0.2578  0.1925 -0.0750
22859W        W38668  16.076   7.078  14.107 -0.1416 -0.2193  0.0038
22860W        W38669   4.125   3.671   1.784 -0.0034 -0.1896  0.1163
22861W        W38670   0.350   5.289   1.401 -0.1575  0.0806  0.0763
22862W        W38671   1.652   2.783  11.260  0.0304  0.0436 -0.2773
22863W        W38672   8.204  14.816   5.619 -0.2296 -0.1003  0.0146
22864W        W38673  14.008   9.604  12.157 -0.0634  0.1235 -0.2687
22865W        W38674   3.642  11.479  11.059  0.1494  0.2061  0.1119
22866W        W38675  15.970   1.995   1.215 -0.1115 -0.1197  0.1468
22867W        W38676   9.444   7.021   0.616  0.2695 -0.0767 -0.4520
22868W        W38677  17.323   6.633  16.663 -0.2668  0.2372  0.3833
22869W        W38678  11.086  17.742   0.301 -0.0534  0.0442  0.2627
22870W        W38679  11.100  13.558  11.769 -0.2040  0.1594  0.4920
22871W        W38680   8.913   8.912   0.688 -0.0241 -0.0780 -0.1844
22872W        W38681   8.493  11.129  13.366  0.0684  0.1209  0.2988
22873W        W38682  11.042   3.902  12.692  0.0975 -0.0066  0.0649
22874W        W38683   5.354  12.922   0.873 -0.0103 -0.1311  0.1785
22875W        W38684   7.456   1.364  12.967  0.1356 -0.0458  0.2191
22876W        W38685   7.757   5.854   0.519 -0.0754  0.0150 -0.0010
22877W        W38686   7.120  12.858  15.785  0.2772 -0.1612  0.0729
22878W        W38687  11.713   7.519   4.971 -0.2599 -0.0264  0.3396
22879W        W38688   0.317   2.868  15.193 -0.1145  0.2366  0.1924
22880W        W38689  14.352  17.851  12.850  0.2308 -0.0632  0.0646
22881W        W38690  16.702  13.306   1.590  0.0249  0.1229 -0.3583
22882W        W38691  17.348   8.277  12.308  0.1563 -0.5035  0.2449
22883W        W38692  12.840   1.298  12.481 -0.0601  0.2521  0.0697
22884W        W38693  15.368   7.861   2.433 -0.1492 -0.2524 -0.1273
22885W        W38694   5.541   6.893   0.041  0.2780  0.0844 -0.2265
22886W        W38695   4.123   3.141  16.345 -0.1126  0.3897 -0.0760
22887W        W38696   0.967  17.182  13.142  0.0066  0.2802 -0.0532
22888W        W38697  16.632   3.277   4.877  0.4929  0.1095  0.0631
22889W        W38698  17.408   2.152  12.748 -0.1515  0.3731 -0.2962
22890W        W38699   1.055   6.561   4.206  0.2250  0.2418  0.1368
22891W        W38700   3.130  10.247   2.618  0.0191 -0.1454  0.1724
22892W        W38701  13.279   5.613   2.840 -0.1167 -0.4314  0.0327
22893W        W38702   1.504  13.296  16.363 -0.3245  0.2222 -0.0178
22894W        W38703  15.254   8.889  16.679 -0.0925 -0.0141  0.0335
22895W        W38704   8.147  11.695  13.963  0.1023  0.2955 -0.0011
22896W        W38705   1.298   2.252   3.979  0.0417 -0.1006  0.2463
22897W        W38706   8.970   4.175   1.452  0.0133  0.0050 -0.3618
22898W        W38707   2.675  17.385  12.727 -0.0879 -0.2166  0.1695
22899W        W38708  16.812  11.698  11.612 -0.0490  0.1185  0.1901
22900W        W38709   5.107   2.469   4.792 -0.2517  0.0400  0.0926
22901W        W38710  13.916  14.918  13.759  0.0403 -0.0407  0.0988
22902W        W38711   2.488   7.763   3.533  0.1400 -0.2639 -0.0478
22903W        W38712   5.174   2.633   0.494 -0.1576 -0.1552 -0.0577
22904W        W38713  10.378   3.249  15.646 -0.0933  0.2362  0.1118
22905W        W38714   5.246   0.310   4.722  0.0139  0.0338 -0.1290
22906W        W38715  16.032  13.812  14.458  0.2106  0.0534 -0.1589
22907W        W38716  10.976   2.081   2.089 -0.0823  0.2445  0.0621
22908W        W38717   9.041   7.632   4.946  0.2002  0.0552 -0.0960
22909W        W38718   2.628   1.335   4.226 -0.0406  0.3328  0.0233
22910W        W38719  13.310   2.212  16.705 -0.1318 -0.1537 -0.0793
22911W        W38720   2.041   6.714  14.676 -0.2905 -0.1673 -0.1635
22912W        W38721  10.221   9.900   3.885 -0.1667 -0.2057  0.0076
22913W        W38722  14.357  15.512  15.062  0.1669  0.0736 -0.2345
22914W        W38723   4.467   6.228   5.445  0.2214 -0.1094 -0.1685
22915W        W38724  15.002   8.512  15.287  0.3994  0.0327  0.1665
22916W        W38725  10.171   6.591   5.352  0.1496  0.1570 -0.1514
22917W        W38726   8.614   4.978  12.511 -0.3026  0.3096  0.2014
22918W        W38727   3.609   9.496  12.663  0.0582  0.2132  0.0322
22919W        W38728   9.210   8.710   1.360 -0.0156  0.0824  0.0965
22920W        W38729   5.480  14.211   2.599 -0.3519 -0.3230  0.3359
22921W        W38730   2.942   8.758  15.616 -0.1592  0.1276 -0.2574
22922W        W38731   1.305   0.323  16.299  0.0004  0.4203 -0.1157
22923W        W38732   7.201  17.644  11.721 -0.0614  0.1026  0.1568
22924W        W38733   1.317  10.665   4.854  0.1570 -0.1403 -0.2001
22925W        W38734   1.761   2.823   2.682  0.0522 -0.2794  0.0273
22926W        W38735  11.302  10.986  14.801  0.0791 -0.0181 -0.1648
22927W        W38736   0.170   4.942   4.397 -0.1252  0.0024  0.0909
22928W        W38737   0.381   9.512   1.925 -0.1779 -0.0032  0.0974
22929W        W38738   1.793  11.281  14.649 -0.1327 -0.0821 -0.0941
22930W        W38739  10.667   1.753   0.328 -0.0761  0.1377 -0.0310
22931W        W38740   6.590  14.703   3.363 -0.1588 -0.1279 -0.2135
22932W        W38741   4.491   6.072   3.946  0.0875  0.0244 -0.1760
22933W        W38742   3.951  12.162  16.181 -0.3259  0.3391 -0.0028
22934W        W38743  12.662   9.899   1.325  0.1091 -0.1631  0.1599
22935W        W38744   8.214   9.979  11.627 -0.2224 -0.2079 -0.0369
22936W        W38745  17.075   8.163  13.211 -0.0225 -0.0272  0.1109
22937W        W38746  16.516   2.284  13.087  0.3941  0.0930  0.0392
22938W        W38747   4.230  15.705   4.877 -0.1833  0.0069 -0.0936
22939W        W38748  14.963   0.372   1.943 -0.2221 -0.1860  0.3305
22940W        W38749   9.013   3.160   0.883  0.0977  0.0808 -0.0722
22941W        W38750  10.271   0.110   0.335  0.1834  0.4302 -0.0140
22942W        W38751   4.612   6.758   0.932  0.0254 -0.4042 -0.3276
22943W        W38752  12.154  14.886   4.281  0.0969 -0.0894  0.1371
22944W        W38753  13.936   7.750   6.380  0.0862  0.0364  0.1900
22945W        W38754   6.221   5.259  13.112 -0.0658  0.0992 -0.0976
22946W        W38755   5.618  16.538   3.887  0.1900  0.2872  0.0584
22947W        W38756  14.928   1.696   5.232 -0.0920 -0.1177 -0.1296
22948W        W38757  13.239   3.262  15.253 -0.0402  0.1793  0.4277
22949W        W38758  13.288  16.862   4.705  0.0115  0.0486  0.1916
22950W        W38759   0.144  13.600  11.277  0.1414  0.5284 -0.0308
22951W        W38760   5.552   1.666   4.011 -0.5110 -0.1797 -0.1980
22952W        W38761  16.382  12.000   6.463 -0.1980 -0.1940  0.0445
22953W        W38762   8.692   6.093  16.203  0.1502  0.0261  0.0750
22954W        W38763  10.621   3.344   4.842 -0.0210 -0.2036 -0.0202
22955W        W38764   8.699   7.375  11.959  0.0471  0.1976  0.0849
22956W        W38765  12.018   8.297   5.569 -0.1832 -0.2091 -0.0484
22957W        W38766   4.890   8.371   4.702  0.1536 -0.1363 -0.3033
22958W        W38767  11.843   7.896  16.290 -0.0822  0.0876 -0.0086
22959W        W38768  17.246   9.923   0.304  0.1386  0.1128  0.0679
22960W        W38769  14.869   2.782   3.791  0.1980 -0.0649  0.0650
22961W        W38770   1.682  13.900   1.460  0.1501 -0.2191  0.0503
22962W        W38771  10.957   9.374   4.147  0.0065  0.0243 -0.1301
22963W        W38772   9.001  10.013  16.188  0.0153  0.0679 -0.3619
22964W        W38773   7.280  17.032  12.520  0.3181  0.1002 -0.1661
22965W        W38774  12.458   4.781  14.149  0.0324  0.1203  0.1781
22966W        W38775   7.687  14.703  15.302  0.1745  0.0422 -0.0198
22967W        W38776   9.433   7.426  13.474  0.2655  0.3610  0.2078
22968W        W38777  16.966  11.720   5.329 -0.0060 -0.0920 -0.3213
22969W        W38778  14.298   0.952  14.632  0.2399 -0.0319 -0.2527
22970W        W38779  16.999  10.293  11.688  0.3740  0.1020  0.0904
22971W        W38780   4.647   2.439  14.687  0.0570  0.1099  0.1297
22972W        W38781   6.898  11.105   5.447  0.3387  0.0164 -0.0720
22973W        W38782  17.306  15.307   1.129 -0.1299 -0.2688 -0.1479
22974W        W38783  17.624  17.829  12.139 -0.3296  0.1860 -0.1373
22975W        W38784  10.519   5.487   5.282 -0.1084 -0.0344 -0.0950
22976W        W38785   7.091   2.246  13.538 -0.1251  0.2516 -0.1258
22977W        W38786  13.611  13.660  16.223  0.1056  0.0715 -0.2830
22978W        W38787   2.685  13.622   1.643  0.2068  0.0927  0.0300
22979W        W38788  16.435  15.616   1.038 -0.1627 -0.0727 -0.1465
22980W        W38789   6.652   1.528   0.072 -0.1181 -0.1968 -0.1043
22981W        W38790  10.086   3.507  13.776 -0.1045  0.2567 -0.0274
22982W        W38791   8.452   6.116  13.395 -0.0811 -0.0745  0.0448
22983W        W38792   1.671   4.514   3.119  0.0378  0.0081 -0.4304
22984W        W38793   3.547   1.175   2.308  0.0773 -0.0596 -0.0412
22985W        W38794   1.010  16.270   3.032 -0.0091  0.0454  0.0821
22986W        W38795  16.783  15.187   2.787 -0.3470  0.0985  0.0435
22987W        W38796  10.505   8.536  14.509 -0.0640 -0.0053 -0.1623
22988W        W38797  11.396  16.760  12.485  0.0983  0.1883 -0.1726
22989W        W38798   1.497  12.556  10.930 -0.0095  0.1833  0.0361
22990W        W38799   7.101   2.150  14.056 -0.1800 -0.1050  0.1923
22991W        W38800   3.613  12.402   4.959 -0.0718  0.1058  0.0326
22992W        W38801  11.123   1.055  12.217 -0.0047 -0.3618  0.0764
22993W        W38802  15.743   2.080   0.674  0.1916 -0.0265  0.2899
22994W        W38803   4.732  16.770   3.798 -0.3320  0.0216 -0.1982
22995W        W38804  10.230  17.641  14.692 -0.1405  0.1098  0.0558
22996W        W38805   8.991  16.120  13.843  0.0821  0.3422 -0.0216
22997W        W38806  13.913   3.955   2.063  0.0065  0.0161 -0.1641
22998W        W38807  13.692  10.250   1.032  0.0978 -0.0207 -0.0428
22999W        W38808  14.275  14.184   0.943  0.2196 -0.1361 -0.0634
23000W        W38809  16.040  12.954   5.399 -0.1462  0.0541 -0.2544
23001W        W38810   1.460   9.266   0.910  0.1147 -0.2171 -0.0124
23002W        W38811   9.072   3.014   3.153 -0.3043 -0.2974  0.0715
23003W        W38812  16.105   9.220  11.806  0.0685 -0.2590 -0.2020
23004W        W38813   5.407   9.331   3.989 -0.1430  0.3406  0.1175
23005W        W38814   8.201  14.436  13.241 -0.0961  0.3023 -0.0054
23006W        W38815  17.381  16.205   0.809  0.2800 -0.0929 -0.1023
23007W        W38816  13.700   5.173   0.845  0.1652 -0.2488 -0.0789
23008W        W38817  11.673   9.626   3.507  0.0375  0.1494  0.2322
23009W        W38818   0.126   8.569  15.906  0.0869  0.2312  0.0590
23010W        W38819  15.248   2.526   2.429  0.0897  0.1036 -0.2356
23011W        W38820  10.359   8.991   3.349 -0.3694  0.0779  0.0690
23012W        W38821  13.578   3.367   0.629  0.1259 -0.0898 -0.2174
23013W        W38822   2.995  15.717  11.430 -0.2645 -0.1570  0.1415
23014W        W38823  14.142   5.611  15.855 -0.2246  0.1548 -0.2566
23015W        W38824   0.600  14.620   4.490 -0.1529 -0.2038 -0.3678
23016W        W38825   0.208  16.829   5.543 -0.1878  0.1849 -0.1065
23017W        W38826   3.688   5.469  15.103 -0.0597  0.2356  0.3268
23018W        W38827   7.083   4.655  12.254  0.0326 -0.1117 -0.3345
23019W        W38828  17.282  15.160  11.794  0.2202  0.0839  0.2465
23020W        W38829   4.814   2.191  14.278 -0.2821  0.0910  0.2612
23021W        W38830   5.450  11.567   0.330 -0.0940  0.0283  0.0501
23022W        W38831   4.148   3.364   0.780  0.1646 -0.0824  0.1073
23023W        W38832  16.229  12.665  15.604 -0.0136 -0.2663  0.0474
23024W        W38833   4.266   0.024  16.447 -0.0502  0.0188 -0.0233
23025W        W38834   9.530  15.431   5.720 -0.0030  0.2366 -0.2313
23026W        W38835  13.261   7.998  12.183  0.0725 -0.2157 -0.1469
23027W        W38836   7.858  14.203   2.506  0.2747 -0.1344  0.0246
23028W        W38837  10.119   3.443   4.930  0.1370 -0.1052 -0.1734
23029W        W38838  15.564   8.602  13.725 -0.0022  0.4853 -0.2116
23030W        W38839  16.850  13.537   3.150  0.0917  0.0023  0.0601
23031W        W38840   1.040  13.976   3.409 -0.0926 -0.0676  0.0801
23032W        W38841  11.632   9.682  13.514 -0.0956 -0.0108 -0.1243
23033W        W38842   1.429   1.245   1.246  0.1210  0.0898  0.1926
23034W        W38843  13.042  11.545  12.463  0.0747  0.2182 -0.3033
23035W        W38844   4.255  13.250  13.740  0.2690 -0.0098 -0.0292
23036W        W38845   1.490   3.497  14.820  0.1287 -0.2348  0.0174
23037W        W38846  11.660   1.724   3.056  0.2361  0.0049 -0.3366
23038W        W38847  16.237   2.009   0.707  0.1885 -0.0246 -0.1655
23039W        W38848  12.232  15.471  14.307  0.0429 -0.1531  0.0036
23040W        W38849   7.809   7.329  13.552  0.4240  0.0079 -0.0944
23041W        W38850   4.716  11.336  14.261  0.0394 -0.0097 -0.1289
23042W        W38851   2.601  15.886   1.149 -0.0289 -0.1011 -0.1271
23043W        W38852  15.170   6.100  12.307  0.1343 -0.3221  0.0577
23044W        W38853  16.478   3.946  15.440  0.1125 -0.1479 -0.1130
23045W        W38854   2.757   7.792   4.053 -0.0157  0.1961  0.2644
23046W        W38855   0.722  13.229   5.371  0.0198  0.1020  0.2589
23047W        W38856  11.967   4.480   6.121 -0.1882  0.1446  0.0824
23048W        W38857  13.312   8.362  14.232 -0.4201 -0.0826  0.0772
23049W        W38858  17.115   1.805  16.638 -0.1741 -0.6413  0.2068
23050W        W38859   2.276   7.610  16.092  0.0289 -0.0693 -0.1125
23051W        W38860  16.289   3.854  13.215 -0.1066 -0.2086  0.0618
23052W        W38861   3.135   0.485   1.749  0.2275 -0.0493  0.5880
23053W        W38862  10.529   3.758   4.551  0.0881 -0.0878 -0.0040
23054W        W38863  10.713   3.356   4.346  0.0790 -0.0098  0.0009
23055W        W38864   1.606   3.055  15.471 -0.1917 -0.2821 -0.0410
23056W        W38865   2.846  17.031  13.718 -0.0840  0.0652 -0.0425
23057W        W38866  11.260   8.475   5.989  0.0872 -0.2183 -0.4095
23058W        W38867   1.121   6.847  14.683  0.0688  0.2312  0.0971
23059W        W38868  13.158   9.600  12.921  0.1312 -0.0464  0.4545
23060W        W38869   5.237  15.102   2.123  0.2954  0.0838 -0.2154
23061W        W38870   3.360   9.830   2.859  0.2008 -0.0568 -0.1220
23062W        W38871  16.340  16.027   0.478 -0.1897  0.2025 -0.1563
23063W        W38872   9.191   7.578   1.320 -0.1311 -0.3408  0.1873
23064W        W38873   2.667   7.193  12.547  0.2523 -0.5071  0.2335
23065W        W38874  16.421  11.879  12.326  0.0466 -0.0603 -0.3114
23066W        W38875   8.167  10.506  16.482  0.1322 -0.2075  0.1455
23067W        W38876  14.053   3.593   0.937  0.0933  0.1366 -0.1753
23068W        W38877  10.535  13.089   4.780  0.0055 -0.0158  0.1228
23069W        W38878   5.854  16.611  13.664 -0.1157 -0.1419  0.1662
23070W        W38879  15.496  10.313  14.903 -0.0937  0.1574  0.0412
23071W        W38880   1.948   8.098   2.008  0.1385  0.0893 -0.0016
23072W        W38881   4.694  16.318  13.815  0.0107 -0.1756  0.2530
23073W        W38882   2.621  14.596   1.882 -0.2779 -0.1164  0.3830
23074W        W38883  15.465  17.476   0.556 -0.1822 -0.0861  0.0193
23075W        W38884   7.434  15.669  14.694 -0.0271 -0.1613  0.1426
23076W        W38885  11.146   4.235  15.180 -0.0872  0.0962  0.1329
23077W        W38886  16.520  10.432   4.760 -0.0297  0.1941 -0.0698
23078W        W38887   2.366  10.138  12.360 -0.2211 -0.1736 -0.1891
23079W        W38888  17.571   1.259  12.045 -0.0973  0.3908 -0.1997
23080W        W38889   4.177  15.626  11.189  0.0251 -0.0853  0.1957
23081W        W38890   7.693   0.355   1.852  0.1025 -0.0048 -0.1475
23082W        W38891   2.068  12.118   1.597 -0.1101  0.0640  0.2264
23083W        W38892  11.421   0.502   2.855 -0.1781 -0.0746  0.0850
23084W        W38893  17.174   2.415  13.591  0.0295  0.2092 -0.1525
23085W        W38894  15.965   7.301   5.058  0.2903 -0.3205  0.0205
23086W        W38895   9.441  11.964   4.583  0.2183 -0.0567 -0.1623
23087W        W38896  11.712   1.793   5.662  0.0518  0.0826  0.2102
23088W        W38897  16.920   8.365   4.802  0.1413  0.0382 -0.0186
23089W        W38898  17.355   1.121  16.227  0.3514 -0.2020 -0.1811
23090W        W38899  16.489  11.453   3.548 -0.0883 -0.1516 -0.0116
23091W        W38900  16.289  13.845   5.036 -0.0002 -0.2102 -0.1790
23092W        W38901   7.102   1.890  15.546 -0.0862  0.4994  0.1014
23093W        W38902  17.366   9.628   4.230  0.1038  0.0396  0.1458
23094W        W38903   7.681   5.946  13.629 -0.2094 -0.5401 -0.1093
23095W        W38904   8.612   5.315  15.033 -0.3357 -0.2024 -0.0475
23096W        W38905   8.804   9.108  12.380  0.2131 -0.0008  0.1452
23097W        W38906   3.350  15.031   5.672 -0.2796 -0.3100  0.1443
23098W        W38907   8.969  11.178   3.187  0.3746  0.2465  0.4168
23099W        W38908  13.987  10.111   5.311  0.1784  0.2731 -0.0457
23100W        W38909   8.790  15.368  15.199  0.0824 -0.0664 -0.0190
23101W        W38910  16.612   9.012  14.914  0.0252  0.0375  0.0907
23102W        W38911   2.174   0.196  14.397 -0.0234  0.1183  0.0811
23103W        W38912   3.129   4.626  13.468 -0.2800 -0.0923 -0.1592
23104W        W38913  16.063  17.515   1.321 -0.1104 -0.0260 -0.0877
23105W        W38914  11.434   6.776   3.703 -0.0726  0.2364  0.0765
23106W        W38915  15.167   7.846   1.384  0.1406  0.2136 -0.2010
23107W        W38916   5.542   7.033   5.560  0.2396 -0.2694 -0.1438
23108W        W38917  17.609   6.527  12.835 -0.0031  0.0083  0.0691
23109W        W38918   3.107   2.052   3.186  0.1156 -0.0803 -0.4949
23110W        W38919  15.678   6.623  12.973 -0.1123 -0.0514  0.0333
23111W        W38920  11.791   0.413   3.654  0.3635 -0.4016 -0.1467
23112W        W38921  12.807  15.006   4.998  0.2021 -0.2208  0.1884
23113W        W38922  13.171   8.019  11.283  0.1545 -0.1757  0.0792
23114W        W38923  11.355   9.465   6.063  0.1704 -0.1017  0.0528
23115W        W38924   0.301   1.527  16.099  0.1717  0.0051 -0.1073
23116W        W38925  16.269   5.827  15.667 -0.0162  0.1019  0.4408
23117W        W38926  15.415   9.122   3.767 -0.0849 -0.2385  0.0489
23118W        W38927  14.965   8.746   0.915  0.0175 -0.0366  0.0035
23119W        W38928  17.636  16.391  14.317  0.0563  0.1334 -0.0243
23120W        W38929  17.043  14.029   5.422 -0.2047  0.0996 -0.0322
23121W        W38930  11.664   0.660   4.231  0.2231 -0.0499 -0.0860
23122W        W38931  11.707   0.706   1.798 -0.0054 -0.0055 -0.1969
23123W        W38932   3.101  14.326  16.511 -0.2746 -0.0419 -0.1594
23124W        W38933   4.019   7.189   2.871 -0.1825  0.1368 -0.0480
23125W        W38934  16.174  17.383   2.473  0.0713 -0.2730  0.1656
23126W        W38935  16.712   6.761   4.658 -0.0648 -0.1115 -0.2807
23127W        W38936   7.580   5.832   3.758 -0.0719 -0.1844  0.0601
23128W        W38937  17.747   1.814   3.527  0.4334 -0.2136 -0.0300
23129W        W38938   9.667   9.629  13.902  0.1632 -0.1412 -0.2285
23130W        W38939   3.898  13.878  16.344  0.4321  0.2199 -0.2854
23131W        W38940  10.766   7.759   1.996  0.0770 -0.2206  0.0574
23132W        W38941   5.097  12.576  12.977  0.0102 -0.0329 -0.1611
23133W        W38942  13.871  14.391   3.464  0.0623 -0.3183 -0.3041
23134W        W38943   7.963  16.742   1.150  0.0556  0.1302 -0.0055
23135W        W38944  16.138   7.258  13.537 -0.2501 -0.3018 -0.2564
23136W        W38945   1.313   0.764  11.267  0.1806  0.1857  0.2723
23137W        W38946   0.640  17.529   5.204 -0.0615  0.0807 -0.1466
23138W        W38947  14.392  13.045   1.809  0.2341 -0.0726 -0.3891
23139W        W38948   5.367   0.925  16.101 -0.0237  0.2970 -0.1589
23140W        W38949   6.429  11.756   4.417 -0.0771  0.2131  0.0501
23141W        W38950   4.191  17.541   2.279 -0.0361 -0.0944  0.1377
23142W        W38951   4.632  11.123   1.112 -0.0917 -0.0626  0.1706
23143W        W38952  15.704   6.894  16.015  0.0804  0.1421 -0.0436
23144W        W38953   2.250   5.795  15.338 -0.1706 -0.4366  0.2210
23145W        W38954   9.554  15.704   1.245  0.0783  0.1413  0.1318
23146W        W38955   3.475   6.967   1.332 -0.6157  0.1093 -0.1030
23147W        W38956  16.046  15.641   2.528  0.2375 -0.1342 -0.1483
23148W        W38957   1.939  11.321  12.848  0.1136 -0.3267 -0.1114
23149W        W38958  10.227  15.933   0.395 -0.0026  0.2276  0.0123
23150W        W38959   9.848   1.237   0.759  0.0310  0.1324  0.0440
23151W        W38960  10.144   7.004  15.140 -0.2422  0.1485 -0.1385
23152W        W38961   8.588  11.956  12.212  0.3825 -0.0746 -0.2190
23153W        W38962   2.000   2.438  11.285 -0.1428 -0.0648  0.1019
23154W        W38963   8.943  17.420  14.414 -0.1838  0.1668 -0.0601
23155W        W38964  10.286   7.730   2.608  0.0608 -0.0529 -0.0311
23156W        W38965  17.350   7.928  11.549 -0.0083 -0.2018 -0.1003
23157W        W38966   4.564   1.986  12.028  0.0487  0.1228  0.1385
23158W        W38967   1.147   9.125   5.492  0.0280  0.1740 -0.2357
23159W        W38968   0.374   5.045  11.435  0.0757 -0.1195  0.2215
23160W        W38969  14.017   0.729   1.666 -0.1026  0.3297 -0.1454
23161W        W38970  17.959   9.452   1.603  0.3807  0.0989  0.0347
23162W        W38971  10.792   1.127   6.276  0.0227  0.2050 -0.1263
23163W        W38972  12.874   2.821  14.993 -0.1825  0.4469 -0.2380
23164W        W38973  13.433   7.744   6.440  0.0804 -0.2011  0.0256
23165W        W38974   1.269   8.063  11.738  0.1965  0.0885  0.0093
23166W        W38975   0.829  16.703   4.781  0.2888  0.0982 -0.2762
23167W        W38976   7.093   6.618   3.235 -0.1280 -0.1246 -0.1295
23168W        W38977  13.579   1.554  13.503 -0.3582  0.3105  0.1691
23169W        W38978   5.765   2.916  11.690 -0.3344 -0.0458 -0.4157
23170W        W38979   9.685  11.186   2.744 -0.0221 -0.1581  0.0972
23171W        W38980  11.905   2.496   1.254 -0.2173  0.0203  0.0380
23172W        W38981  13.062  17.383   5.475 -0.2464  0.2606 -0.0713
23173W        W38982   9.854  14.694   0.962 -0.0876  0.1630 -0.1390
23174W        W38983   4.735   7.285   0.806 -0.1305  0.0727  0.4745
23175W        W38984   2.892  10.951  15.731  0.0282 -0.0010  0.0469
23176W        W38985   9.000   1.958  12.989  0.0938  0.1069  0.2173
23177W        W38986  10.961   6.290   4.644 -0.3688  0.1557  0.1087
23178W        W38987  13.267   7.307  15.154 -0.0892 -0.2049 -0.3921
23179W        W38988  16.619  14.003  13.892 -0.0088  0.2233  0.1555
23180W        W38989   3.124   8.337   4.904 -0.3244  0.1785 -0.1762
23181W        W38990   2.793   6.685   5.286  0.1555  0.0481 -0.0141
23182W        W38991  10.349   1.398   2.756 -0.1875  0.1775  0.0513
23183W        W38992  17.169  14.613  16.116 -0.3005  0.0287 -0.1597
23184W        W38993   3.170   3.858  13.361 -0.0793  0.4076 -0.0259
23185W        W38994   7.351   0.219   6.422 -0.0762 -0.3088  0.2011
23186W        W38995  11.878  11.525  16.208 -0.0033 -0.0752 -0.0047
23187W        W38996  16.338  14.604  14.943  0.0780  0.0152 -0.3931
23188W        W38997   6.416   1.414  12.553  0.1220  0.0691  0.2248
23189W        W38998  16.416   3.468   5.719  0.1462 -0.3235  0.2391
23190W        W38999   0.079  11.173   0.126 -0.0042  0.1531  0.1401
23191W        W39000   4.547   2.327   1.664 -0.0501  0.0500  0.1766
23192W        W39001  10.905  16.606   2.739  0.2773  0.0416 -0.1238
23193W        W39002   1.593  13.172   0.808 -0.0973  0.0322 -0.0277
23194W        W39003   9.904   2.161  15.856  0.0106  0.4895 -0.0305
23195W        W39004   4.386  12.871   5.720 -0.1696 -0.0302 -0.1071
23196W        W39005   9.595  14.778  13.359  0.4631 -0.0513 -0.0112
23197W        W39006  13.656  14.726   4.690 -0.1511 -0.1087 -0.1028
23198W        W39007   1.672   9.771  11.504  0.0765  0.4774 -0.1908
23199W        W39008  14.101   1.315  12.009 -0.2016 -0.3815 -0.0994
23200W        W39009  17.748   6.652  13.304 -0.0175  0.0316  0.1945
23201W        W39010  13.471   4.357   5.604 -0.3450 -0.1549 -0.1860
23202W        W39011  13.789   2.651  12.783 -0.3230 -0.0598 -0.2919
23203W        W39012   6.771   9.788  12.978 -0.3184  0.0393 -0.1846
23204W        W39013   5.979   6.994  12.442 -0.1752 -0.0142 -0.1121
23205W        W39014   4.952  10.441   0.619 -0.0628 -0.0474  0.3848
23206W        W39015   8.091   3.642  16.709 -0.3512  0.1149 -0.2311
23207W        W39016   1.737  14.418  14.595 -0.1861 -0.1114  0.0164
23208W        W39017   0.183  14.967   1.392  0.0410  0.0472  0.1878
23209W        W39018  12.723  10.033  12.246 -0.0886  0.5123  0.0307
23210W        W39019   1.614   2.564   3.126 -0.0012  0.2268  0.0554
23211W        W39020   6.871   2.170   3.303 -0.2001  0.2458 -0.0073
23212W        W39021  11.503   8.848  15.291 -0.1910  0.0132  0.2717
23213W        W39022   0.501   5.611  14.752  0.1896 -0.2653 -0.0184
23214W        W39023  11.927   1.887   0.976 -0.1889  0.3029 -0.2074
23215W        W39024   9.791   4.902   5.550  0.3249  0.1163 -0.1023
23216W        W39025  13.323   0.087  16.005  0.0933  0.1234  0.1479
23217W        W39026  10.093  15.594   4.535  0.0241  0.1210 -0.0168
23218W        W39027   4.728   9.911   1.735  0.0162  0.1787 -0.0289
23219W        W39028   6.757   2.496  13.821  0.1627  0.2633  0.2662
23220W        W39029   5.463  15.480   0.496  0.1265  0.0795 -0.1306
23221W        W39030   9.147  12.982   4.714  0.2935 -0.0902  0.0958
23222W        W39031   9.465  16.618  14.474 -0.2916  0.3834  0.1422
23223W        W39032   8.311  17.464  14.838 -0.1254  0.0168  0.0101
23224W        W39033   5.625  16.592   1.010 -0.1093  0.1772 -0.0114
23225W        W39034   3.796   8.038   3.316  0.1295  0.0299 -0.1243
23226W        W39035   7.056   6.441  10.667  0.1080  0.2759 -0.2305
23227W        W39036   5.430   7.895   4.984  0.1045  0.1945  0.0531
23228W        W39037   4.610  16.543  13.370  0.0832  0.1244 -0.2156
23229W        W39038   0.172   4.265  16.033 -0.0759  0.2742  0.1750
23230W        W39039  17.749  10.244  16.074 -0.2336 -0.2453  0.4500
23231W        W39040   3.233   0.845  12.514 -0.0750 -0.2022 -0.1691
23232W        W39041   7.768   8.128   2.117 -0.0787  0.2313  0.0365
23233W        W39042  12.567  17.899  12.547 -0.0353  0.3070  0.2184
23234W        W39043  15.266  11.143   2.819  0.1157 -0.0985 -0.0238
23235W        W39044   0.195  11.764   3.000 -0.3525  0.1391 -0.5001
23236W        W39045  10.449   0.912   0.864 -0.1110  0.0169 -0.1413
23237W        W39046   6.459  15.166   6.072  0.0904 -0.0761  0.0490
23238W        W39047  13.387   8.576  12.954 -0.0963  0.1864  0.0360
23239W        W39048  16.639   3.412  12.648 -0.0825 -0.3621 -0.1543
23240W        W39049   3.265  11.344  15.888  0.0004 -0.0798 -0.2689
23241W        W39050  17.612  11.423  13.549 -0.2417 -0.1573  0.1924
23242W        W39051   3.549  12.138   1.491  0.0044 -0.0348  0.1533
23243W        W39052   5.266  17.091   1.431  0.1514 -0.1937 -0.0978
23244W        W39053   4.685   3.573  14.084  0.3614 -0.3157 -0.0118
23245W        W39054  11.134   5.106  13.839 -0.0341  0.2006  0.0589
23246W        W39055  16.635   7.195  16.596  0.1658 -0.1758  0.3446
23247W        W39056   4.544  15.248  11.957 -0.1870 -0.0410  0.3022
23248W        W39057  16.416   1.958  12.179 -0.1031 -0.1599  0.1608
23249W        W39058   1.532   9.361  11.896  0.3354 -0.0457 -0.2507
23250W        W39059   4.900   4.372  13.045  0.0729  0.0269  0.1536
23251W        W39060   6.945  10.067  13.393 -0.3060  0.3638  0.0415
23252W        W39061   9.677  11.620  11.648  0.0841  0.1407  0.2683
23253W        W39062   5.942  17.858   3.648  0.3183 -0.2954  0.1406
23254W        W39063   2.015   0.587   0.777 -0.0326 -0.1861 -0.1929
23255W        W39064  13.005   2.987  14.031 -0.0017  0.3289  0.1772
23256W        W39065   2.814  16.088   6.219 -0.0674  0.2347  0.3794
23257W        W39066  11.185  13.320   0.643  0.0097  0.2962  0.0446
23258W        W39067   3.014  14.316  12.579  0.1492  0.0605  0.1781
23259W        W39068   2.123   9.925   4.479 -0.2445  0.4816  0.1751
23260W        W39069  17.448  10.293   2.643  0.0244  0.0761  0.0767
23261W        W39070   0.671   4.268  12.067  0.0051 -0.1619  0.2166
23262W        W39071  10.234  14.724  15.746  0.1257 -0.0426 -0.1324
23263W        W39072  17.071  15.109  15.978  0.0107  0.1788  0.2229
23264W        W39073   4.394  12.165   1.941  0.1777 -0.0299 -0.1936
23265W        W39074  14.072  13.570   5.615 -0.0115  0.2295  0.1499
23266W        W39075  14.169  11.668   4.100  0.0043 -0.0387 -0.1648
23267W        W39076  12.781   5.108   2.207  0.2290 -0.0959  0.5765
23268W        W39077  12.400  16.101  14.981  0.0223  0.2415  0.0661
23269W        W39078   4.046   2.223  14.684  0.1075  0.0922  0.0290
23270W        W39079   9.845  16.148  13.489 -0.4372  0.1675  0.0354
23271W        W39080   5.929  13.675   1.896 -0.3376  0.2158  0.0854
23272W        W39081   4.389  14.505  11.397 -0.1843  0.0277  0.0275
23273W        W39082  10.126   6.519   3.669  0.0769  0.0457  0.0758
23274W        W39083   7.141   3.830   0.826 -0.1312  0.0777 -0.2710
23275W        W39084  12.699  16.438  14.310 -0.2801 -0.1522 -0.1433
23276W        W39085  16.894  10.469   0.643  0.2270 -0.1342 -0.1801
23277W        W39086   1.148  11.674   0.781 -0.0322 -0.2007  0.0630
23278W        W39087  14.879   3.644   0.331  0.1275  0.0906  0.1451
23279W        W39088   1.962   1.779   4.803 -0.1276  0.2086  0.1079
23280W        W39089   8.800  14.126  12.405 -0.0437 -0.0118 -0.0041
23281W        W39090  12.275  14.657  12.326 -0.1416 -0.0445 -0.1120
23282W        W39091  10.742   8.288  12.102 -0.0352  0.3936 -0.0631
23283W        W39092   8.094  14.799   0.644  0.0006  0.2405 -0.0887
23284W        W39093   0.730   5.479   3.366  0.4537 -0.0955 -0.2919
23285W        W39094  13.285   1.703  14.433  0.0104  0.0316 -0.2737
23286W        W39095  14.982  11.794  12.145  0.0630  0.1669  0.1393
23287W        W39096   5.952  15.078   3.857  0.0001  0.0093  0.3682
23288W        W39097   8.875   8.408   3.393  0.2568  0.0155  0.3110
23289W        W39098  15.687   9.384  14.235 -0.4625 -0.2627 -0.2100
23290W        W39099  12.031   4.424  15.623 -0.1662  0.3647 -0.0370
23291W        W39100   2.097  12.641   3.182  0.2875  0.0940  0.0172
23292W        W39101   4.973  13.465   4.095  0.0539  0.0231 -0.1560
23293W        W39102   1.792   9.639   2.441 -0.0037  0.1056 -0.0088
23294W        W39103   9.922  14.466   0.079  0.0242 -0.2574  0.0197
23295W        W39104  16.807  11.380   3.125 -0.0679 -0.1767  0.2546
23296W        W39105  13.914   6.184   4.344  0.1072 -0.4179 -0.1895
23297W        W39106   1.382  15.955  11.668  0.0327  0.0200 -0.1944
23298W        W39107  12.915   2.177  12.793 -0.2168 -0.2696  0.0928
23299W        W39108   6.895   5.236   3.916  0.1011 -0.0944  0.0234
23300W        W39109  16.119   5.059   5.616 -0.0304 -0.0150  0.0468
23301W        W39110   0.426   5.819  14.134  0.1760  0.0885 -0.2306
23302W        W39111   9.447   2.741   2.960  0.1076 -0.0534 -0.1477
23303W        W39112  15.372   4.342   3.710  0.0301 -0.1634 -0.1175
23304W        W39113   5.342  15.651   2.020  0.1330 -0.0266 -0.0188
23305W        W39114   4.107  10.291  12.380  0.0960  0.0180  0.0877
23306W        W39115   3.961   8.043   4.071  0.1812 -0.3300 -0.3037
23307W        W39116   7.945  16.396  16.591  0.0718 -0.3483 -0.1661
23308W        W39117  11.534  15.407  15.405  0.2671 -0.1284 -0.0408
23309W        W39118  11.242   1.455  15.863  0.0046 -0.0117  0.0497
23310W        W39119  16.571   9.191  13.902 -0.0999  0.2305 -0.0567
23311W        W39120   8.956   3.959  14.838 -0.0340 -0.2090 -0.0282
23312W        W39121  11.664  11.570   1.526 -0.3601 -0.0877 -0.0183
23313W        W39122  14.724  14.110  10.769  0.0762 -0.3191  0.1637
23314W        W39123   5.914   3.603   0.280 -0.0185  0.2719  0.0324
23315W        W39124   4.542   1.458  13.866 -0.0457  0.0259 -0.0953
23316W        W39125  15.533  13.544  11.819 -0.1983 -0.0594 -0.0544
23317W        W39126   5.706   8.566   4.527  0.1740 -0.1569  0.0063
23318W        W39127  10.754   4.130  14.815 -0.1525  0.2977  0.0222
23319W        W39128   2.303  11.734   6.322  0.2805 -0.0384  0.0760
23320W        W39129   1.321   5.429   2.722  0.1917 -0.0720 -0.3339
23321W        W39130  12.384   3.520  14.322 -0.1957  0.2489 -0.4936
23322W        W39131  11.976   6.272   0.279  0.0732 -0.0162 -0.0343
23323W        W39132   8.095  14.994   0.157 -0.2126  0.3726  0.0116
23324W        W39133   4.517  11.868   5.161  0.0663  0.1315  0.1605
23325W        W39134   2.359  16.787   4.636 -0.1220 -0.1808  0.1081
23326W        W39135  13.784   6.969   2.172  0.6025 -0.0874  0.2444
23327W        W39136   8.446   3.390   5.233 -0.2511  0.2136 -0.0489
23328W        W39137  13.611   0.154  15.062  0.1100 -0.1409 -0.1537
23329W        W39138  16.597  17.599  11.680 -0.0922  0.1651 -0.1951
23330W        W39139  13.880   2.111   1.850 -0.0765  0.0214  0.0620
23331W        W39140  13.896  16.084   0.039  0.0114  0.0357  0.1042
23332W        W39141   7.500  12.297   3.085  0.2100  0.0809  0.1304
23333W        W39142   7.480  16.184  12.159 -0.2994  0.0489  0.1406
23334W        W39143   7.783  14.930  14.312 -0.0226 -0.0273  0.0412
23335W        W39144   8.227   7.141  11.966  0.1048  0.3090  0.1030
23336W        W39145   4.455   8.309   4.924 -0.1409 -0.0675  0.2903
23337W        W39146   4.176  16.871  14.554  0.0142 -0.0153 -0.1537
23338W        W39147   2.472   4.668  10.177  0.1040 -0.1807  0.1784
23339W        W39148   7.007   4.417  15.113  0.4563 -0.0172  0.0997
23340W        W39149  13.664  14.341  15.978 -0.1881  0.2757  0.0490
23341W        W39150  10.045   2.275   0.144  0.0005  0.0091 -0.0600
23342W        W39151   4.134  14.111   4.528 -0.2801  0.1072 -0.2977
23343W        W39152   9.318  16.454  11.924  0.1507 -0.0621  0.0320
23344W        W39153  15.927  10.001   1.891 -0.2708  0.3804 -0.0626
23345W        W39154  13.111   9.831  12.471  0.2030  0.1197 -0.1253
23346W        W39155   0.280  11.044  11.601 -0.1250  0.2665  0.0526
23347W        W39156   6.841   9.943   0.710  0.2476 -0.0618  0.2265
23348W        W39157  16.210   4.958  16.029 -0.0005 -0.2307  0.1063
23349W        W39158  17.295  10.531  11.255 -0.0464  0.0571  0.0095
23350W        W39159   1.344   3.383  12.545 -0.0853  0.1095  0.2572
23351W        W39160   2.073   9.653   0.655 -0.0429 -0.1743  0.0510
23352W        W39161  14.216   2.342   3.899  0.2078  0.2072 -0.0247
23353W        W39162   1.659   6.348   1.557 -0.3356  0.3212 -0.1482
23354W        W39163  11.665   3.523  16.184  0.0425  0.0949  0.0202
23355W        W39164   7.232   7.066  16.585 -0.0338 -0.2105 -0.3850
23356W        W39165   4.217  12.374  11.221 -0.2080 -0.1957 -0.1000
23357W        W39166  10.063   4.554   0.835  0.1685 -0.0500  0.0767
23358W        W39167  13.685   3.040  15.716 -0.0229 -0.0481  0.0824
23359W        W39168   6.424  12.887  12.265 -0.2040  0.0612 -0.1422
23360W        W39169   6.666   4.726   0.281 -0.1131  0.3379 -0.2077
23361W        W39170  12.094  11.210  16.562 -0.2089  0.2589 -0.0550
23362W        W39171   2.802  15.384   1.882 -0.2866 -0.0067 -0.2661
23363W        W39172   5.725   0.346   1.803 -0.1892 -0.0038  0.0150
23364W        W39173   7.609   2.034  13.601 -0.0807 -0.3044  0.1450
23365W        W39174   4.735   1.557   0.985  0.2096  0.1222  0.2091
23366W        W39175   4.726  12.446  16.401  0.3000  0.0886  0.2439
23367W        W39176  17.103  14.152  16.242 -0.0261 -0.1048  0.1223
23368W        W39177   7.293  10.943  12.957  0.1122  0.0554  0.0372
23369W        W39178   7.113   3.243  12.165 -0.0437  0.1874  0.2848
23370W        W39179  11.375  17.609  14.804  0.1248  0.0082 -0.1473
23371W        W39180   0.791   7.844  14.223  0.1175 -0.3219 -0.2425
23372W        W39181   5.986  16.550  16.605  0.0207  0.1980 -0.3357
23373W        W39182  16.226   3.983   5.693  0.0840 -0.1237 -0.1514
23374W        W39183   9.035  11.058   4.087 -0.2060 -0.2930  0.1718
23375W        W39184  14.249  15.106   1.065  0.1929  0.1908  0.0004
23376W        W39185  10.373   0.508  15.083  0.4338 -0.1218 -0.0139
23377W        W39186   4.748   8.873   0.195 -0.1490  0.2512  0.1433
23378W        W39187  11.128  16.979  15.219 -0.3760  0.0070  0.1203
23379W        W39188  11.366   6.241  14.756 -0.1500 -0.3533  0.1296
23380W        W39189  15.649  11.063   0.909 -0.3661  0.1965 -0.1024
23381W        W39190   8.949  14.059   6.081 -0.0455  0.1988 -0.1184
23382W        W39191  14.958   3.759  13.509  0.1341  0.1623 -0.0179
23383W        W39192  16.237   4.574   1.985 -0.0721 -0.0577  0.0036
23384W        W39193   7.389   3.840   3.653  0.0325  0.0754 -0.0361
23385W        W39194  14.380   7.113  13.404 -0.0001  0.3954  0.3787
23386W        W39195  11.290   5.763  14.970 -0.2837 -0.3688  0.1191
23387W        W39196   6.974   3.327  13.548  0.1162 -0.1901 -0.1601
23388W        W39197  11.439  11.539  14.798 -0.1495 -0.1919 -0.2122
23389W        W39198   7.618   3.055  11.971  0.0546 -0.1651 -0.0057
23390W        W39199  12.690  17.512   1.339 -0.1107 -0.0334  0.5325
23391W        W39200   7.694  13.083   1.731  0.3789  0.1444 -0.0291
23392W        W39201   4.051   3.837   0.552 -0.2117  0.0035 -0.2821
23393W        W39202   8.064  16.282  11.585  0.2543 -0.3104  0.1007
23394W        W39203   1.760  14.640  15.663 -0.0726 -0.1967  0.1510
23395W        W39204   1.573   3.694   5.759  0.0462 -0.0976 -0.2861
23396W        W39205   3.173  11.269   2.968 -0.1722 -0.1890 -0.1550
23397W        W39206  11.148  10.488   0.746 -0.2663 -0.0748  0.0321
23398W        W39207   9.709   7.475  13.091 -0.1498 -0.0330  0.3370
23399W        W39208   5.368   5.193   0.464 -0.0277 -0.2201  0.0704
23400W        W39209  15.560   0.360  15.250  0.0323 -0.1732  0.3145
23401W        W39210  14.354  13.544  11.684 -0.1937  0.1882  0.1116
23402W        W39211  13.448   9.962   3.305 -0.0012 -0.3303  0.2649
23403W        W39212   2.582   8.679   2.930 -0.0232  0.0978  0.0432
23404W        W39213   2.848  16.951   2.208 -0.0833 -0.0410 -0.0930
23405W        W39214   4.227  12.985   5.255 -0.2049 -0.1002  0.0641
23406W        W39215  11.261  12.761   4.435 -0.1001 -0.0663 -0.2043
23407W        W39216   6.824  13.067  11.899  0.0063  0.2249 -0.4482
23408W        W39217   3.610   3.134  11.781 -0.0159  0.1673 -0.0554
23409W        W39218  17.258  10.833  16.632 -0.1959 -0.2545 -0.0442
23410W        W39219  10.381  12.539   4.910  0.2706 -0.1789  0.1014
23411W        W39220  12.932   8.385   0.567 -0.2823 -0.3067 -0.1099
23412W        W39221   8.759  14.133   3.042 -0.1681  0.0328  0.1732
23413W        W39222  13.290   6.699  13.233 -0.1636 -0.1946  0.1109
23414W        W39223   2.990   5.217   0.737 -0.0398 -0.1374 -0.1463
23415W        W39224   9.228   7.629   2.439  0.0486  0.0110 -0.3772
23416W        W39225  14.734   0.902   3.896 -0.1937  0.2679  0.0912
23417W        W39226   1.434   8.754  12.652 -0.0448  0.1655 -0.3144
23418W        W39227  16.445  15.591   6.476  0.1402 -0.0683  0.0262
23419W        W39228   6.984   2.534   1.860 -0.0801  0.1410 -0.0195
23420W        W39229  11.610  11.364  13.357 -0.3887 -0.1011 -0.1244
23421W        W39230   9.726  17.077  16.029 -0.1175 -0.1312  0.1765
23422W        W39231  14.325  11.214   4.187 -0.2274  0.0166  0.0287
23423W        W39232  16.054   8.724  11.701 -0.0772 -0.1097 -0.1060
23424W        W39233  12.653  13.075  11.993 -0.2011  0.0358  0.0242
23425W        W39234  10.780   7.209   4.079 -0.1145  0.1837  0.0490
23426W        W39235  12.714   8.583   3.736 -0.0267 -0.2474 -0.1051
23427W        W39236   2.575  16.519  16.426 -0.2974 -0.1711 -0.3433
23428W        W39237   4.099   4.000  12.967 -0.2780  0.0237  0.1590
23429W        W39238   1.315   4.750   4.965 -0.1299  0.0523  0.2919
23430W        W39239  10.235   5.772   1.296 -0.2071 -0.1559 -0.0160
23431W        W39240   1.740  14.008  12.302 -0.2789 -0.0618  0.1657
23432W        W39241   2.871   1.147   5.204 -0.1573 -0.1131  0.0387
23433W        W39242  15.489   6.657   6.109 -0.3081 -0.1348 -0.0006
23434W        W39243   2.074   1.719   5.326  0.3035  0.1816 -0.2979
23435W        W39244  16.857  17.426   1.050 -0.1792 -0.2118 -0.0374
23436W        W39245   1.683  16.814  16.622 -0.2380 -0.1793  0.1223
23437W        W39246  13.693   7.697   5.154 -0.2207 -0.1379 -0.4678
23438W        W39247   0.606  13.285   3.701 -0.0142 -0.0106 -0.3986
23439W        W39248  15.016   7.610  16.169  0.2093 -0.2943  0.3121
23440W        W39249   1.194  17.879  15.659 -0.1631 -0.1199 -0.0060
23441W        W39250   4.203   6.605   5.586 -0.2147  0.0801  0.3434
23442W        W39251   9.717  13.472   3.287 -0.0269  0.0341  0.2414
23443W        W39252   6.096   4.524  12.414  0.1977  0.2970 -0.0666
23444W        W39253   0.454  14.664  16.367  0.0009  0.2219 -0.0499
23445W        W39254  13.947  10.579   6.198 -0.1719  0.3492 -0.0513
23446W        W39255  11.696   9.142   0.577 -0.0051  0.2630  0.1268
23447W        W39256   5.756   2.513  12.690 -0.0495 -0.0751 -0.0567
23448W        W39257   1.346  12.923  12.781  0.0972  0.0458 -0.0772
23449W        W39258  10.120   1.037   3.286  0.0348  0.0428 -0.0947
23450W        W39259  13.262  13.742   3.780 -0.1217 -0.0948 -0.0347
23451W        W39260   3.684  10.062  16.262  0.2362 -0.0249 -0.0174
23452W        W39261  15.433   2.561   4.754  0.1663  0.0230 -0.2677
23453W        W39262   9.207  16.067   1.211  0.1137 -0.0386 -0.0179
23454W        W39263   7.408   0.046  12.206  0.1265  0.1888 -0.1019
23455W        W39264   2.299   5.345  14.517 -0.2933 -0.0947 -0.0707
23456W        W39265   6.579   0.011   3.017 -0.0883  0.2255  0.1144
23457W        W39266   4.825  13.576  11.208  0.2529 -0.1007  0.1989
23458W        W39267   1.158  11.927   5.033 -0.2464  0.1184  0.2375
23459W        W39268  16.121   0.503  12.419 -0.2964 -0.0189  0.1702
23460W        W39269   6.853   8.530  16.522 -0.0647  0.1300  0.0940
23461W        W39270  11.298  17.749   2.696 -0.3235  0.3193 -0.1851
23462W        W39271  12.029  12.630   5.365  0.1375  0.1294 -0.3407
23463W        W39272  10.363   5.001  15.164  0.0162 -0.3305  0.0539
23464W        W39273   5.005   5.007   4.710 -0.2247 -0.0384  0.3894
23465W        W39274  13.952   8.907   3.384  0.0904  0.3103 -0.3650
23466W        W39275  14.604   2.355  14.485  0.2628 -0.0907  0.2807
23467W        W39276   3.503   9.400  14.514  0.2307  0.1326 -0.3032
23468W        W39277  14.063  11.117   4.587  0.3656  0.1513 -0.2116
23469W        W39278   7.346   3.765  16.531  0.0171 -0.0404 -0.0921
23470W        W39279   5.203  12.880   0.319 -0.0449  0.1827  0.0205
23471W        W39280  17.680   0.404  13.306  0.3579 -0.2903 -0.1543
23472W        W39281  16.492   9.661   0.456  0.0830  0.1936  0.1847
23473W        W39282   9.527   6.153  13.548  0.0973 -0.1147 -0.1222
23474W        W39283  11.084   4.978   0.378  0.0796  0.0702 -0.1497
23475W        W39284  16.793   8.731  13.830 -0.1670  0.1859 -0.1760
23476W        W39285  12.473  15.924  15.791 -0.1051 -0.0657 -0.1335
23477W        W39286  13.223  12.475   2.086 -0.0186 -0.1434  0.2879
23478W        W39287   8.881   1.654  16.297  0.2343 -0.0770  0.1107
23479W        W39288  16.639   2.551  15.582 -0.3815 -0.1350  0.0823
23480W        W39289   2.666   5.088  13.964 -0.1100 -0.0153 -0.3966
23481W        W39290   0.521  17.468  12.747 -0.0364 -0.0266 -0.1608
23482W        W39291   9.381   7.487   0.417  0.0537 -0.1274  0.0033
23483W        W39292  14.244  10.260   4.491  0.3049  0.2876  0.4723
23484W        W39293   6.368   8.669  15.435 -0.0106  0.1663 -0.1273
23485W        W39294   2.129  10.254  14.763 -0.2028 -0.0674  0.0156
23486W        W39295  14.762   6.358   0.062 -0.2819 -0.1252  0.0527
23487W        W39296   6.071   6.865  10.770 -0.1042 -0.0374 -0.0807
23488W        W39297   9.639   0.225   2.248 -0.0823 -0.1487 -0.0771
23489W        W39298   9.893   9.644  12.392 -0.2267 -0.1941 -0.0562
23490W        W39299   3.269  12.440   4.538  0.0959  0.0770 -0.1780
23491W        W39300  10.519   7.429   4.866  0.1617 -0.0372 -0.1209
23492W        W39301   1.356   4.920  13.560 -0.0031  0.2469  0.2797
23493W        W39302   5.744  10.924  12.840 -0.2147 -0.0747  0.2869
23494W        W39303   2.629   8.000   2.504 -0.0841 -0.0037  0.4624
23495W        W39304   9.831   8.278  12.376 -0.2062  0.1590 -0.0485
23496W        W39305   8.430  16.733   5.461  0.0851  0.1055  0.0839
23497W        W39306   5.489   9.023  16.169  0.3228 -0.1421  0.0716
23498W        W39307   5.977  17.328  11.748 -0.0618 -0.1470  0.1145
23499W        W39308   2.405   4.331  11.560 -0.0190  0.1032  0.3498
23500W        W39309  11.039  10.567   5.477  0.0418  0.2406  0.1427
23501W        W39310   6.139   9.597  14.095  0.1073 -0.3245 -0.1500
23502W        W39311   7.825   1.982  15.531 -0.1309  0.0082 -0.1600
23503W        W39312   9.480  15.935  13.775  0.0262 -0.2254 -0.2868
23504W        W39313  17.279  16.954   3.156 -0.0328 -0.0143  0.1732
23505W        W39314   7.679  11.754   1.812  0.0240  0.3886  0.0281
23506W        W39315   9.482   2.122  13.013 -0.1164 -0.1739  0.2337
23507W        W39316   3.194   4.777  15.933 -0.3098  0.2014  0.5512
23508W        W39317   4.506   0.650   4.218 -0.0035  0.1774 -0.3417
23509W        W39318   1.519   5.490   0.220 -0.0900  0.1022  0.0538
23510W        W39319   1.749  15.755  15.001  0.2270  0.0501  0.0774
23511W        W39320   8.254  15.799  16.047  0.0435  0.1894 -0.0339
23512W        W39321  11.176   6.235   3.601  0.0621 -0.0377 -0.0103
23513W        W39322  13.376   2.891  14.803 -0.2629 -0.3744 -0.2730
23514W        W39323   8.996   7.683  13.108 -0.0889  0.1449  0.1067
23515W        W39324   5.348  14.579   2.071 -0.0116  0.1470  0.2671
23516W        W39325   5.058  13.698  13.846 -0.1386  0.0388  0.0363
23517W        W39326   9.159   5.573   5.639  0.1070 -0.4068 -0.0467
23518W        W39327   4.005   2.989  13.034  0.2795  0.2504  0.0389
23519W        W39328  16.031   0.480  15.067 -0.0519 -0.2336 -0.2302
23520W        W39329  12.212  17.594  11.816 -0.0080 -0.3293  0.4744
23521W        W39330  14.030   7.188   3.780 -0.1794  0.1436 -0.0056
23522W        W39331   8.521  12.535  15.925  0.0360  0.1312  0.2659
23523W        W39332   9.096  12.415  16.118  0.1782  0.0429  0.0919
23524W        W39333  10.096   7.558  12.451 -0.2137 -0.3130 -0.0413
23525W        W39334  13.826  15.730  14.968  0.3828  0.1474 -0.0067
23526W        W39335   3.915   0.051   4.669 -0.0515  0.1842  0.1337
23527W        W39336  17.187  16.539  15.495  0.0205  0.0178  0.0287
23528W        W39337   5.816  15.033  13.252  0.0869  0.1713  0.0685
23529W        W39338   4.563  11.898  10.645 -0.0825  0.0656  0.0415
23530W        W39339   7.504   8.074   1.693  0.0335  0.0230 -0.0975
23531W        W39340   1.998   1.291   5.082 -0.0608 -0.0092  0.0007
23532W        W39341   1.212   7.529   4.698  0.0444  0.0997 -0.0665
23533W        W39342   3.021   2.509   5.109  0.0237 -0.3854 -0.0218
23534W        W39343   7.497  15.766  16.109  0.1549  0.0809 -0.0188
23535W        W39344  13.152   8.343   1.916  0.0222 -0.4053 -0.0789
23536W        W39345   1.377   1.770  11.580 -0.0010  0.0113 -0.0209
23537W        W39346   1.678   5.070   1.136 -0.1395  0.1864 -0.0134
23538W        W39347   8.017  15.040   2.386 -0.1318 -0.0419  0.1558
23539W        W39348   4.907   0.318  13.154  0.0107 -0.2927  0.1990
23540W        W39349   5.003   6.344   4.339  0.0682 -0.0008 -0.0609
23541W        W39350   1.986  15.231  14.354  0.4794  0.2737  0.1467
23542W        W39351   5.996   6.030  11.335 -0.2145 -0.2514 -0.0692
23543W        W39352  16.178  15.582   3.518  0.0212  0.2162  0.1879
23544W        W39353  16.871   9.928  13.199 -0.0934 -0.1238 -0.0064
23545W        W39354   0.242  15.584  13.586 -0.1871 -0.0613 -0.0733
23546W        W39355   5.865  12.070   1.849 -0.0273 -0.0019  0.0089
23547W        W39356  13.525  13.407   1.060 -0.0023  0.2475  0.1158
23548W        W39357  11.792  13.005   0.081  0.1383  0.1288  0.1928
23549W        W39358  15.993   4.853  14.755  0.1210 -0.0890 -0.2875
23550W        W39359   9.852   7.486   1.795 -0.0151  0.1436  0.2267
23551W        W39360  11.645   5.107   1.497  0.0242 -0.1129 -0.2008
23552W        W39361  16.658   8.483   1.318 -0.0442 -0.2538  0.1196
23553W        W39362  13.347  12.699   3.950 -0.0335  0.0861  0.3504
23554W        W39363  12.371  10.486   2.340  0.0442 -0.2106 -0.1508
23555W        W39364  11.359  11.526   4.738 -0.0206 -0.0153 -0.2775
23556W        W39365   9.022   1.335   4.648  0.3536 -0.1495  0.1518
23557W        W39366  16.342   7.262   4.241 -0.0491  0.1531 -0.0634
23558W        W39367   7.636  13.039   4.773  0.1133 -0.3069 -0.0765
23559W        W39368   8.407   5.881  16.632  0.1078 -0.0905 -0.0222
23560W        W39369  17.480   8.457   0.998  0.2439 -0.0059 -0.0492
23561W        W39370  14.446   8.966  12.610  0.3372  0.1303 -0.0881
23562W        W39371  15.106  10.186   2.825 -0.2988 -0.2978  0.1845
23563W        W39372   0.869  13.844  11.354  0.2001  0.1425 -0.0100
23564W        W39373  14.277   5.491   5.044 -0.3295 -0.4174  0.1800
23565W        W39374   9.864   0.808   0.071  0.1576 -0.0697 -0.1191
23566W        W39375   2.742   6.129   3.878  0.0962 -0.1120 -0.3371
23567W        W39376  11.812   3.848  13.748  0.2887  0.0184  0.0050
23568W        W39377  14.501   9.426  12.794  0.0738 -0.1817 -0.0417
23569W        W39378  13.429   7.218  16.369  0.1532 -0.0612  0.0103
23570W        W39379  12.310   2.491   3.376 -0.0578 -0.1762  0.0277
23571W        W39380   8.184   6.296   2.596 -0.3206 -0.0704 -0.4348
23572W        W39381   5.405   3.598   6.045 -0.3211  0.3008  0.3426
23573W        W39382  12.219  10.862   2.125  0.2208 -0.1347 -0.0696
23574W        W39383  11.299   5.692   0.984  0.0460  0.0819 -0.2489
23575W        W39384  10.118   4.437  16.257  0.3339  0.2609  0.3183
23576W        W39385  16.732   7.381  15.369  0.2696  0.0288  0.1470
23577W        W39386   4.352   6.469  13.200  0.0402  0.1340  0.0116
23578W        W39387  17.706  10.006   4.929 -0.1313  0.3357  0.0392
23579W        W39388   8.785   2.884   2.002  0.5386 -0.0935  0.0360
23580W        W39389   0.694   8.685  12.140  0.1242 -0.0433 -0.1015
23581W        W39390   7.245   4.297   3.732  0.1249  0.1891 -0.2155
23582W        W39391   0.281  13.999  11.491  0.0149 -0.0175  0.2358
23583W        W39392  11.894   4.369  12.948 -0.0435 -0.2826  0.2435
23584W        W39393  14.517  15.830  13.826  0.1479  0.1610  0.3185
23585W        W39394   0.748   2.488  11.528  0.0476  0.2292 -0.3374
23586W        W39395   7.626  10.597  11.672 -0.0032  0.2741 -0.1127
23587W        W39396   5.278  14.663   1.009  0.1112 -0.1919 -0.1131
23588W        W39397   3.615  10.285   1.574 -0.0096 -0.2199 -0.3476
23589W        W39398   8.203   8.351   2.698 -0.0404 -0.3591 -0.1171
23590W        W39399  10.468  16.499   2.464  0.2522 -0.3913  0.2641
23591W        W39400  16.290  16.506   3.101 -0.3071  0.1944  0.0323
23592W        W39401  11.970   7.867  12.742 -0.0424  0.1705  0.0238
23593W        W39402   4.873   5.001  14.495  0.1100 -0.4104  0.2029
23594W        W39403   3.710   3.501  15.650 -0.0341  0.0010  0.0259
23595W        W39404   0.412   1.219   0.232 -0.1480  0.0237  0.0805
23596W        W39405   0.246  13.681   3.619 -0.1821  0.1527  0.3259
23597W        W39406   1.372   8.418   1.255 -0.1199  0.0255  0.0117
23598W        W39407   3.124   4.178  11.849  0.1978  0.2008  0.0344
23599W        W39408  12.502  12.782   3.813 -0.1890  0.4347 -0.1593
23600W        W39409   2.419  13.493   4.845 -0.1066  0.2066 -0.3477
23601W        W39410  15.413   4.272   2.319  0.2137  0.1102 -0.0044
23602W        W39411  10.153   7.894  15.020 -0.1626 -0.0060  0.1747
23603W        W39412  17.788  17.617   3.342 -0.1127 -0.1089 -0.1157
23604W        W39413  14.360   0.528   4.810  0.2561  0.2106 -0.0840
23605W        W39414  14.666   4.219   5.172 -0.0287 -0.1246  0.1461
23606W        W39415   5.828   0.175  16.064 -0.1057 -0.0070 -0.0005
23607W        W39416  10.730   3.008   2.410  0.0749 -0.0180 -0.0025
23608W        W39417   1.400   3.964  13.867 -0.0033 -0.0967 -0.0682
23609W        W39418  14.269   3.686  14.147  0.0089 -0.0563 -0.1855
23610W        W39419  17.250   3.716  12.815  0.1574  0.1876 -0.2422
23611W        W39420  15.675   5.638  14.510  0.2773  0.0901 -0.2153
23612W        W39421   4.636  15.305  13.128  0.0940 -0.0513  0.0650
23613W        W39422   3.580  14.745   4.286  0.0129 -0.0652  0.3431
23614W        W39423  17.537   2.396  15.276  0.1066 -0.4044  0.2697
23615W        W39424   6.165  16.200  15.694 -0.1101 -0.1550 -0.1218
23616W        W39425   1.605  17.857  13.722  0.2727 -0.2143 -0.0203
23617W        W39426   5.115  12.436   0.537 -0.0876 -0.2623 -0.0901
23618W        W39427   3.406  13.838  16.436  0.3863  0.1294  0.0954
23619W        W39428   0.470  13.669  12.073  0.1329 -0.1615  0.3454
23620W        W39429   3.827   5.339   3.329  0.0513 -0.0275 -0.3042
23621W        W39430   9.259   3.302  16.093 -0.1695 -0.2096  0.1570
23622W        W39431  16.198  10.116   5.801 -0.0545 -0.0349 -0.1581
23623W        W39432   2.499  16.222  13.186  0.1121  0.0044  0.1854
23624W        W39433  10.600   9.505   1.915  0.1928  0.1055  0.1033
23625W        W39434   9.085  11.254   1.715  0.3705 -0.0558  0.1972
23626W        W39435  13.926  10.068  11.836 -0.3150  0.0778 -0.0560
23627W        W39436   1.227   4.112  13.179 -0.0069 -0.0603 -0.1992
23628W        W39437   0.034   3.465  13.189 -0.1362 -0.1096 -0.0190
23629W        W39438  16.890   9.054  12.120  0.1241 -0.0784 -0.0080
23630W        W39439   7.075  15.303   5.128 -0.0525 -0.4367 -0.0172
23631W        W39440  16.837   5.759   1.754  0.1253  0.1290  0.0537
23632W        W39441  13.453  13.266   1.625  0.2542 -0.2178  0.1160
23633W        W39442  14.911  14.113  12.517  0.2003  0.1436  0.0223
23634W        W39443   2.995  17.429   2.679 -0.2193  0.1198  0.0555
23635W        W39444   7.388  16.343   2.810  0.1585 -0.0687 -0.3110
23636W        W39445   5.362  12.856   2.339 -0.1420  0.0577 -0.1762
23637W        W39446   3.332   2.415  15.284  0.0772 -0.3335  0.1683
23638W        W39447  10.569   5.256  13.745  0.0047  0.2912  0.1005
23639W        W39448  17.048  10.398   1.607  0.2452 -0.2615 -0.2416
23640W        W39449  10.223   5.711   4.424  0.1201  0.0278  0.2474
23641W        W39450  13.160  17.720   0.850 -0.0752  0.1550  0.1448
23642W        W39451  16.826   3.222  14.847  0.1099  0.0623  0.1357
23643W        W39452   8.130  14.428  15.586 -0.1778  0.0050 -0.0687
23644W        W39453   2.600   0.981  12.012 -0.1427  0.2798 -0.0474
23645W        W39454   8.242   7.748   0.562  0.0421 -0.1685  0.1245
23646W        W39455  12.109  13.895   1.545  0.0101  0.1630  0.0510
23647W        W39456   9.419  12.482   4.611  0.3760  0.0325 -0.0898
23648W        W39457  15.666  10.783   5.744  0.1732  0.2123 -0.5381
23649W        W39458   1.629   5.540  14.015 -0.0776  0.0541 -0.3928
23650W        W39459   2.285  16.032   5.917 -0.1511 -0.3742  0.2959
23651W        W39460  14.446   1.507   2.676  0.3231  0.0161 -0.1517
23652W        W39461  13.206   8.471  13.419 -0.0680 -0.0362  0.0296
23653W        W39462  15.785  13.303  15.660  0.0803  0.1946 -0.0420
23654W        W39463   7.708  16.293   0.447  0.2196  0.0314  0.0296
23655W        W39464   3.253   9.147  15.439  0.0030 -0.3520  0.0872
23656W        W39465  13.616   3.668   2.798 -0.2031 -0.0706 -0.1623
23657W        W39466   4.406  16.421   5.755 -0.0844 -0.1658  0.0731
23658W        W39467  17.160   3.536   0.922 -0.2303 -0.0243 -0.2630
23659W        W39468  17.052   6.774  14.013 -0.5877 -0.2731  0.0655
23660W        W39469   5.623  17.231  14.788  0.0624 -0.1711 -0.0211
23661W        W39470  17.364  10.723   1.461  0.1077 -0.1173  0.0271
23662W        W39471   9.258   9.837  15.407  0.1993 -0.3722 -0.0586
23663W        W39472   1.995  17.178   5.088  0.1774  0.1086 -0.2512
23664W        W39473  12.576  13.980  15.851 -0.1202 -0.1827  0.1351
23665W        W39474   0.401   4.429   1.180 -0.1871  0.1364  0.1591
23666W        W39475   3.808   0.735  12.436  0.0261  0.3641 -0.1384
23667W        W39476  16.890   7.155   4.920 -0.0836  0.1287 -0.0922
23668W        W39477   4.704  16.659  11.733  0.2518  0.1878  0.1724
23669W        W39478   9.588  11.127   4.375  0.1438 -0.0343  0.0786
23670W        W39479   8.632   8.139  15.063  0.2806  0.0345 -0.2873
23671W        W39480  12.004   2.690  15.059 -0.1049  0.0406  0.1461
23672W        W39481   5.211   8.084  11.852  0.1591  0.2590  0.0044
23673W        W39482   6.178   5.486   3.233  0.1851 -0.1038  0.3965
23674W        W39483  13.490   3.257  14.353 -0.0692 -0.0744  0.0365
23675W        W39484  14.311  10.355  12.647  0.1502 -0.2557 -0.1773
23676W        W39485  17.589  12.040  12.352  0.1634 -0.1923  0.0072
23677W        W39486   8.477   8.778   0.396 -0.1713  0.3483 -0.3755
23678W        W39487  12.575   9.059   5.873  0.1634 -0.0191 -0.1049
23679W        W39488  15.216   7.626  16.607  0.2239  0.1500  0.0438
23680W        W39489   0.369   2.963  11.200 -0.1759  0.0306 -0.1994
23681W        W39490   8.486   5.559  16.290  0.0463 -0.2173 -0.3539
23682W        W39491  12.364  17.137  11.833 -0.1617  0.0787 -0.1534
23683W        W39492   8.143  12.442  14.889 -0.0291  0.0345 -0.0824
23684W        W39493  10.805  10.518  15.838 -0.0118 -0.1205 -0.1084
23685W        W39494  10.950   0.681   2.961  0.0167 -0.0371  0.0712
23686W        W39495   5.278  12.693  11.700  0.5735 -0.1935 -0.0859
23687W        W39496  17.406  13.770  11.814 -0.0886  0.1781 -0.1346
23688W        W39497   3.252  14.311   4.376 -0.1285  0.0758  0.4024
23689W        W39498   4.998   8.810   1.567 -0.3590 -0.3665  0.0866
23690W        W39499   3.108  10.841   3.312  0.2551  0.2223  0.1194
23691W        W39500  10.430   5.310  15.667 -0.0047  0.4235  0.1696
23692W        W39501   4.801  13.498   2.701 -0.0298  0.3581 -0.1036
23693W        W39502   7.541  11.368  12.249 -0.1269 -0.2516 -0.0152
23694W        W39503  17.936   8.130   5.066 -0.1787 -0.5004 -0.1433
23695W        W39504   8.411   4.565  12.205  0.1293 -0.1710 -0.1688
23696W        W39505   4.722   2.694   2.991 -0.5119 -0.0212  0.1671
23697W        W39506  17.458  10.195  13.537 -0.0064  0.1508 -0.3544
23698W        W39507  11.776   3.691   6.748  0.0727 -0.0662 -0.2402
23699W        W39508  11.285   6.647  16.443  0.4246  0.0159 -0.1573
23700W        W39509  15.878  10.039   4.998  0.0713  0.1941 -0.1429
23701W        W39510  15.361   9.591  13.932  0.1582  0.0735  0.1317
23702W        W39511   2.778   6.227   5.675  0.1533 -0.2840 -0.0008
23703W        W39512  10.504  12.224   6.493  0.2903  0.0976 -0.2862
23704W        W39513  16.044   2.479  14.494 -0.0476  0.1265 -0.1754
23705W        W39514  13.184   9.820   3.784 -0.0715  0.4131  0.1813
23706W        W39515  13.563   9.331   1.283 -0.2558 -0.0193 -0.0257
23707W        W39516   0.544   1.316   1.722 -0.1563 -0.1248 -0.0652
23708W        W39517  15.929   1.607   0.688  0.2067  0.2389  0.2353
23709W        W39518  16.934  17.306   5.035  0.0857  0.1094 -0.1350
23710W        W39519  14.680  15.411   1.091  0.1180  0.1431  0.0736
23711W        W39520   6.719  10.880   0.322 -0.1064  0.0221 -0.1016
23712W        W39521   9.483  15.891  13.243 -0.2395  0.0824 -0.0492
23713W        W39522  10.783   7.426   5.350  0.1343 -0.0717  0.1051
23714W        W39523  15.725  17.198   4.454 -0.1031  0.0864  0.0138
23715W        W39524   0.993   3.766  16.613 -0.1054 -0.0166 -0.1097
23716W        W39525   2.348  17.553  14.945 -0.2745  0.2495 -0.1148
23717W        W39526   5.418  15.208   1.304  0.0456  0.0782 -0.1378
23718W        W39527   1.193   8.620  12.167 -0.1942 -0.1466  0.0136
23719W        W39528   1.677  10.769   3.551 -0.1140 -0.2583 -0.1678
23720W        W39529   2.772   6.560  12.056  0.0664 -0.2845  0.1973
23721W        W39530  16.446   9.510   6.651  0.3948 -0.1690  0.0296
23722W        W39531  16.776   3.108   5.365 -0.0352  0.1086 -0.2292
23723W        W39532   5.519   3.670   1.202 -0.0081 -0.2183  0.0191
23724W        W39533  12.057  13.179   2.251 -0.0367 -0.0057  0.1927
23725W        W39534  15.169   2.413  14.607  0.0945 -0.0210  0.2833
23726W        W39535   3.455  11.721   0.921  0.0480  0.2228 -0.1826
23727W        W39536   2.149   4.539  14.039  0.0596 -0.4610  0.1193
23728W        W39537  17.881   0.656   3.927 -0.1187  0.0196  0.1412
23729W        W39538   2.605  17.245   1.883  0.0672 -0.0926 -0.1199
23730W        W39539   7.471   9.386  15.618  0.1671 -0.1839 -0.0222
23731W        W39540   2.306   5.416  14.014  0.1118 -0.0134  0.0146
23732W        W39541  10.088   1.754  14.702  0.2911 -0.0408 -0.0390
23733W        W39542   8.622   6.912  13.974  0.2861  0.3099  0.0023
23734W        W39543   5.087  17.379  16.084 -0.3418  0.1301  0.0455
23735W        W39544  17.213   5.894   1.251 -0.1832 -0.1085  0.2392
23736W        W39545   9.544   3.605   3.664  0.0143 -0.1119 -0.1635
23737W        W39546   9.946  17.298   3.122 -0.1176  0.2770  0.3354
23738W        W39547   8.236  17.071   0.219  0.0451 -0.1622 -0.0740
23739W        W39548  14.535   6.869  12.310 -0.3187  0.0915  0.0630
23740W        W39549   8.027   5.742   4.185 -0.1229  0.0531 -0.0462
23741W        W39550   6.563  17.113   3.181  0.2899 -0.3122  0.1771
23742W        W39551  17.254  12.225   2.102 -0.0940  0.1279  0.0560
23743W        W39552  12.367  15.668   1.266 -0.0371 -0.0279 -0.1293
23744W        W39553  17.809  11.096  15.868 -0.2051 -0.1775 -0.2350
23745W        W39554   9.475  14.025   5.416  0.2664  0.0994 -0.0039
23746W        W39555   5.055  10.476   3.475  0.0986 -0.1224 -0.3187
23747W        W39556   5.336  11.843   3.125 -0.1536  0.0361  0.0149
23748W        W39557   1.926  14.743   1.063  0.3508  0.2063  0.1518
23749W        W39558  15.586  11.258   5.565  0.0142  0.2105 -0.2212
23750W        W39559  10.554  11.102  14.747  0.2110  0.0830 -0.2192
23751W        W39560   8.308  17.865   2.812  0.0064 -0.1924  0.0158
23752W        W39561  14.353   3.899   4.308 -0.1356  0.0340 -0.0612
23753W        W39562   4.931   8.392  13.214  0.0819 -0.2580 -0.1405
23754W        W39563   9.920   4.321   6.595  0.2946  0.2250  0.1277
23755W        W39564   8.894  13.525  16.266 -0.1447  0.0886  0.0913
23756W        W39565   6.960  14.774  15.547  0.1016 -0.0195  0.0636
23757W        W39566   6.108  17.884   2.827  0.0939 -0.4064  0.2151
23758W        W39567   6.314  12.224  14.856 -0.0241 -0.2088  0.1010
23759W        W39568  16.457  10.486   1.436 -0.1958 -0.1607  0.3188
23760W        W39569   5.447   0.427   5.226 -0.1175 -0.1768  0.1201
23761W        W39570   9.536  15.924   0.788 -0.4001 -0.2495  0.0915
23762W        W39571  17.560   6.256   3.518 -0.2923  0.0232  0.1257
23763W        W39572   1.980  10.209  13.834 -0.0486 -0.1972 -0.0501
23764W        W39573  10.231   3.592  15.187 -0.3746 -0.0890 -0.1361
23765W        W39574   5.186   0.488   0.122 -0.1252  0.0511 -0.2297
23766W        W39575   2.371  10.483   3.030 -0.0464 -0.0964 -0.0322
23767W        W39576  15.892   8.305  11.195 -0.1871 -0.0120  0.0286
23768W        W39577   7.206   3.510  14.015 -0.0574  0.0287  0.2909
23769W        W39578   9.784  10.294  14.303 -0.0102 -0.0559 -0.1087
23770W        W39579   5.369   0.892  12.080  0.5114 -0.2169  0.1359
23771W        W39580  13.336   2.183   1.053 -0.2814 -0.0384 -0.2266
23772W        W39581  13.178   6.355   2.810 -0.0313  0.3417  0.2163
23773W        W39582  11.225  12.477   2.630 -0.1126  0.1849  0.3795
23774W        W39583   5.995  11.575  16.058 -0.4876 -0.1743  0.0196
23775W        W39584   0.478   0.793   2.357 -0.1509 -0.2039  0.2782
23776W        W39585   9.048   5.538  15.509  0.1380  0.2513  0.1437
23777W        W39586   7.857  16.118   4.085 -0.0347 -0.0154 -0.0689
23778W        W39587  13.888  14.438   5.487  0.0463  0.0968  0.0110
23779W        W39588   7.756  14.454   4.755  0.1636  0.1818 -0.2267
23780W        W39589  12.722   6.662   1.472 -0.2888 -0.0785 -0.2063
23781W        W39590   6.407   2.809  16.049  0.2403 -0.0114  0.1638
23782W        W39591   3.828  15.801   0.988  0.4779  0.1154 -0.0996
23783W        W39592   9.165   6.032  13.981 -0.2900 -0.0680  0.1458
23784W        W39593  16.445  12.002   0.145  0.2192 -0.2306  0.0515
23785W        W39594   1.355  10.147   1.051 -0.1490 -0.0236  0.1660
23786W        W39595   0.159   2.466   4.200  0.2372  0.2694  0.1858
23787W        W39596   8.824   7.266  11.507  0.0360 -0.0079  0.2642
23788W        W39597   0.345   0.215   5.919 -0.0072  0.0489  0.1976
23789W        W39598   0.406   4.448  14.574  0.2952  0.1231 -0.1450
23790W        W39599  15.043   5.272   4.958 -0.0534 -0.0992  0.2117
23791W        W39600   4.535   9.774  16.609 -0.2524 -0.3072 -0.3712
23792W        W39601   3.272   6.011   3.012 -0.4841 -0.0293  0.2559
23793W        W39602   1.372   7.498  11.580 -0.1182  0.0396 -0.0087
23794W        W39603  15.631  12.085  14.246 -0.1707 -0.1936  0.1683
23795W        W39604   3.837   5.799   2.615  0.4199  0.1446  0.0779
23796W        W39605  13.187   1.907  12.478 -0.0515  0.1065  0.0171
23797W        W39606  11.921   6.809  15.245 -0.1624  0.0647  0.1099
23798W        W39607  17.181   5.625   4.652 -0.0252  0.1060 -0.3725
23799W        W39608  13.908   8.905  16.260  0.3226  0.1439  0.0228
23800W        W39609   8.662  17.152  14.758  0.0679  0.2898 -0.0207
23801W        W39610  10.005   1.715   1.103 -0.3199  0.2852  0.3108
23802W        W39611   5.991   0.072   4.131 -0.0729  0.2682 -0.1638
23803W        W39612   3.805   5.350  15.536 -0.0151 -0.0142  0.1327
23804W        W39613  16.934  15.471   0.088  0.1130  0.1082  0.0078
23805W        W39614   9.926   7.352   0.532 -0.0490 -0.0801 -0.0104
23806W        W39615   0.483   9.615  14.834  0.0752  0.0146  0.2276
23807W        W39616   8.017   0.308   1.042  0.2130 -0.2886 -0.2839
23808W        W39617  11.955  10.975   6.655  0.1588  0.5066  0.1751
23809W        W39618   8.136  14.572   5.153 -0.1646  0.0828 -0.2201
23810W        W39619   1.441   0.974  12.558  0.1559  0.1004 -0.2251
23811W        W39620   6.161  14.802  11.109  0.0830 -0.0043  0.0918
23812W        W39621   7.309  11.797   2.219  0.0954  0.1004  0.0797
23813W        W39622   9.658   5.489   5.667 -0.0458  0.1725 -0.0389
23814W        W39623   0.935  10.579   5.288  0.0100  0.2001 -0.3755
23815W        W39624  17.902   2.836   5.752 -0.4079  0.1215  0.0036
23816W        W39625  14.586  11.145   4.614  0.2046  0.2317 -0.0006
23817W        W39626   3.824  15.808   0.473  0.0919 -0.1629  0.2124
23818W        W39627   9.131   5.168  15.973  0.1696  0.1685 -0.2161
23819W        W39628   3.080   7.408   3.997 -0.2835 -0.1258  0.0558
23820W        W39629  14.513   5.000   3.691  0.0885  0.1189 -0.0279
23821W        W39630  14.136  17.892   5.365  0.0883 -0.2006 -0.0453
23822W        W39631   5.873   2.732   1.024  0.0383  0.0264  0.0164
23823W        W39632   9.639  11.160  14.986  0.0067  0.1947 -0.1551
23824W        W39633   5.182  15.179   0.121 -0.3167  0.1472  0.1944
23825W        W39634  11.531  16.669  16.070  0.2500 -0.1518 -0.1307
23826W        W39635   8.330   7.293  13.820  0.1129 -0.0810  0.3164
23827W        W39636   3.677   6.024  15.337 -0.0625  0.0434  0.0410
23828W        W39637  11.491   8.210   1.711  0.4875 -0.0375 -0.2543
23829W        W39638  12.846   2.111  15.851  0.3244  0.1485 -0.1670
23830W        W39639  11.799   3.840   1.458 -0.0086 -0.0662  0.0187
23831W        W39640  11.101  12.492   5.242 -0.1345  0.0320  0.0093
23832W        W39641  16.992  16.579   2.020  0.1942  0.1520  0.0471
23833W        W39642  16.579  13.382  13.842 -0.1047  0.5412  0.1883
23834W        W39643   2.961   1.018  11.354 -0.2587 -0.1763  0.1688
23835W        W39644   9.476   0.320  11.364  0.0772  0.0709 -0.1205
23836W        W39645   5.272   6.402  14.833 -0.0421 -0.1929  0.0060
23837W        W39646  14.681  13.108  13.207  0.1412 -0.1028  0.1966
23838W        W39647   9.930   9.927  14.804  0.1144  0.1383 -0.0497
23839W        W39648   7.597  10.021  14.544 -0.0357 -0.0150 -0.1938
23840W        W39649  10.771   4.697   1.965 -0.4121  0.0244 -0.1257
23841W        W39650   9.158  12.817   3.023 -0.1450  0.0454 -0.0896
23842W        W39651   1.559  12.887   0.372  0.3753  0.0730 -0.1924
23843W        W39652  13.623  15.326  13.605  0.2733 -0.3352 -0.2404
23844W        W39653  16.034  12.687  14.832 -0.2527  0.1240  0.2411
23845W        W39654  10.295  10.996  16.524 -0.1633  0.0607  0.0874
23846W        W39655   4.237   7.210  14.290 -0.2402  0.1031 -0.1639
23847W        W39656   3.154   4.850  12.178  0.0737  0.0637  0.0890
23848W        W39657   7.979  12.057   4.227 -0.0189  0.1334  0.0091
23849W        W39658  11.019   0.121   1.251  0.1171  0.1735  0.0143
23850W        W39659   7.490  10.553  12.661  0.1258 -0.0398  0.0047
23851W        W39660   1.237  17.861   2.834  0.1314  0.0871 -0.1395
23852W        W39661   0.362   5.986  13.075  0.0723  0.0355  0.0360
23853W        W39662   3.249   2.231   1.784 -0.1384 -0.0501 -0.1138
23854W        W39663  14.173   6.060  16.291 -0.0673  0.0016  0.0738
23855W        W39664  16.817   7.369   1.389  0.0018 -0.2237 -0.0549
23856W        W39665  16.806   1.934   3.329  0.1295 -0.0864  0.4832
23857W        W39666  17.153  10.897   0.384  0.1229 -0.1957  0.1360
23858W        W39667   7.184   7.694  12.890  0.0950  0.0010  0.0644
23859W        W39668   4.701   5.869  11.929  0.1066  0.1198  0.0780
23860W        W39669   9.440  13.655   0.367 -0.0612  0.0015  0.3110
23861W        W39670   1.983  14.455  13.487 -0.1216 -0.1137  0.0592
23862W        W39671   0.689  11.058  14.659 -0.1144  0.0352  0.0653
23863W        W39672   3.548  16.134  14.509 -0.1694 -0.0445 -0.1194
23864W        W39673  16.638  10.102   6.049 -0.3796 -0.0983  0.0838
23865W        W39674   4.463  11.486   1.882 -0.1410  0.0871 -0.1362
23866W        W39675  16.531   9.142   0.684 -0.4396 -0.2638 -0.0669
23867W        W39676  15.287  13.722   4.912  0.2807 -0.2207 -0.0557
23868W        W39677  10.661  14.910  15.806 -0.1913 -0.0365  0.0834
23869W        W39678  14.922   7.798   6.250 -0.2368 -0.0447 -0.2466
23870W        W39679   9.676  17.199   3.942 -0.2547  0.0092 -0.4960
23871W        W39680   2.137   6.662  13.713 -0.3275  0.0813 -0.3112
23872W        W39681   6.405   9.954  10.945  0.0011  0.0326  0.1504
23873W        W39682  13.230  14.844   0.532 -0.1066  0.3061  0.0535
23874W        W39683   7.704   0.045  16.320 -0.0999  0.0296 -0.2713
23875W        W39684  12.526   5.521  13.293 -0.0228  0.0001  0.1231
23876W        W39685  15.497   3.168  13.427  0.0071 -0.1002  0.0830
23877W        W39686   3.994   4.299   0.404 -0.0969 -0.0518  0.3331
23878W        W39687   3.293  13.028   3.213 -0.0773 -0.1531 -0.0627
23879W        W39688  11.955   4.995   0.325 -0.0999  0.1001  0.0602
23880W        W39689   2.141   6.095  16.169 -0.4078 -0.0259 -0.0122
23881W        W39690  11.315   3.393   5.621  0.4343  0.0375  0.0855
23882W        W39691  10.430   6.861   4.948  0.4321  0.2222 -0.2173
23883W        W39692  17.350   8.793   3.808  0.2363  0.1706  0.1508
23884W        W39693   3.157  17.619  14.595  0.1358 -0.2245  0.0071
23885W        W39694  15.353   7.001  15.609 -0.3713 -0.2554  0.1127
23886W        W39695   3.709  16.641   2.471  0.1512 -0.0288 -0.0338
23887W        W39696   4.915   7.788   4.848  0.1123 -0.0279  0.0725
23888W        W39697  14.733   3.692  16.579  0.1649  0.1300  0.2630
23889W        W39698   1.082   0.891  13.170 -0.1226 -0.0981  0.1783
23890W        W39699  16.087  10.751  15.442 -0.0354  0.0191 -0.2410
23891W        W39700   6.845   4.847  15.548 -0.1071 -0.3116  0.0169
23892W        W39701   7.781   7.025   0.061 -0.2347 -0.0336  0.3132
23893W        W39702  12.089  13.128  16.250  0.3223 -0.2006  0.0123
23894W        W39703  16.087   9.641  16.185  0.2104 -0.1019  0.2899
23895W        W39704  15.434   7.739   3.544  0.5294  0.2683  0.0850
23896W        W39705  13.150  17.233   2.859  0.0758  0.5695 -0.1083
23897W        W39706  13.159   5.296   4.459 -0.0931  0.0504 -0.1738
23898W        W39707  13.318  15.947   3.340 -0.1537  0.0160  0.0495
23899W        W39708   0.071   3.919  14.765  0.0059 -0.1773  0.0937
23900W        W39709  13.981   3.244  12.393 -0.0129  0.3560 -0.0900
23901W        W39710  11.888  15.876   4.611 -0.2959 -0.2386 -0.2179
23902W        W39711   8.808   9.973  12.321 -0.1081 -0.0899 -0.0175
23903W        W39712   6.105   1.723   6.456  0.2676 -0.0223  0.1277
23904W        W39713  11.719   8.905   3.034  0.0241 -0.0146  0.1257
23905W        W39714  13.786  16.695   5.006  0.0395 -0.0430  0.2954
23906W        W39715   3.726  10.683   2.508  0.2105 -0.0405  0.2989
23907W        W39716   5.360  15.831  11.692  0.0642 -0.1737 -0.1472
23908W        W39717   4.236  16.433  13.689  0.2167 -0.0221 -0.3269
23909W        W39718   2.557   6.161   2.204 -0.2871 -0.2603 -0.0352
23910W        W39719   1.768  10.089  13.255 -0.0736 -0.0431 -0.3492
23911W        W39720   0.180  16.770  16.545 -0.0229  0.1953 -0.1601
23912W        W39721  12.182  13.264  15.796  0.2025  0.2577  0.0170
23913W        W39722  16.891  17.515  13.948 -0.1633 -0.0344  0.0541
23914W        W39723   6.333  12.019  11.009  0.1939  0.0205 -0.0290
23915W        W39724  14.150  13.039  15.704 -0.4319 -0.1649 -0.0823
23916W        W39725  11.091  16.004   0.990  0.0716 -0.1462  0.0342
23917W        W39726  11.250  14.259   2.991 -0.2904 -0.3776 -0.1139
23918W        W39727   8.019  15.810  11.347 -0.2274  0.0088 -0.1342
23919W        W39728  12.782  17.523   0.002  0.2764  0.0395  0.2091
23920W        W39729   7.130   4.942  15.975  0.5274 -0.2477 -0.0014
23921W        W39730  17.633   9.936  14.312 -0.1267  0.0079 -0.0841
23922W        W39731  14.277   4.753   2.584  0.2343  0.1854 -0.2365
23923W        W39732   3.197   0.204   2.736 -0.1170  0.0718  0.0803
23924W        W39733   2.005   0.063  15.305 -0.0398 -0.1361  0.3274
23925W        W39734   2.427   5.757   1.914  0.0476 -0.2805 -0.0112
23926W        W39735  14.528  14.718  14.948  0.0889 -0.0986  0.0395
23927W        W39736   2.991   6.740   5.740 -0.1074 -0.1794 -0.1137
23928W        W39737  13.697   1.974  14.219  0.1457  0.1082 -0.1691
23929W        W39738   2.786   1.103   0.065  0.3341 -0.2803  0.0535
23930W        W39739   0.405  16.554   1.843 -0.1290 -0.2425 -0.0726
23931W        W39740   4.060   9.822   3.450  0.0956  0.1558 -0.0107
23932W        W39741   1.118   5.362   0.720 -0.0229  0.1775 -0.0527
23933W        W39742  13.526   8.933  15.919 -0.1300 -0.0742  0.2333
23934W        W39743  15.023  15.444   0.109 -0.0134  0.1335  0.1083
23935W        W39744   4.309   4.280   5.763  0.0396 -0.0602  0.0111
23936W        W39745  12.144   5.605   6.151 -0.0617  0.2265  0.0930
23937W        W39746   7.778   0.840   5.230  0.1363  0.0027  0.1408
23938W        W39747  11.100  12.615   3.983  0.0740  0.1315 -0.2107
23939W        W39748   9.333   7.090  15.744 -0.0227 -0.1108  0.0107
23940W        W39749  16.585   5.543  11.878 -0.4050 -0.4743 -0.3481
23941W        W39750   0.186  16.856  13.679  0.0645  0.1264  0.0148
23942W        W39751   4.220  10.010  14.047  0.0413 -0.2918 -0.2600
23943W        W39752   3.311   5.587  16.576 -0.0824  0.0194  0.0945
23944W        W39753   8.818   4.855   1.312 -0.1137  0.0265  0.2294
23945W        W39754   2.591   2.322  16.488 -0.0730 -0.4241  0.0592
23946W        W39755  12.554   8.137  13.965 -0.0852  0.0428  0.1671
23947W        W39756  15.235   2.298   1.919 -0.0329 -0.2444 -0.1599
23948W        W39757   2.976  13.355  14.101 -0.3997  0.3233  0.1127
23949W        W39758   6.941  15.167  12.559  0.3077 -0.0134 -0.1576
23950W        W39759  17.374   0.161   0.314 -0.2818  0.2693  0.1955
23951W        W39760   3.713   7.945  14.860  0.2315  0.3693 -0.0697
23952W        W39761   2.570   8.029  16.157  0.4318 -0.0599  0.1035
23953W        W39762   9.309   9.478   2.071 -0.1243  0.1357 -0.3465
23954W        W39763  15.865   4.914  12.016  0.1445 -0.0231 -0.3590
23955W        W39764   6.206   9.555   4.489  0.1184 -0.0879 -0.0836
23956W        W39765  17.060   4.246  13.816 -0.1807 -0.0984 -0.0727
23957W        W39766   5.261  16.390   0.685 -0.1795  0.3256 -0.2147
23958W        W39767  11.676   2.320   4.471  0.1606 -0.2709 -0.1844
23959W        W39768  15.477   3.345   1.618  0.0496 -0.1868 -0.0677
23960W        W39769  12.110  17.213   5.566 -0.0985 -0.2101 -0.1778
23961W        W39770  17.466  12.952   2.196  0.1068  0.0283  0.0926
23962W        W39771   6.930  10.813  14.445  0.0618  0.0169 -0.1147
23963W        W39772  15.689   7.035   1.779  0.1854  0.1080 -0.1325
23964W        W39773  14.226  16.879  12.905  0.1451  0.0339  0.0127
23965W        W39774   4.557   7.395   4.160 -0.2205 -0.0332 -0.1155
23966W        W39775  15.762   1.692   1.690 -0.1358 -0.0007  0.0316
23967W        W39776   4.172  14.955  11.538  0.0670  0.1144  0.0976
23968W        W39777  13.435   6.372   0.242  0.2095 -0.1361  0.0478
23969W        W39778   6.626  13.006   0.364  0.0831  0.0050 -0.0573
23970W        W39779   2.247  14.625  13.869 -0.0940  0.2472  0.0194
23971W        W39780   1.811   9.354   1.505 -0.0508  0.1576  0.2661
23972W        W39781   6.305  10.558  16.210 -0.1998  0.3296  0.0386
23973W        W39782   2.802   5.487  13.177 -0.0843 -0.0846 -0.2219
23974W        W39783   4.882   8.870   1.021 -0.0571  0.0975  0.0893
23975W        W39784  11.801  14.911  14.668 -0.4633 -0.1572 -0.0391
23976W        W39785  15.692  13.591   0.467 -0.0631 -0.0086 -0.2125
23977W        W39786  13.727   1.350  15.239  0.0194  0.2522 -0.0255
23978W        W39787   4.952  10.856  10.854  0.1467  0.0301  0.0224
23979W        W39788  10.577   9.946   4.914 -0.0094 -0.1709 -0.1167
23980W        W39789  16.546  13.480  11.474  0.1217 -0.3337 -0.4320
23981W        W39790  14.238  13.789  12.856  0.1452 -0.3623  0.0710
23982W        W39791   7.278   4.359  12.645 -0.0343 -0.1777 -0.4247
23983W        W39792   8.346   7.471   4.397 -0.0540  0.1066 -0.0075
23984W        W39793   5.941   9.954   0.911  0.0024  0.0928 -0.1103
23985W        W39794  16.083   9.222  16.577  0.0038 -0.0718 -0.1456
23986W        W39795  13.086   9.124  12.503  0.1583  0.1487  0.4292
23987W        W39796   6.565   9.513  14.478 -0.2314 -0.0770 -0.0606
23988W        W39797  12.117   0.485   4.323  0.0843  0.3410  0.0573
23989W        W39798   5.776   4.354  15.380  0.2299  0.1592  0.0381
23990W        W39799   0.654   8.631   3.415  0.1285  0.2985 -0.0359
23991W        W39800   8.915  12.950  12.962  0.0866 -0.0103 -0.3418
23992W        W39801  12.387   1.943   0.102 -0.0328  0.1066 -0.0820
23993W        W39802  11.774  13.392   4.045 -0.0620  0.1597 -0.1090
23994W        W39803   6.465  17.610  14.671 -0.1246 -0.0597 -0.1323
23995W        W39804  17.026   5.271   4.286  0.5151 -0.0764  0.1294
23996W        W39805   2.449   7.419  10.670 -0.0593  0.2165  0.1590
23997W        W39806  15.691  17.276  11.750 -0.1426 -0.2366 -0.0327
23998W        W39807   8.185   6.016   3.001  0.3197  0.0655  0.1007
23999W        W39808   8.470  12.807   4.687  0.1430  0.3745 -0.3065
24000W        W39809  11.250  13.514  16.492 -0.1384  0.0057  0.2930
24001W        W39810  12.555  14.106   0.806 -0.1053  0.0516 -0.2828
24002W        W39811  17.363   5.800   1.763 -0.1476  0.0109 -0.1503
24003W        W39812  12.443   5.234   5.822 -0.0849 -0.1580  0.0844
24004W        W39813   3.137  13.908  14.829  0.0219 -0.3083  0.2192
24005W        W39814  12.816   3.864   3.546  0.0576 -0.1843  0.0320
24006W        W39815  12.964   6.245  12.087  0.3817 -0.2857  0.0796
24007W        W39816   4.185   5.700  15.506 -0.0074 -0.1763 -0.2573
24008W        W39817  16.734  14.097   5.013 -0.2653  0.2535 -0.0894
24009W        W39818  14.781  15.130  16.479  0.1375  0.0304  0.2622
24010W        W39819   4.687  15.867  12.159 -0.1147  0.2204 -0.1813
24011W        W39820  10.522  10.043   5.411 -0.0595 -0.3532 -0.1178
24012W        W39821  13.109  10.876   5.757  0.0457  0.2432 -0.0060
24013W        W39822   1.269   3.463  16.256  0.2490 -0.0420 -0.0372
24014W        W39823  14.071   1.443  13.346  0.0948 -0.0856 -0.2255
24015W        W39824  14.576   7.268   4.633 -0.0307  0.2640  0.0771
24016W        W39825  11.024  15.937   6.125 -0.1733 -0.0721 -0.2288
24017W        W39826   5.456   6.983  14.887 -0.0544  0.2430 -0.0758
24018W        W39827  10.624   8.629  11.687  0.1059  0.1752 -0.1102
24019W        W39828   4.174   6.237   2.613 -0.0313 -0.0079 -0.0140
24020W        W39829  14.703  15.577  16.462  0.2006  0.0308 -0.2527
24021W        W39830  14.690   2.041  16.293  0.2582  0.2076 -0.1143
24022W        W39831   1.943  11.517   6.044  0.2893 -0.0827  0.0240
24023W        W39832   6.667   1.503  16.279  0.0948 -0.0291  0.0151
24024W        W39833   7.357   1.329  12.452 -0.1919 -0.2487  0.0693
24025W        W39834   3.173   5.145  13.221  0.1995  0.2760 -0.1387
24026W        W39835   3.992   2.536   3.462  0.1454  0.1080  0.0197
24027W        W39836  13.925  11.577   3.558  0.2506 -0.0348 -0.2175
24028W        W39837  11.774   1.624   2.154  0.0387  0.3420  0.0099
24029W        W39838  15.816   3.020   6.273  0.0160 -0.2650  0.2279
24030W        W39839  14.101  13.790   4.789  0.0661  0.1193  0.2140
24031W        W39840   1.976   5.143   0.154 -0.2629 -0.2752  0.1529
24032W        W39841  12.195   9.324  12.762  0.0478 -0.2700 -0.1705
24033W        W39842  10.494  16.585  13.263  0.1519 -0.2620  0.0340
24034W        W39843  11.819  15.301  13.864  0.1397 -0.0117  0.1484
24035W        W39844   3.138   5.437  14.055 -0.2693  0.3595 -0.3266
24036W        W39845   6.819   1.730  12.447 -0.2006  0.0198  0.1009
24037W        W39846   3.038  12.589   3.260  0.3977 -0.1754  0.2301
24038W        W39847  10.044  12.233  16.172  0.0328  0.1152 -0.1838
24039W        W39848   8.752  17.264  13.471  0.2006 -0.0091 -0.0285
24040W        W39849   8.798   6.272   4.285  0.1462  0.1286 -0.0880
24041W        W39850   4.047  16.088   1.342 -0.0118 -0.0302 -0.1733
24042W        W39851  17.386   4.230  11.533 -0.1904 -0.1238  0.0525
24043W        W39852  14.388   2.150  11.202 -0.1383 -0.3359 -0.0972
24044W        W39853   2.697   9.956   1.308  0.1511 -0.0773  0.1796
24045W        W39854   6.685  13.755  13.949 -0.2778 -0.0513 -0.2254
24046W        W39855   6.507  12.946  15.606  0.0063  0.1106 -0.2558
24047W        W39856  14.872   9.523  14.170  0.2096 -0.0367 -0.1824
24048W        W39857  14.906  14.147   5.735 -0.1757 -0.1773 -0.1050
24049W        W39858   8.882   2.215   0.178  0.1069  0.1094  0.1867
24050W        W39859   3.205   0.446  15.240  0.2617 -0.0278  0.0211
24051W        W39860   2.275   3.722  15.190  0.0708 -0.1065  0.0907
24052W        W39861  12.237  16.312   2.094 -0.2478  0.1389 -0.1897
24053W        W39862  11.962  10.599   3.649  0.0033  0.2763 -0.1053
24054W        W39863   5.560  10.774   5.417  0.2214  0.0090  0.2153
24055W        W39864   1.995   2.583   3.524 -0.2237 -0.0831 -0.0094
24056W        W39865   0.991   6.960  16.098  0.0606 -0.0100 -0.2317
24057W        W39866   2.239  17.876   2.375 -0.0025  0.0802 -0.1358
24058W        W39867  16.725   0.520   1.678  0.1136 -0.2886 -0.1217
24059W        W39868  15.211   7.558  13.278 -0.2521  0.1845  0.0183
24060W        W39869  17.496   5.077   4.226 -0.0171 -0.2632  0.2015
24061W        W39870  15.127   4.949   0.082  0.0862 -0.4742  0.1843
24062W        W39871   3.686   0.919   4.811  0.0560  0.0780  0.0662
24063W        W39872  10.063  13.027  15.799  0.0789 -0.0656 -0.2124
24064W        W39873  14.841  11.820  11.604  0.2799 -0.1415 -0.3991
24065W        W39874   7.915   4.125  14.647 -0.0071  0.1995  0.0571
24066W        W39875   0.014   8.888   1.716 -0.0120 -0.0888 -0.1615
24067W        W39876   8.448   1.877  15.460 -0.0717  0.2412  0.1606
24068W        W39877   2.876  14.472  11.596  0.2417 -0.0821 -0.0735
24069W        W39878   1.877   3.428   0.058  0.0266 -0.2227  0.2375
24070W        W39879   4.988  12.614  14.295 -0.0923  0.0417 -0.1398
24071W        W39880  15.812  11.088  13.435  0.2061 -0.2171 -0.1310
24072W        W39881  11.018   7.578  13.549 -0.2124 -0.2595 -0.0133
24073W        W39882   8.193   2.931   4.725  0.1151 -0.1950 -0.0410
24074W        W39883   7.274  10.855   3.808  0.0395 -0.1375 -0.4435
24075W        W39884   2.678  10.663   2.329 -0.2570  0.3451 -0.2461
24076W        W39885  10.597   5.523   6.416  0.0054 -0.3198  0.0730
24077W        W39886  17.177   8.835   3.297  0.1090 -0.2107  0.0773
24078W        W39887  11.637  10.681  13.947  0.2339 -0.2123  0.1493
24079W        W39888  15.847   0.338   2.439  0.2218 -0.1178  0.0823
24080W        W39889   3.697   3.457  11.383 -0.1304  0.1240  0.1105
24081W        W39890   5.545  16.144   4.301 -0.1642 -0.0200 -0.0976
24082W        W39891  16.947   5.147  11.975 -0.2218 -0.0794 -0.0016
24083W        W39892  13.303   1.491  12.221  0.1151 -0.0563  0.1623
24084W        W39893   6.389   9.781  11.559 -0.0057  0.0491 -0.1814
24085W        W39894   5.611   5.118  14.281 -0.0237  0.1367  0.0154
24086W        W39895  11.776  12.058  13.937 -0.2789  0.2656 -0.1284
24087W        W39896  10.373   8.257   1.301  0.2030 -0.0178  0.0007
24088W        W39897  12.575   4.680   4.670  0.1038  0.1229 -0.0911
24089W        W39898  11.002  17.872   2.115 -0.0362  0.1435  0.1952
24090W        W39899  17.048   4.628   3.545  0.0282  0.1536 -0.1126
24091W        W39900   3.141   2.965   3.811 -0.1341  0.2499  0.1762
24092W        W39901  11.804   7.013  14.634 -0.0720 -0.3439  0.1495
24093W        W39902  17.932   4.605  14.431  0.0814  0.0777  0.2272
24094W        W39903   9.511  16.272  16.689 -0.2262  0.0823 -0.2701
24095W        W39904   2.393   6.801   9.962  0.0545  0.1336  0.0927
24096W        W39905   2.109  12.372   1.113  0.0824 -0.0894 -0.1465
24097W        W39906   4.982  12.724  14.887 -0.0327  0.1459  0.0357
24098W        W39907  15.826   6.314   0.683  0.1093  0.0844  0.0226
24099W        W39908  13.333  13.832   2.767  0.1019  0.0230  0.0579
24100W        W39909  13.930   2.637   1.695 -0.0160  0.0085  0.0522
24101W        W39910   7.496   3.255   0.088 -0.0567  0.2008  0.0019
24102W        W39911   9.489   2.304  16.114 -0.0681  0.0422 -0.2044
24103W        W39912  15.333  10.210   5.083 -0.0126 -0.4448  0.1506
24104W        W39913  17.281   6.758   2.637 -0.0636 -0.0170 -0.1614
24105W        W39914  16.956   8.897   0.271 -0.3162 -0.1403  0.2292
24106W        W39915   1.284   3.458  15.735 -0.0053  0.0041  0.1046
24107W        W39916   1.227   1.695  12.999 -0.0015  0.1365 -0.2212
24108W        W39917   0.211  10.085   4.223 -0.1607 -0.1693 -0.0330
24109W        W39918   3.889  14.527  13.507 -0.2680 -0.3878 -0.0629
24110W        W39919  17.149  16.622   0.527  0.0892  0.3161  0.3161
24111W        W39920   3.141   5.482  15.177 -0.0598  0.0850 -0.3754
24112W        W39921  17.775  15.027  11.549 -0.1318 -0.1738  0.1176
24113W        W39922  12.051   2.432   2.699 -0.2197  0.0717 -0.1041
24114W        W39923  15.602  10.754  13.798  0.0151 -0.3020  0.1487
24115W        W39924   7.341  13.677  11.977  0.1963 -0.1764  0.0638
24116W        W39925  16.202   2.894  11.526  0.1868  0.0317  0.1137
24117W        W39926   6.250   2.129   1.504  0.1883 -0.2029  0.1792
24118W        W39927   8.898   2.343  13.293 -0.0261 -0.2303 -0.3489
24119W        W39928  14.618  11.321  15.370  0.3132 -0.1123 -0.0703
24120W        W39929   6.334   8.585  14.389 -0.0888 -0.0948 -0.2853
24121W        W39930  12.394  10.652  16.504  0.0647  0.0615 -0.2777
24122W        W39931   4.638  15.057  10.383  0.0034  0.0550  0.1663
24123W        W39932   9.399   2.918  11.624  0.0198  0.2440  0.2955
24124W        W39933  15.102   9.943  14.722 -0.0875 -0.1171 -0.0818
24125W        W39934   2.016  12.693  10.766  0.2062 -0.1234  0.0233
24126W        W39935   1.864  13.920  13.527  0.2458  0.0064  0.0472
24127W        W39936  16.115  10.936   0.621 -0.1590  0.3050 -0.2727
24128W        W39937  10.026   9.695   3.204  0.1626 -0.2715 -0.2866
24129W        W39938   5.018   8.860  16.300  0.2337  0.1653  0.2584
24130W        W39939   2.513   3.679   3.234  0.2338 -0.2151  0.1029
24131W        W39940  16.354   7.139   3.423 -0.0326 -0.0741  0.4152
24132W        W39941  17.472  15.408  14.017 -0.2240 -0.0570 -0.1639
24133W        W39942  13.838  17.943  11.901 -0.2809  0.0873  0.0174
24134W        W39943  11.186   3.321  16.168  0.2835  0.0602  0.0817
24135W        W39944  16.334  16.229  14.196 -0.1235  0.0520 -0.1929
24136W        W39945   6.281  12.960   3.241  0.1131 -0.1590 -0.1286
24137W        W39946  11.159  12.404   1.700  0.0344 -0.1145  0.0175
24138W        W39947   7.319  11.017  11.477 -0.5573  0.0152  0.3761
24139W        W39948  17.666   3.349  15.595 -0.2242 -0.2494 -0.0546
24140W        W39949  10.944  14.185  13.022  0.1268  0.1429  0.2231
24141W        W39950  16.600   6.485  16.366  0.0125 -0.0398  0.0720
24142W        W39951   1.083   6.816   2.019  0.1072 -0.1175 -0.0830
24143W        W39952   2.923  15.565  12.679 -0.3984 -0.1090 -0.2840
24144W        W39953   5.357   6.980  12.321 -0.1156  0.2511 -0.0858
24145W        W39954   4.893   4.433   3.366 -0.2276  0.2233  0.1387
24146W        W39955  12.470  11.533  13.934  0.0177 -0.1305  0.0630
24147W        W39956   6.468   8.396  13.580  0.0517 -0.0118  0.1035
24148W        W39957   6.437   4.404  12.073 -0.0503  0.2080 -0.0800
24149W        W39958   5.203   5.984   3.361 -0.0678 -0.0189  0.0226
24150W        W39959   2.770  13.539  11.760 -0.2628 -0.0411 -0.1391
24151W        W39960   1.829  12.443  13.267 -0.1118 -0.1207  0.1470
24152W        W39961  17.412  12.156   3.386  0.3996  0.1240 -0.2122
24153W        W39962   3.515  14.627  12.115  0.1874 -0.0853  0.0667
24154W        W39963  10.829   3.784   6.598  0.1761 -0.1577  0.2317
24155W        W39964   8.853   4.236   3.632 -0.1537  0.0992 -0.2649
24156W        W39965  13.416   7.225   3.790  0.3367 -0.1269  0.3086
24157W        W39966  16.560   5.142   5.162 -0.1493  0.0671 -0.1835
24158W        W39967  13.054   7.598  13.642  0.3097 -0.2003  0.0608
24159W        W39968   8.409  13.854   3.245  0.1138 -0.3083  0.0590
24160W        W39969  15.309   6.430   4.361  0.1555 -0.2861 -0.4610
24161W        W39970  12.804  15.504   0.970  0.2335 -0.1302 -0.0942
24162W        W39971  14.150   6.449  15.396 -0.1492  0.0386  0.0948
24163W        W39972   8.737  13.312  15.488 -0.3586 -0.1037  0.1019
24164W        W39973  12.081  14.330   2.954  0.1094  0.0539 -0.1952
24165W        W39974  17.102  13.323  13.595  0.0815 -0.0455  0.1407
24166W        W39975   1.378   7.711   1.845  0.1365 -0.3703 -0.1013
24167W        W39976  16.463  15.007  16.303  0.2814  0.3248 -0.0170
24168W        W39977  16.644   3.817  14.971 -0.1160 -0.1469 -0.1754
24169W        W39978   7.873   7.157  12.918 -0.0177  0.2328  0.1644
24170W        W39979  14.882  11.004   0.309 -0.4125 -0.2190 -0.1732
24171W        W39980   3.385  15.186  14.105  0.2183  0.0710 -0.0908
24172W        W39981  11.923  15.879  11.839 -0.3147 -0.0855  0.0375
24173W        W39982   7.568   6.992  12.427 -0.2137  0.1485 -0.2435
24174W        W39983  11.067   8.575   3.114  0.2423  0.0885  0.1752
24175W        W39984   4.889   7.753   4.336 -0.1073 -0.1130 -0.2050
24176W        W39985   5.403  10.496   1.910  0.1268  0.2543 -0.1306
24177W        W39986   1.025   8.853  13.590  0.1024  0.1192 -0.1356
24178W        W39987   0.701   4.673  11.552 -0.1972 -0.0810 -0.2437
24179W        W39988  16.032  16.723  13.317  0.1563  0.0383 -0.3119
24180W        W39989  14.117  10.630   2.714 -0.2389 -0.0633  0.1892
24181W        W39990  14.931  14.727  14.617 -0.0800 -0.1761  0.0219
24182W        W39991  10.759   6.155  12.961 -0.0515  0.3720 -0.2403
24183W        W39992  10.571   0.814  13.701  0.1056 -0.1945 -0.1159
24184W        W39993   3.848   9.363  11.443 -0.3763 -0.2183  0.1879
24185W        W39994   0.813  17.668  13.198 -0.4939  0.2371  0.1668
24186W        W39995   6.304   0.189   1.221  0.1759 -0.0310  0.1309
24187W        W39996  13.964   9.397   2.692  0.0051  0.0126 -0.0722
24188W        W39997   9.474   2.185   3.208 -0.3212 -0.1613 -0.2359
24189W        W39998  10.908   6.628   5.025 -0.1017 -0.0308  0.0671
24190W        W39999  17.046   8.512  14.240  0.2993 -0.1713 -0.0410
24191W        W40000  10.664   7.349  12.753 -0.2384 -0.0238 -0.1777
24192W        W40001   5.638  11.788  12.636 -0.1478  0.0559  0.2286
24193W        W40002   7.815  16.180   2.660 -0.0628 -0.1932  0.2819
24194W        W40003  13.662  11.425   2.684 -0.0885  0.3515  0.0173
24195W        W40004  12.253  17.285  16.658 -0.0772  0.2614 -0.0865
24196W        W40005   5.746   7.528   3.914 -0.1403  0.2607  0.0658
24197W        W40006   5.330   1.304   0.564 -0.2174 -0.1426 -0.0338
24198W        W40007   9.081  12.979  15.246  0.0948 -0.3318  0.0811
24199W        W40008   4.615   0.357  11.752 -0.0797 -0.2244  0.0196
24200W        W40009  14.054  16.696   3.709 -0.1443  0.0902 -0.1875
24201W        W40010   5.704   7.280   5.192  0.1275  0.2243  0.1151
24202W        W40011   1.991   2.146  13.307  0.2275  0.1835 -0.1746
24203W        W40012   8.604   7.530  14.627 -0.0146 -0.1438 -0.1730
24204W        W40013  13.556  12.370   3.178  0.0481  0.0148 -0.0025
24205W        W40014  14.150   8.625  14.935 -0.1756 -0.3056  0.0394
24206W        W40015  11.108   4.740  12.862  0.3754 -0.0290 -0.0158
24207W        W40016   0.956   6.191   4.547  0.1608  0.1230  0.0958
24208W        W40017  12.619  12.364   3.484 -0.2213  0.1475 -0.0328
24209W        W40018   6.540   3.270   2.791  0.1214  0.2336  0.3691
24210W        W40019  14.535   8.894   2.619 -0.3181  0.0400  0.1242
24211W        W40020   8.238   5.638  12.069  0.1741 -0.0225 -0.0947
24212W        W40021  11.729   9.978   4.383 -0.3169 -0.1779 -0.0006
24213W        W40022   5.777  13.181  12.376 -0.3229 -0.0608 -0.0846
24214W        W40023   3.683   3.506   2.057 -0.0413  0.1904  0.3335
24215W        W40024   0.655   0.035  11.863  0.0788  0.0561 -0.1411
24216W        W40025  17.928   9.372  13.678  0.1895 -0.3687  0.0539
24217W        W40026   3.302  16.188  11.473  0.0939 -0.3051 -0.2416
24218W        W40027  14.593  16.362  11.756 -0.0781  0.1487  0.2240
24219W        W40028  17.038  11.368   0.643  0.1070  0.3067  0.1672
24220W        W40029  14.002   8.887   6.036  0.2247 -0.1679 -0.0867
24221W        W40030  12.538  17.217   5.275 -0.0383 -0.1817  0.2266
24222W        W40031   8.899   3.362  13.120 -0.1875 -0.0727 -0.4217
24223W        W40032   4.192   7.923  16.223 -0.1273 -0.1187  0.1484
24224W        W40033   5.452   2.709   5.552  0.1859  0.3104  0.2920
24225W        W40034  15.604   1.388  16.525 -0.1631  0.0913  0.0233
24226W        W40035   2.485  15.137   5.197 -0.5830  0.0165 -0.0977
24227W        W40036  11.518   2.657  16.609 -0.0829  0.1859  0.0479
24228W        W40037   9.863  10.675   1.701  0.1055 -0.3469  0.0803
24229W        W40038  10.371  16.914   1.354  0.1728 -0.0350  0.2707
24230W        W40039  10.919  12.442  11.275  0.2307  0.1044 -0.1385
24231W        W40040  17.663   7.384  11.483  0.1065 -0.1038  0.0524
24232W        W40041  11.253  11.397  14.144 -0.0307 -0.3369  0.1223
24233W        W40042  17.115   7.024   0.411  0.0251  0.0735  0.0570
24234W        W40043   1.886  10.269  12.315  0.0209 -0.0581 -0.0772
24235W        W40044  11.933   8.900  12.836  0.0317 -0.1342  0.0264
24236W        W40045   5.074  16.158   2.119  0.0297  0.2678 -0.2375
24237W        W40046   3.321  15.690   3.346  0.0828 -0.0754  0.0147
24238W        W40047  15.460  13.790   0.875 -0.1493 -0.0708 -0.0226
24239W        W40048  14.948   9.200  12.405  0.1221 -0.3265 -0.1264
24240W        W40049   7.770  17.157   0.488  0.1065  0.1970  0.0771
24241W        W40050  12.888  10.509   4.804 -0.0080  0.1807  0.0137
24242W        W40051   8.490   5.430   5.169 -0.2299  0.1460 -0.2571
24243W        W40052   6.627   3.388  11.941 -0.0038 -0.0892 -0.2400
24244W        W40053  13.600  10.453  16.629  0.3224 -0.0185  0.0108
24245W        W40054   3.561   7.106   2.320 -0.0084  0.1491  0.0784
24246W        W40055   7.498   5.915  12.533  0.1541  0.0064 -0.1291
24247W        W40056  13.910  12.092   5.370 -0.0541  0.1416 -0.1997
24248W        W40057  11.294   6.155  15.777  0.1285 -0.1684  0.2571
24249W        W40058   9.725  10.664   0.579  0.3091 -0.0930  0.2360
24250W        W40059  15.895  15.565   3.974  0.3899 -0.1973 -0.0817
24251W        W40060   1.683  13.821  16.138  0.1832  0.1822  0.0079
24252W        W40061  10.597  14.569  13.391  0.1302  0.0545 -0.0797
24253W        W40062   7.460  14.175  11.815 -0.4717  0.0734  0.1932
24254W        W40063  10.314  17.589   2.776  0.0852 -0.1966  0.0014
24255W        W40064  16.883  17.423   0.488 -0.0178 -0.0618 -0.1537
24256W        W40065   7.575  12.540   5.475  0.1094  0.0687  0.1165
24257W        W40066  13.330  13.078  13.142 -0.0007  0.0679 -0.0716
24258W        W40067   8.895   9.197  14.879  0.2390  0.1315  0.1036
24259W        W40068  12.860  17.235   6.344  0.2841  0.0071  0.1839
24260W        W40069  12.778  10.264  16.573 -0.0024 -0.1688 -0.0500
24261W        W40070   2.901   8.871   4.095  0.1156 -0.2242 -0.3194
24262W        W40071   2.983   2.380  16.073  0.3054 -0.1296 -0.1983
24263W        W40072  17.664   0.403   0.696 -0.2410 -0.0615 -0.3735
24264W        W40073   1.585   2.155  11.312  0.0113  0.2277 -0.0811
24265W        W40074  14.018  14.263  14.429  0.3665 -0.1928 -0.0277
24266W        W40075  15.134   4.710  13.912 -0.1391 -0.1883  0.0553
24267W        W40076  12.375   4.428   1.909 -0.0899  0.0606 -0.0260
24268W        W40077   7.339  14.441   6.490  0.3181 -0.1579 -0.5068
24269W        W40078  16.163   0.818   5.669 -0.0433 -0.3219 -0.2807
24270W        W40079  11.492   4.454   5.945  0.0894 -0.1790  0.0197
24271W        W40080   7.896   4.923   5.681  0.1337  0.1411  0.4045
24272W        W40081   8.724   0.265   3.293  0.0442 -0.2812  0.0157
24273W        W40082   1.946   1.941  15.976 -0.3049 -0.1274 -0.1721
24274W        W40083  11.023  14.812   1.359  0.0364  0.0038 -0.1827
24275W        W40084   4.547   7.892  13.188  0.0326 -0.0732 -0.0964
24276W        W40085   3.465  17.839   4.729 -0.2913 -0.0850 -0.1627
24277W        W40086   6.111  15.133  16.686 -0.2907  0.2476  0.0077
24278W        W40087  16.524   1.293  14.479 -0.1148 -0.3383  0.2032
24279W        W40088  17.225  17.796   3.742  0.2299 -0.3726  0.1688
24280W        W40089   2.422   6.535  16.514 -0.0493 -0.0632  0.0169
24281W        W40090  16.237  13.252   2.460 -0.2043 -0.2369  0.0831
24282W        W40091   6.958   7.590  13.793  0.0430  0.2212 -0.3315
24283W        W40092  17.405   3.371  13.853  0.1257 -0.0606  0.1120
24284W        W40093   0.682   0.853   1.321  0.1947  0.0762 -0.1584
24285W        W40094   0.599  11.615  14.562 -0.2907 -0.0882  0.3710
24286W        W40095   2.194  11.564  11.504 -0.2496  0.1224  0.2285
24287W        W40096  11.074   1.685  14.727 -0.3664  0.1575 -0.0618
24288W        W40097   4.441   2.558   2.169 -0.1431 -0.0730  0.1783
24289W        W40098  10.034   8.472  13.387 -0.0447 -0.0083 -0.3436
24290W        W40099   0.170   0.264   2.075 -0.0547  0.2121 -0.0729
24291W        W40100  11.965  12.625  15.120  0.0326 -0.2472  0.1127
24292W        W40101  12.332  14.255   4.866 -0.2409  0.0338 -0.4317
24293W        W40102   1.676   7.186   0.923 -0.0295 -0.2255 -0.3211
24294W        W40103  12.391  10.761  13.270 -0.2639  0.0619 -0.2086
24295W        W40104   8.305   0.665   0.903  0.1945  0.1929  0.0754
24296W        W40105   2.822   1.870  13.958 -0.3163  0.0973  0.0321
24297W        W40106   4.276   3.037   4.855  0.3038  0.1402  0.0800
24298W        W40107  16.796   8.413   2.814  0.2413 -0.1065 -0.1078
24299W        W40108  13.797  13.843   6.385 -0.2386 -0.0029  0.3766
24300W        W40109   1.018  10.821  13.175  0.2993  0.0933 -0.1411
24301W        W40110  13.484   6.485  14.400 -0.2283 -0.0368  0.0196
24302W        W40111  10.094   9.080  15.298  0.0041  0.5798  0.1218
24303W        W40112   8.085   1.957  13.732 -0.1320  0.1253  0.0647
24304W        W40113   2.546   7.478  16.587  0.0335 -0.0120 -0.0863
24305W        W40114  13.712  16.830   2.447  0.0390 -0.0844 -0.0445
24306W        W40115   0.175   0.737  11.851  0.0440  0.2136  0.0892
24307W        W40116  14.623   6.462   3.836 -0.2219  0.0303 -0.0179
24308W        W40117  16.458  13.101   4.051  0.0108 -0.2071  0.1286
24309W        W40118   7.199   7.995  13.493 -0.0165  0.1027  0.3828
24310W        W40119  16.840   4.955   1.364  0.0629  0.0533 -0.1112
24311W        W40120  14.877  14.955  12.404  0.0924  0.2691 -0.2386
24312W        W40121   4.532   0.411  16.207 -0.1369  0.3212 -0.1726
24313W        W40122   9.309   0.057   4.573  0.1267 -0.0972 -0.0269
24314W        W40123  13.090  15.882  15.133 -0.1641 -0.1054  0.0477
24315W        W40124   7.600  11.008  11.905  0.2151  0.0451  0.0706
24316W        W40125   7.531   4.559  16.212 -0.0064 -0.1250 -0.2193
24317W        W40126  17.691  17.296   2.002  0.0307 -0.1211 -0.0077
24318W        W40127  14.173  12.529  15.212 -0.0996 -0.1212  0.1074
24319W        W40128   6.972  13.113   1.674  0.1287 -0.2499  0.1650
24320W        W40129  17.557  15.434   2.161  0.3728 -0.0463  0.0292
24321W        W40130  15.678  11.055  15.245 -0.0776  0.0544  0.2037
24322W        W40131   7.133  17.627   2.216 -0.1924 -0.1359 -0.1381
24323W        W40132   1.096  17.176   2.036  0.3199  0.2307 -0.1944
24324W        W40133   5.075  15.528   5.038 -0.0132 -0.0196  0.0499
24325W        W40134   6.514  17.632   1.445 -0.0223  0.0677 -0.1893
24326W        W40135  13.228  15.081   3.415  0.0942 -0.3495 -0.1560
24327W        W40136  14.794   8.182   5.383 -0.2306  0.0647 -0.2007
24328W        W40137   8.851   8.814   1.742 -0.2451 -0.0929  0.3042
24329W        W40138  14.527  15.299   0.191 -0.1437  0.0374  0.1106
24330W        W40139   1.790  16.732  14.891  0.0568 -0.0593  0.1373
24331W        W40140   4.005   8.238  14.496 -0.0040  0.0201  0.1597
24332W        W40141   5.120  10.887  12.454 -0.1509  0.0047  0.1032
24333W        W40142   1.469   1.664  14.705 -0.1741  0.3542 -0.2705
24334W        W40143  15.944   5.103   2.569  0.1004  0.0427  0.0364
24335W        W40144   1.827  14.926  12.684 -0.3043  0.2067 -0.2629
24336W        W40145  12.862  10.999  14.851  0.2038  0.1687 -0.2149
24337W        W40146   6.965  11.431   4.578 -0.1453 -0.0594 -0.0599
24338W        W40147  14.737  10.336   4.365  0.2481 -0.2957  0.0075
24339W        W40148   8.247   8.115  13.940 -0.1782 -0.0561 -0.1882
24340W        W40149  10.254  11.229  15.511 -0.0877  0.1606 -0.0451
24341W        W40150   1.705  15.060  12.228 -0.0463 -0.4598  0.1517
24342W        W40151  14.156  13.284  16.627  0.1344  0.1890  0.0231
24343W        W40152   0.164  11.851  12.462 -0.0622 -0.1681 -0.1541
24344W        W40153  13.982   1.519   1.638 -0.1542  0.0564 -0.0020
24345W        W40154   7.389   4.328   2.852  0.0977  0.2760  0.3838
24346W        W40155  12.225  14.798  13.283 -0.1462 -0.0361 -0.1673
24347W        W40156  14.141  13.943  11.444  0.0781  0.1666 -0.0980
24348W        W40157  17.674  15.505   2.715  0.2184 -0.3223 -0.3178
24349W        W40158  14.377   1.301  11.573  0.0177 -0.2786  0.1719
24350W        W40159   0.941   2.224   1.839 -0.3225  0.1568  0.2113
24351W        W40160   2.278  17.021  16.004 -0.0583  0.2640 -0.0028
24352W        W40161   5.068   9.053  12.530 -0.0259  0.2592 -0.0031
24353W        W40162   6.997  14.439  15.971 -0.0246 -0.2196  0.3867
24354W        W40163   5.316  17.387   4.411  0.0963  0.0663  0.2235
24355W        W40164  12.775   2.421  11.967  0.1073 -0.0634  0.0715
24356W        W40165  12.258   2.886   0.519  0.0436 -0.1754  0.2666
24357W        W40166   9.611   4.096  12.888 -0.0999 -0.0199  0.0296
24358W        W40167   5.250   0.384   3.378  0.0268 -0.1690 -0.1714
24359W        W40168  12.992   5.127  15.257  0.1744  0.4406  0.1252
24360W        W40169   9.006   8.775  12.007  0.0366  0.1546  0.0025
24361W        W40170  15.086  12.036   1.675  0.1480 -0.1416 -0.0780
24362W        W40171   9.002   7.042  12.075 -0.0710  0.1064  0.1972
24363W        W40172   4.861   7.082   3.834 -0.1291  0.3026  0.1568
24364W        W40173   8.524   1.109   3.072 -0.1430  0.0397 -0.0661
24365W        W40174   1.124  11.601   0.161  0.0801  0.0896 -0.1472
24366W        W40175  13.331   5.723  13.595  0.1045  0.0446 -0.1625
24367W        W40176  17.836   3.709   0.994  0.3154  0.3226  0.0485
24368W        W40177  13.394   1.463  15.620  0.3711 -0.1011  0.0218
24369W        W40178   8.128   9.991  15.270  0.0916  0.0645 -0.1249
24370W        W40179   6.799  14.699   0.541 -0.0086 -0.6298 -0.1354
24371W        W40180  11.903   1.108   1.385 -0.0101  0.1328  0.0850
24372W        W40181   1.197  13.815  14.882  0.0841  0.3838 -0.1485
24373W        W40182   1.245   5.590  13.090 -0.2138 -0.2396 -0.1956
24374W        W40183  10.262   4.166   4.680 -0.3815  0.1821  0.3573
24375W        W40184  11.036   1.117   3.221 -0.2824 -0.2401 -0.3539
24376W        W40185   1.170   0.231   3.284 -0.2361 -0.0592  0.1484
24377W        W40186  10.937  13.900  12.120  0.0827 -0.0418  0.0564
24378W        W40187  17.426  16.286   0.272 -0.0851  0.1104 -0.1514
24379W        W40188  15.151   0.720   5.208 -0.1166 -0.0058  0.2734
24380W        W40189  14.566   8.664   5.353  0.0316  0.2031 -0.0337
24381W        W40190   4.125  10.810  15.275  0.1800  0.1036 -0.0535
24382W        W40191   0.492   9.930  14.407 -0.1571 -0.1926 -0.2095
24383W        W40192   1.861   8.377   1.079  0.1173 -0.0571  0.2391
24384W        W40193   8.414  11.356   3.168 -0.1108  0.3176 -0.0012
24385W        W40194   7.886  12.509   0.899 -0.0722 -0.3308 -0.0149
24386W        W40195  14.020   5.142  16.677  0.0411 -0.1725  0.0345
24387W        W40196  17.363  15.003  13.669 -0.0268 -0.1400 -0.0925
24388W        W40197   8.642   4.844  13.802  0.0923  0.0721  0.1126
24389W        W40198   9.154   7.403   4.495  0.1128  0.0869  0.2274
24390W        W40199   8.281  16.624  15.311  0.0367  0.0972 -0.4576
24391W        W40200   1.176  12.886   5.413 -0.0081  0.0272  0.0041
24392W        W40201  10.530   4.023  12.418  0.1226 -0.2451 -0.1777
24393W        W40202   9.232   6.273   4.705  0.0681 -0.0264  0.0163
24394W        W40203  13.224   5.108  11.256 -0.0965 -0.1159  0.1553
24395W        W40204  12.132   5.276  13.412  0.0697  0.0218 -0.0819
24396W        W40205   5.391   9.957  10.729 -0.1300 -0.0813  0.0206
24397W        W40206   5.939  10.293   0.557  0.2257  0.0586 -0.4124
24398W        W40207  12.454  11.421   2.031 -0.0049  0.0835  0.2094
24399W        W40208  11.984   4.886   6.415  0.2433  0.1087  0.1089
24400W        W40209  10.737   9.580  14.651 -0.1839  0.0236 -0.2002
24401W        W40210  14.016   9.953   6.128 -0.0891  0.1463  0.2492
24402W        W40211  15.161   2.795   2.922  0.0880  0.3206  0.1433
24403W        W40212  10.412  16.039  16.556  0.1338  0.1782 -0.2825
24404W        W40213   5.885   2.667  16.366  0.0317 -0.0909 -0.0595
24405W        W40214  10.936   2.584   2.149  0.0842  0.0695 -0.0154
24406W        W40215  15.722  16.688  15.098  0.2266 -0.0226  0.3440
24407W        W40216   3.928  10.029  14.856  0.0604  0.1196  0.0600
24408W        W40217   6.613  11.990  12.692 -0.2931 -0.1568 -0.1546
24409W        W40218   2.059  10.697  11.031  0.0611  0.0743 -0.0250
24410W        W40219   1.960   5.632   0.237 -0.0991  0.2240 -0.0993
24411W        W40220   4.211   8.457  16.150  0.1483 -0.0625  0.3017
24412W        W40221  17.700   4.192  16.595 -0.2232 -0.1533  0.0282
24413W        W40222  16.774   3.742   3.438 -0.3026 -0.4864 -0.2956
24414W        W40223   3.480   1.529   4.060  0.0217 -0.2798 -0.2515
24415W        W40224   8.028  15.629   3.913  0.3468  0.0212 -0.1541
24416W        W40225  12.612  10.110  14.944 -0.0832 -0.3151 -0.3822
24417W        W40226  10.640   3.727   5.730 -0.0161  0.0773  0.2933
24418W        W40227  13.142  17.036  15.900  0.0275  0.1400  0.1315
24419W        W40228   1.802  13.775   0.922 -0.0732  0.0827 -0.1706
24420W        W40229   7.817   0.747   0.997  0.1509 -0.0759  0.0365
24421W        W40230   8.583   1.148  13.186  0.3437 -0.0247 -0.0518
24422W        W40231   5.797   4.721  12.735 -0.2907  0.1891  0.0830
24423W        W40232   3.890   9.339   3.692  0.0813 -0.0259  0.1176
24424W        W40233  11.182   0.715   5.485 -0.0777 -0.3011  0.2154
24425W        W40234   5.928   1.163   1.190  0.3402 -0.0158 -0.0619
24426W        W40235   3.015   4.437   3.769 -0.0529  0.3024  0.0016
24427W        W40236  11.869   3.779  15.123  0.0954 -0.2605  0.1140
24428W        W40237  15.411   9.430  15.473  0.1310  0.0593  0.5647
24429W        W40238   2.261   3.566   1.554 -0.1126 -0.1169 -0.0759
24430W        W40239  13.499  16.251   4.935  0.1254 -0.2529  0.1562
24431W        W40240  15.451  17.486  15.276  0.1895  0.0195  0.2542
24432W        W40241  13.576   3.906  15.876 -0.0129 -0.0383 -0.3204
24433W        W40242   4.213   2.769  10.807  0.0542 -0.0524 -0.1711
24434W        W40243   1.621   9.299   5.349  0.2725  0.2696  0.2651
24435W        W40244   8.549  13.905   5.438  0.0636 -0.1851  0.1365
24436W        W40245  12.148   7.877  14.123  0.0677 -0.3041  0.0293
24437W        W40246   3.601   6.983   3.321 -0.0266 -0.1778 -0.0712
24438W        W40247  11.134   4.939   2.366 -0.2875  0.1459 -0.0337
24439W        W40248  14.616   9.070   1.675  0.1469 -0.0993  0.2713
24440W        W40249  11.285   1.181   6.525 -0.1135 -0.0710  0.2438
24441W        W40250  13.764  10.349   3.522  0.1588  0.0493  0.0765
24442W        W40251   7.819  15.482   2.585 -0.0142 -0.1259  0.1868
24443W        W40252  12.604  16.061  12.370 -0.0926  0.1474  0.1733
24444W        W40253  15.089  10.435  15.607 -0.0425 -0.1242  0.2157
24445W        W40254  12.700  16.577  12.478 -0.1687  0.3234  0.1226
24446W        W40255  13.576   0.033   5.139  0.0250 -0.0576 -0.0570
24447W        W40256   1.345   4.934  12.257 -0.1095  0.2597  0.1432
24448W        W40257   4.742   3.754  16.300 -0.0841  0.0893 -0.1853
24449W        W40258  14.048   6.213   3.685  0.1569 -0.1043 -0.3154
24450W        W40259  15.379  17.227   5.391  0.1053 -0.2692  0.0403
24451W        W40260  16.878  13.792   3.645  0.1563 -0.2693  0.0742
24452W        W40261  16.244   1.346  13.212 -0.2208 -0.2612 -0.0990
24453W        W40262   2.521   5.860   1.145 -0.1253  0.4821 -0.0301
24454W        W40263   1.977  14.153  12.785  0.1250 -0.1629 -0.1613
24455W        W40264  14.492  10.214   5.513 -0.2721  0.0969  0.3445
24456W        W40265   3.260  16.731  12.527  0.0556 -0.2286  0.1777
24457W        W40266  12.450   8.820   4.607 -0.0846  0.2887  0.1231
24458W        W40267   3.033   6.144   2.480 -0.2639  0.2556  0.0769
24459W        W40268   2.102   9.032   3.912 -0.1758  0.1549 -0.1208
24460W        W40269   6.510   8.014  12.144  0.1739  0.1478  0.1018
24461W        W40270   3.143   9.186  10.663 -0.1343  0.2362  0.0248
24462W        W40271  12.049  10.777  13.717  0.0115  0.0103  0.1096
24463W        W40272  15.050  15.062   4.093  0.0414  0.0847  0.1882
24464W        W40273  17.755  11.164  11.909 -0.0981  0.1958  0.1793
24465W        W40274   5.418  11.580   3.568 -0.5912 -0.0453 -0.0882
24466W        W40275   8.791   7.741   6.087 -0.3590  0.0174 -0.0563
24467W        W40276   5.381  16.918  14.373  0.0775  0.2351  0.0632
24468W        W40277   3.340  14.797  14.512 -0.0757  0.0420  0.0233
24469W        W40278   0.945   9.702  14.668 -0.0526  0.0471  0.3496
24470W        W40279   5.344   7.009   4.665 -0.2304 -0.0655  0.3081
24471W        W40280  11.491  12.987  11.854  0.1015  0.1764 -0.0480
24472W        W40281   2.554   3.668  15.587  0.2283 -0.3600  0.1454
24473W        W40282   4.817   1.358   1.977  0.4325 -0.3508 -0.2290
24474W        W40283   1.719   3.340  12.961  0.1497 -0.1154 -0.0932
24475W        W40284   0.182   5.289   0.275 -0.1212  0.1015 -0.3188
24476W        W40285   8.452   5.250   3.476 -0.0367  0.3124  0.0989
24477W        W40286   3.988   7.166  13.277  0.2275  0.2234  0.0344
24478W        W40287   7.657  11.098  15.064 -0.1955  0.1845  0.1459
24479W        W40288   6.527  10.355  11.322 -0.0297  0.0755  0.0838
24480W        W40289  11.403  16.120  16.177 -0.0831 -0.1030  0.2223
24481W        W40290  12.117   1.733   3.738  0.3451 -0.0509 -0.0481
24482W        W40291   7.352   1.571   2.904 -0.0411 -0.0012  0.0847
24483W        W40292  13.550   7.544  12.182  0.0732 -0.2038  0.1276
24484W        W40293  12.278   0.117  14.397  0.0560 -0.2100  0.1729
24485W        W40294   2.092   9.835  15.488  0.0183 -0.1125  0.0175
24486W        W40295  16.876   2.937  15.295  0.0533 -0.0118 -0.2443
24487W        W40296   0.555   8.559   0.792  0.0055  0.1489 -0.0324
24488W        W40297   7.543  12.637   3.527  0.1765  0.0989 -0.0270
24489W        W40298   3.058   6.465  14.694  0.2413 -0.1103 -0.0882
24490W        W40299  12.743  13.842  15.020  0.0781 -0.2405 -0.1607
24491W        W40300   0.521   3.475  13.208  0.1291 -0.1899  0.0264
24492W        W40301   2.459   0.694   0.674 -0.1446  0.2759  0.2925
24493W        W40302   7.770   0.329  12.851  0.0022  0.2485  0.1940
24494W        W40303   8.114  12.599  12.188 -0.1058  0.1048 -0.2286
24495W        W40304  12.747   9.470  12.370  0.2267 -0.1417 -0.0373
24496W        W40305  11.121   5.552   4.289  0.0574 -0.0614  0.3085
24497W        W40306  11.357   4.546  16.463  0.2170 -0.2102 -0.1649
24498W        W40307   7.352   7.294  11.612  0.2648  0.0751 -0.0760
24499W        W40308   4.253  12.883  16.680 -0.0809  0.2323  0.1154
24500W        W40309  10.809  16.416  16.539 -0.1673 -0.3325 -0.0994
24501W        W40310   9.314  13.889   1.275  0.0475  0.1632 -0.0341
24502W        W40311   5.155  15.346  13.203 -0.0018 -0.1999  0.0229
24503W        W40312   7.231  15.769   3.376  0.1341  0.1517 -0.2508
24504W        W40313   6.378  16.903  12.060  0.2427  0.2133 -0.1820
24505W        W40314  15.503  12.456  15.665 -0.2532 -0.1278  0.1863
24506W        W40315   5.781   6.495  12.474  0.1190 -0.1174 -0.0618
24507W        W40316  15.313  15.307   3.216  0.1528 -0.2053  0.1860
24508W        W40317   8.823   0.856  13.529  0.0359 -0.0786  0.3426
24509W        W40318   2.117  16.616   0.692 -0.5569  0.1177  0.2084
24510W        W40319  11.546   7.157   1.981  0.0993  0.0336 -0.1328
24511W        W40320   8.230   9.095  15.443 -0.0769 -0.2963  0.0453
24512W        W40321  15.959   1.782  15.688 -0.1426 -0.0785  0.4039
24513W        W40322  12.100   3.033  14.197 -0.0646 -0.1458  0.0176
24514W        W40323  11.491   5.367   2.463 -0.0772  0.3567  0.1061
24515W        W40324  13.078  17.314   0.489 -0.0889  0.2958  0.0733
24516W        W40325   7.735  17.646  13.507  0.1832 -0.0231 -0.0842
24517W        W40326   7.991   8.966   3.784 -0.1815  0.0166 -0.0237
24518W        W40327   1.370  16.912  13.021  0.1257 -0.2344  0.0205
24519W        W40328   6.193   6.401  13.952  0.0542 -0.2762 -0.0660
24520W        W40329  11.702   7.533  12.980 -0.2224  0.1150  0.1801
24521W        W40330  16.446  11.692   2.020 -0.1170  0.1347  0.0915
24522W        W40331   1.559  15.984  16.388 -0.1829 -0.0104  0.2843
24523W        W40332   7.915   3.753  12.146  0.0839 -0.0808  0.0373
24524W        W40333  14.519   7.123  11.883  0.2432 -0.2633 -0.0043
24525W        W40334  16.632   8.299  13.022 -0.1371  0.0164  0.0226
24526W        W40335  16.433  11.806  13.342  0.0978  0.1838  0.1436
24527W        W40336  13.170   2.444  14.888 -0.2432 -0.1261 -0.1853
24528W        W40337   4.063  15.925  11.896  0.0076 -0.0440  0.0542
24529W        W40338  14.774  16.005   3.831 -0.2341  0.1844  0.0312
24530W        W40339  17.533   7.593  14.238  0.2015  0.1718  0.1680
24531W        W40340   9.397  17.256  14.338  0.2622  0.2301 -0.1386
24532W        W40341   9.844   8.765  16.639 -0.0259  0.0062 -0.0434
24533W        W40342  13.204  11.596  15.083  0.0302 -0.0175  0.0400
24534W        W40343  11.380   3.385   1.338 -0.3082  0.1597  0.1661
24535W        W40344   7.665   1.998  15.051 -0.0629 -0.0283  0.0454
24536W        W40345   1.431  16.130   4.263  0.0175  0.1349 -0.2722
24537W        W40346   3.184   7.470   3.135 -0.0734  0.1119  0.3163
24538W        W40347  15.412  17.783   0.965  0.0945 -0.0028 -0.1416
24539W        W40348   9.126  12.924  15.895 -0.0489 -0.1661 -0.0685
24540W        W40349   7.439   0.438   2.254  0.0118 -0.0240 -0.1850
24541W        W40350  11.369  10.279   4.380  0.1946 -0.1139 -0.1234
24542W        W40351   6.774  16.690   0.366 -0.0974 -0.1064  0.4300
24543W        W40352  13.810  11.522   6.362 -0.1830 -0.0616  0.0385
24544W        W40353  10.604   8.575   3.062 -0.0810  0.1214  0.2408
24545W        W40354   4.476  16.721  13.994  0.1435  0.2229 -0.1248
24546W        W40355  14.534  13.417   5.828  0.0277 -0.0496 -0.2495
24547W        W40356  13.739  11.972  13.526  0.0291  0.4852  0.0306
24548W        W40357   8.798  16.851  16.646 -0.0421 -0.2491 -0.5615
24549W        W40358   5.976  10.951  15.912 -0.0475  0.1707  0.1035
24550W        W40359   8.905   6.713   2.789  0.1744  0.1511 -0.4154
24551W        W40360   3.203  13.677  11.447  0.0640 -0.0702  0.2862
24552W        W40361   2.516   2.003  11.987  0.1201 -0.2481 -0.2927
24553W        W40362  15.749   0.252   0.950  0.0693  0.1254 -0.2757
24554W        W40363   4.423  10.411  11.798  0.0564  0.0818  0.2206
24555W        W40364   3.680   0.926   0.520 -0.5043  0.1078  0.4019
24556W        W40365  17.193  10.335  15.386 -0.0958  0.0095  0.1216
24557W        W40366  15.458  10.798  12.043 -0.1119  0.0371  0.1356
24558W        W40367   5.719   5.671   1.964 -0.2706 -0.2068 -0.0198
24559W        W40368   0.184   8.727  15.340  0.0102  0.0227 -0.3267
24560W        W40369   6.259   8.010   0.210  0.1224  0.1936  0.2316
24561W        W40370  15.034   6.445  11.466 -0.0258  0.1111 -0.3138
24562W        W40371   9.547  15.046   0.542  0.1410  0.1324 -0.2316
24563W        W40372   9.997   8.942   2.517  0.0357  0.1532  0.2848
24564W        W40373   5.454   6.199  12.885 -0.2323 -0.1206  0.1673
24565W        W40374  10.017   6.154  13.826 -0.1074 -0.1942  0.0710
24566W        W40375  16.693   6.580   4.186 -0.1191  0.0320  0.0655
24567W        W40376  13.816  12.861   3.784  0.0255 -0.1062  0.1516
24568W        W40377  15.233   9.525   5.457 -0.0207  0.1097 -0.0470
24569W        W40378  17.764  17.308   0.246  0.0356 -0.3169 -0.1094
24570W        W40379  13.274  14.555  11.733 -0.0709  0.0376  0.3717
24571W        W40380  10.672   3.398   1.574  0.0181  0.0822  0.3168
24572W        W40381   1.457   5.884   3.796  0.1282 -0.0548  0.0834
24573W        W40382  13.627  13.150  11.800  0.0238 -0.1976 -0.1271
24574W        W40383  10.639   7.816  13.908 -0.1142  0.0044  0.0280
24575W        W40384  10.600  15.486   3.771 -0.0497 -0.1505 -0.2406
24576W        W40385   7.994   1.048   0.281  0.1535 -0.0337  0.3702
24577W        W40386  12.257  11.152  13.022 -0.0733  0.2299 -0.1064
24578W        W40387  15.978   5.011   2.090  0.2464 -0.0580 -0.2769
24579W        W40388  15.565  17.493   0.093  0.1246 -0.0661  0.3681
24580W        W40389  15.589  15.975   2.662 -0.0867  0.1676  0.0915
24581W        W40390   7.840   8.802  13.491 -0.0979  0.0862 -0.1998
24582W        W40391  11.944   3.077  11.639 -0.0009 -0.0714 -0.0303
24583W        W40392   9.178   0.024   2.016 -0.2133  0.1385  0.4497
24584W        W40393  13.871   9.107  11.832 -0.2060  0.1140  0.0322
24585W        W40394  17.875   3.801  15.229 -0.0536 -0.2218 -0.1616
24586W        W40395  15.546  14.955   4.670  0.4213  0.1741 -0.1540
24587W        W40396  10.667  14.340  14.930 -0.2420 -0.3539  0.1003
24588W        W40397   0.746   3.565   4.558 -0.1141 -0.2103 -0.1504
24589W        W40398   3.329  16.848   1.477 -0.1659  0.1492  0.2377
24590W        W40399  17.514   9.910  16.580 -0.2496 -0.2431 -0.4285
24591W        W40400  17.896   8.048   1.213  0.0350  0.0453 -0.0624
24592W        W40401  14.900   7.259   0.856 -0.0017  0.0504  0.0180
24593W        W40402   6.819  14.017   3.891  0.0268  0.0431 -0.2106
24594W        W40403  10.227  11.493   2.704  0.1082 -0.3276  0.2816
24595W        W40404   3.877   7.664  12.606 -0.1897  0.2134  0.1633
24596W        W40405   5.117  15.236   6.308  0.0264 -0.0692 -0.3149
24597W        W40406   5.598   4.331   1.614 -0.1779 -0.1325  0.1384
24598W        W40407  14.623  11.434   2.199 -0.2495 -0.1614  0.0477
24599W        W40408  13.787  10.730  13.198 -0.1109 -0.0230  0.0852
24600W        W40409  13.423   4.940   5.859 -0.1590  0.0196  0.2171
24601W        W40410   0.752   1.195   3.320  0.2707 -0.0642 -0.1499
24602W        W40411  16.476   6.629  15.321 -0.3493 -0.0302 -0.0592
24603W        W40412   5.651   5.945  15.556  0.0643  0.0646  0.0060
24604W        W40413   2.018   5.757  14.319  0.1930  0.1420 -0.2486
24605W        W40414   4.396   7.423   2.209  0.2301  0.3948  0.1528
24606W        W40415   4.643  13.614  13.596 -0.0237 -0.0049 -0.0578
24607W        W40416   5.502   6.192   5.867 -0.1060 -0.0549 -0.1786
24608W        W40417  10.599   0.930   2.396 -0.0082 -0.1381 -0.1116
24609W        W40418  14.471   9.396   2.774  0.0525 -0.3552  0.1807
24610W        W40419   1.249  17.588   1.814 -0.1142  0.1900  0.0129
24611W        W40420  10.198   0.137  11.900 -0.0356  0.1030  0.0672
24612W        W40421   5.431   1.991   1.211  0.0270  0.0981  0.1344
24613W        W40422  14.792  12.806   1.134 -0.0546 -0.1060 -0.2486
24614W        W40423  12.507  17.832   3.651  0.1924  0.2206 -0.0328
24615W        W40424  15.090   0.048  14.106 -0.1673  0.0107  0.1284
24616W        W40425   2.758  10.455   1.187 -0.2730 -0.0336  0.0056
24617W        W40426  12.272   0.463   3.471 -0.0508 -0.0203 -0.1985
24618W        W40427  15.491  12.320  15.107  0.1709 -0.2654 -0.2073
24619W        W40428  17.149   3.380  13.426  0.0272 -0.0277  0.2031
24620W        W40429  14.677   9.978  15.098 -0.2976  0.3743 -0.0288
24621W        W40430   7.677  12.826  11.813  0.2592 -0.0864 -0.2161
24622W        W40431   2.216   7.504  11.151 -0.2066  0.0849  0.2171
24623W        W40432   0.256   6.216  16.640 -0.0082  0.0002 -0.2953
24624W        W40433   0.567  10.442   3.363  0.2093  0.0313  0.0944
24625W        W40434  11.526  17.192  14.066 -0.1880  0.0737  0.1314
24626W        W40435  11.339   9.696  16.700  0.1371  0.2173  0.0043
24627W        W40436  10.649   4.460   0.232  0.0017  0.1294  0.0734
24628W        W40437  12.014  10.312   5.146  0.0476  0.2300  0.1305
24629W        W40438   7.209  14.240  12.712 -0.0671  0.1056  0.0370
24630W        W40439   8.712   4.172   4.864  0.0992  0.0581 -0.0999
24631W        W40440   4.865   1.177  14.209 -0.0475  0.2951  0.0310
24632W        W40441   3.117  10.315   0.135  0.3474  0.1042  0.1212
24633W        W40442   5.233   1.875  11.685  0.2892  0.2539 -0.0852
24634W        W40443  16.182   3.349  12.849 -0.2474 -0.2157  0.1638
24635W        W40444  10.645   0.265  16.367 -0.2540  0.1502  0.1700
24636W        W40445  17.730   2.144   3.175  0.2274 -0.1134 -0.1982
24637W        W40446  17.187   5.902   5.287 -0.0676  0.2723  0.2040
24638W        W40447  14.681   3.259  13.649 -0.1098 -0.1152 -0.1190
24639W        W40448   6.635   9.235  16.112  0.0047  0.1748 -0.0816
24640W        W40449   4.143   6.491  16.238 -0.0450  0.0248 -0.0670
24641W        W40450   1.216   9.401  16.403 -0.0778  0.2309 -0.1604
24642W        W40451   2.063   8.879   0.205  0.0837  0.0684 -0.2011
24643W        W40452  11.125  10.495  13.797  0.0715  0.0873  0.0107
24644W        W40453   5.082   6.202   1.336 -0.1910 -0.0884 -0.3117
24645W        W40454   1.403  12.065  12.748  0.1358 -0.0333  0.0383
24646W        W40455   4.296  12.324   1.464 -0.1863  0.0857  0.1684
24647W        W40456   5.821   1.270   4.871  0.0210  0.0124 -0.2626
24648W        W40457  15.908   7.321   0.922  0.1695  0.1437 -0.0860
24649W        W40458  11.240   8.956   5.057 -0.2810  0.2628 -0.3085
24650W        W40459  11.381   4.963  15.578 -0.1285  0.0337  0.0586
24651W        W40460   5.066  10.647   0.139 -0.0291  0.1699 -0.1550
24652W        W40461  10.966  16.772   5.554 -0.0195  0.2885  0.0676
24653W        W40462  13.671   9.968   5.755  0.0425  0.3271  0.2781
24654W        W40463  17.162   4.978  14.934  0.0401  0.1743  0.1605
24655W        W40464  11.823  16.034   3.345  0.0098 -0.0094  0.0467
24656W        W40465   8.178   3.333   3.431  0.0404 -0.2384  0.0293
24657W        W40466  13.789   8.514   1.072 -0.0379 -0.1547 -0.0864
24658W        W40467  14.931   3.812   0.802  0.1393  0.1631 -0.2202
24659W        W40468  14.000   9.628   0.477  0.1018  0.2857 -0.2704
24660W        W40469   7.969   8.476  11.754 -0.3517  0.1930 -0.1098
24661W        W40470   9.992  14.357  16.317 -0.1441 -0.0768 -0.0777
24662W        W40471   5.942   1.097   0.711  0.3114 -0.0887  0.0990
24663W        W40472  10.189  17.597  12.648 -0.0647 -0.0538  0.3965
24664W        W40473   9.875   0.397  16.393 -0.2045  0.0711 -0.2734
24665W        W40474   4.396   8.379  12.371  0.0983 -0.5323  0.0015
24666W        W40475   6.356  12.654   4.540  0.2717  0.2956 -0.0756
24667W        W40476   5.350   2.241   3.464  0.3448  0.2419 -0.0196
24668W        W40477   2.053   0.795   3.655  0.1385 -0.1819 -0.1528
24669W        W40478  14.606   0.278  15.093  0.3463 -0.2337 -0.1825
24670W        W40479   2.608  12.152  13.346  0.0088 -0.1227  0.0378
24671W        W40480   1.910   7.585  11.568 -0.4518 -0.3392 -0.2361
24672W        W40481  12.769   1.383   0.689 -0.1171 -0.0863  0.1119
24673W        W40482   4.375  10.693  12.202 -0.0248 -0.1505 -0.0304
24674W        W40483   8.751  14.078   1.516 -0.1685 -0.3197 -0.1392
24675W        W40484  16.381   6.384  13.625  0.1174 -0.0652 -0.3669
24676W        W40485  11.508   7.117  12.770 -0.1303 -0.3603  0.3772
24677W        W40486  16.235   0.555   3.241  0.1084 -0.0848 -0.1801
24678W        W40487  12.061  12.360  15.965  0.3258 -0.0444  0.0206
24679W        W40488   2.551   3.917   0.319 -0.2993 -0.1010  0.2794
24680W        W40489   2.612   4.132  15.349 -0.3419  0.0367 -0.0272
24681W        W40490   2.918  12.124  14.911  0.0276  0.0127 -0.0917
24682W        W40491  15.449   0.115   5.226  0.2152  0.2538 -0.0368
24683W        W40492   1.867   0.944   4.167  0.0131 -0.0697 -0.2487
24684W        W40493  11.718  17.843  12.913  0.0623 -0.3222  0.3315
24685W        W40494  16.437   8.925   3.294 -0.1050 -0.2151 -0.1976
24686W        W40495   0.082   9.955  16.379  0.0366  0.1143  0.3470
24687W        W40496  10.183  13.178   1.948 -0.0115  0.2708  0.2486
24688W        W40497  11.539   3.725   3.108  0.2103  0.2353  0.1810
24689W        W40498  13.274  16.874  13.114 -0.1680  0.1695  0.2500
24690W        W40499  17.825   1.822   1.809  0.2588  0.2495  0.1760
24691W        W40500   0.770  10.532  16.453  0.0932  0.1565 -0.0345
24692W        W40501   1.411   0.660   2.475 -0.1292 -0.3621 -0.1585
24693W        W40502  13.631   9.183   0.400  0.1172 -0.0146  0.3626
24694W        W40503  16.556  17.370   5.738  0.1519 -0.2600 -0.0480
24695W        W40504  14.856  12.740   1.654 -0.0344  0.3175 -0.0351
24696W        W40505   1.507   0.338   2.892  0.0322 -0.0632  0.2765
24697W        W40506   8.910   7.236   2.179  0.0395  0.2121  0.1181
24698W        W40507   7.796  12.197  13.915  0.2287 -0.0151 -0.0929
24699W        W40508  13.256   2.602   5.080 -0.0473 -0.3386  0.1118
24700W        W40509  14.744  11.034   2.916  0.0914 -0.0677  0.0390
24701W        W40510   7.327  13.159  11.679  0.0561 -0.0981  0.2923
24702W        W40511   8.504  16.421  16.554  0.0687 -0.2488  0.0106
24703W        W40512   8.047   9.753   5.445  0.3629 -0.1297 -0.2931
24704W        W40513   9.104  11.469  11.010  0.0532 -0.0654  0.0835
24705W        W40514   2.358   4.231  12.211  0.0603 -0.3255 -0.0710
24706W        W40515   3.937   6.587  13.497 -0.1480 -0.1529 -0.1884
24707W        W40516  16.368   1.705   3.448 -0.1390 -0.0295  0.2266
24708W        W40517  14.199  11.166  13.312 -0.0508 -0.0899 -0.1543
24709W        W40518  15.134   9.387   2.957  0.1836 -0.0530  0.0244
24710W        W40519   8.739  11.583  11.347 -0.2736 -0.5444  0.2882
24711W        W40520   9.516   4.278  13.662  0.0853  0.1009 -0.3370
24712W        W40521  14.086   0.273  16.150  0.1678  0.2075  0.2232
24713W        W40522  10.492   2.643   2.709 -0.0745  0.1783 -0.1314
24714W        W40523   6.087  11.210  16.340 -0.0077 -0.1444  0.1472
24715W        W40524  11.612   5.543  13.143  0.1979 -0.1162  0.2298
24716W        W40525   7.888   2.604   1.677  0.3966 -0.0296  0.1702
24717W        W40526  15.534   1.860  16.453 -0.0479  0.1618  0.2237
24718W        W40527  17.959  16.103   5.316  0.3944  0.2115  0.2795
24719W        W40528   5.869   7.453  15.693 -0.1813  0.1097 -0.2734
24720W        W40529  17.019  14.920   0.766  0.0583  0.1106  0.2409
24721W        W40530   1.127  17.727   3.455  0.0769 -0.1017 -0.0436
24722W        W40531  12.770   5.877  12.294  0.1447  0.0430 -0.0225
24723W        W40532  15.132  10.196   1.681  0.2760 -0.0581 -0.0042
24724W        W40533   8.253  14.468   4.637 -0.0786 -0.0028 -0.0954
24725W        W40534  14.636   4.627  12.997 -0.0637 -0.2614 -0.5174
24726W        W40535   3.961  12.110  15.705  0.3335  0.0642  0.2261
24727W        W40536  17.320  10.104  14.952 -0.1014  0.1154  0.0447
24728W        W40537   6.829   7.556  15.182 -0.1029  0.1744  0.3172
24729W        W40538   6.858  16.900  16.612 -0.2134  0.0745  0.1744
24730W        W40539   3.402  13.950  13.352 -0.0036 -0.2496  0.1903
24731W        W40540  14.557  13.526   4.419 -0.2000 -0.2334 -0.3070
24732W        W40541   4.806   9.486  10.509 -0.0122  0.1309 -0.0012
24733W        W40542  14.568  13.554  16.409 -0.2061 -0.1273  0.1989
24734W        W40543  12.269   9.758   1.007  0.1512  0.0657  0.1290
24735W        W40544  14.192  12.862   5.038  0.2257 -0.2033  0.0437
24736W        W40545   1.978   0.775  16.528  0.1409 -0.5095  0.0127
24737W        W40546  10.927  15.108   0.511  0.1209 -0.1871  0.3814
24738W        W40547   3.467  12.631   0.331  0.1627 -0.1818 -0.2271
24739W        W40548   1.338   8.329   0.789  0.2336  0.1361 -0.2101
24740W        W40549   1.720   6.607  11.290 -0.0636  0.1608  0.1961
24741W        W40550  13.362   8.988   2.260 -0.3442  0.0604  0.2051
24742W        W40551   2.559   4.168   3.700  0.1789 -0.0699 -0.2720
24743W        W40552  10.759  15.847  11.989  0.1621 -0.1357 -0.1951
24744W        W40553   6.418  16.479   2.655  0.1731  0.1456 -0.2039
24745W        W40554   3.644  15.036  14.896  0.2659  0.1766 -0.1071
24746W        W40555   5.923  13.666  13.755  0.1041  0.2254 -0.1419
24747W        W40556   4.494  14.065   0.360  0.0981 -0.1994  0.3470
24748W        W40557   4.637   9.061  13.942 -0.0821  0.1435 -0.0973
24749W        W40558  11.171   5.371  12.993 -0.0258  0.0879  0.2137
24750W        W40559  15.602  15.377  14.965 -0.0573  0.1218 -0.0952
24751W        W40560   9.944  12.665   3.297 -0.0090 -0.0557 -0.1055
24752W        W40561  13.365  11.141  13.346  0.2458  0.1621  0.2215
24753W        W40562  11.496  17.251  15.200 -0.2814 -0.0377  0.1923
24754W        W40563   4.880   1.228  16.461  0.0396 -0.2938 -0.0939
24755W        W40564   4.882   7.494  13.142  0.0739  0.0028  0.0704
24756W        W40565  11.993  11.636   3.141  0.3030 -0.0681  0.0463
24757W        W40566  17.194   5.456  12.529 -0.0693 -0.0926  0.1595
24758W        W40567   9.958  11.486   5.708 -0.1408 -0.0333 -0.0856
24759W        W40568  16.436   9.213   3.927  0.3118 -0.0430 -0.0078
24760W        W40569   1.070   5.676  12.206 -0.0695  0.1881  0.0152
24761W        W40570  10.974  14.917   4.929  0.2339 -0.1091 -0.0958
24762W        W40571   4.426   4.493   2.581  0.0141 -0.0575  0.1033
24763W        W40572   2.438  16.157   5.368 -0.0398  0.2856 -0.1651
24764W        W40573   9.914  17.410   5.715 -0.3157  0.0054 -0.1082
24765W        W40574   8.940  12.436  11.721  0.1087 -0.2387  0.2369
24766W        W40575   6.359   4.322   5.414  0.3178  0.3301 -0.1609
24767W        W40576   4.084   5.448   1.097 -0.0515  0.3659 -0.1238
24768W        W40577  13.605  16.065   4.411 -0.0845  0.0426  0.1220
24769W        W40578   4.531   0.021   3.994 -0.1126 -0.1109 -0.0680
24770W        W40579  14.055   9.805   2.915 -0.0874  0.0891  0.0801
24771W        W40580   9.883   7.027   3.591 -0.2099 -0.0021 -0.0719
24772W        W40581  10.441   6.091  16.049  0.1262  0.0355 -0.0373
24773W        W40582   6.572   2.529   6.268  0.0229 -0.0740 -0.0546
24774W        W40583  12.553  16.157   2.726 -0.2264 -0.0327 -0.1436
24775W        W40584  15.150   8.807  13.492  0.3375 -0.1427 -0.0050
24776W        W40585   7.683   5.735   1.001 -0.0162  0.1249 -0.1289
24777W        W40586   2.050  12.458   1.998 -0.2755 -0.0490 -0.1512
24778W        W40587   6.253  16.759   1.445  0.0400 -0.1171  0.3169
24779W        W40588  17.397  11.188  12.625  0.1546  0.1366  0.2836
24780W        W40589  13.677   6.847   0.261  0.2178 -0.1956 -0.0026
24781W        W40590   6.254   9.845   4.970 -0.2803  0.2025 -0.0213
24782W        W40591   2.102   8.280  14.015  0.2434  0.0253  0.2521
24783W        W40592  16.853  16.828  14.473 -0.2845 -0.0045 -0.0492
24784W        W40593   4.491  17.396   6.061  0.0500 -0.0062 -0.0556
24785W        W40594   9.081  13.665   5.435  0.0253 -0.3473 -0.0548
24786W        W40595   8.571  13.941   3.993  0.0655  0.1153  0.1783
24787W        W40596  15.479   8.048   0.515 -0.1242  0.0683 -0.1678
24788W        W40597   7.566   7.315   1.808  0.3298  0.0502 -0.1785
24789W        W40598  10.621  11.751  14.413  0.5290 -0.0460  0.1721
24790W        W40599   5.576  11.833  15.147  0.2486 -0.1693 -0.3475
24791W        W40600  11.482   6.869   0.996  0.4724  0.0492 -0.1259
24792W        W40601   6.192  14.318  12.613 -0.0620 -0.1142 -0.0191
24793W        W40602  16.534   2.972   5.797 -0.1664  0.0805  0.1041
24794W        W40603  14.469  13.436  12.137 -0.0920  0.1573  0.0928
24795W        W40604  14.941  11.191   0.764 -0.2145 -0.0132 -0.2219
24796W        W40605   9.733  10.794   0.062  0.0888  0.0585 -0.0409
24797W        W40606  17.599   8.893   2.963 -0.3344 -0.0197  0.3880
24798W        W40607   9.049   6.725  16.037 -0.2730  0.0111 -0.1104
24799W        W40608   2.824   7.251  13.123  0.2155  0.1135  0.1199
24800W        W40609   0.753  17.343   1.478  0.0380  0.0109 -0.2844
24801W        W40610  14.752   3.535   4.520  0.0314 -0.2265  0.1553
24802W        W40611  11.589   3.183  16.567 -0.0002 -0.3522 -0.1984
24803W        W40612  17.215   6.877  10.392 -0.0399 -0.0351 -0.1524
24804W        W40613   3.386  12.016   2.626 -0.2810  0.1419 -0.1418
24805W        W40614  14.925   1.927   1.892  0.0928  0.0321 -0.2884
24806W        W40615  16.756  17.325   3.173  0.1447  0.0286 -0.3874
24807W        W40616   7.826   9.944   0.876  0.0916 -0.0608 -0.0348
24808W        W40617   3.378  15.767  12.735 -0.3778  0.0560  0.6637
24809W        W40618   6.736  14.556  12.794  0.0787 -0.2770  0.0668
24810W        W40619   9.005   4.008  16.423 -0.0450 -0.1302 -0.0045
24811W        W40620   6.577  10.567   4.620 -0.0457 -0.0979 -0.0918
24812W        W40621  10.139  17.014   4.492  0.0677  0.0625  0.1080
24813W        W40622  17.129  14.123  14.255 -0.1796 -0.1805 -0.4274
24814W        W40623   3.362  14.097   3.036 -0.2225  0.0095  0.2218
24815W        W40624   5.643  12.865   2.958 -0.0100  0.0570  0.0792
24816W        W40625   8.909   7.844   3.713 -0.2432 -0.2000  0.2020
24817W        W40626  15.596   1.561  13.816  0.1617  0.0339 -0.0450
24818W        W40627   9.905  10.483  12.139  0.1947 -0.2758  0.0303
24819W        W40628  14.899   8.748   0.377  0.1497 -0.2216  0.1676
24820W        W40629  15.094  16.768   1.109  0.3577 -0.0064  0.2296
24821W        W40630   0.695   9.697   4.878 -0.1698  0.1016 -0.1367
24822W        W40631   8.545  11.673   1.142 -0.2378 -0.2311  0.1638
24823W        W40632   9.378  11.248  13.542 -0.0936 -0.1504 -0.0112
24824W        W40633  10.283   0.268  12.461  0.1900  0.3369  0.2767
24825W        W40634   4.147  14.702  15.881 -0.2696  0.1792  0.0003
24826W        W40635   0.861   3.423  12.772  0.2534 -0.5503  0.0934
24827W        W40636  13.139   6.553   3.389 -0.0797 -0.1813 -0.0024
24828W        W40637   7.039  12.413  15.488  0.0187  0.3129  0.0253
24829W        W40638  15.807   9.546   1.666 -0.0765  0.1394  0.0188
24830W        W40639  16.251   8.790   3.748 -0.0120 -0.0300 -0.1097
24831W        W40640   1.629   4.172   3.706 -0.2504  0.0182 -0.2846
24832W        W40641  16.319  12.827   5.851  0.3636  0.0151  0.0738
24833W        W40642  16.776   4.308   2.117 -0.0757  0.2273 -0.0918
24834W        W40643   6.186  11.935  15.741  0.0901 -0.2208  0.1478
24835W        W40644   8.035  11.735   0.258 -0.1957  0.2942 -0.1407
24836W        W40645   5.449   3.629  14.689  0.2238  0.2348  0.0587
24837W        W40646   1.119   6.458  13.252 -0.1872 -0.2211  0.0980
24838W        W40647   8.573  14.108  15.642  0.2305 -0.3773  0.2641
24839W        W40648  13.109   8.783   2.722 -0.2485 -0.0764 -0.0789
24840W        W40649   8.405   1.408   0.298  0.2766  0.0390  0.0686
24841W        W40650  14.505   7.961   2.004  0.0366 -0.1548  0.0765
24842W        W40651   3.521   8.632  11.089  0.1088  0.0963 -0.0160
24843W        W40652   8.149   7.591  11.951  0.0002 -0.3109  0.1668
24844W        W40653   2.189   4.670  16.587 -0.0122  0.1207  0.2913
24845W        W40654   8.504  17.904  16.518  0.3789 -0.1116 -0.1384
24846W        W40655  14.294  13.277   1.201  0.1094 -0.2346  0.0883
24847W        W40656  15.024   4.806  15.431  0.1911  0.0161  0.0202
24848W        W40657  13.672  10.670   1.868  0.0281 -0.2410  0.4651
24849W        W40658  11.678   6.265   1.602  0.0853 -0.0560  0.2925
24850W        W40659   9.506   9.279   2.870  0.2850 -0.1845 -0.0715
24851W        W40660  17.619   1.037  13.051 -0.0626  0.3361  0.2179
24852W        W40661   2.870   8.640   5.842  0.1107  0.0385  0.0988
24853W        W40662   7.564   5.049   4.802  0.2327 -0.0359  0.1098
24854W        W40663  15.298  10.361   5.572  0.0774 -0.2525  0.0763
24855W        W40664   3.554  16.374  14.927  0.2225 -0.3321 -0.2176
24856W        W40665  12.880   6.383  13.066 -0.0446 -0.1109 -0.1094
24857W        W40666  10.918   1.975  15.840  0.1684  0.0059 -0.2306
24858W        W40667   2.333   5.824  14.751  0.1212  0.0265 -0.0358
24859W        W40668  17.543  17.923  15.632  0.0098  0.1049  0.0737
24860W        W40669  15.547   4.071   2.809  0.1718  0.0335  0.3314
24861W        W40670  15.210   5.255  13.173 -0.0412 -0.0430 -0.1381
24862W        W40671   5.489  17.945  12.631 -0.5886 -0.0896 -0.2628
24863W        W40672   2.574   2.808  16.381  0.2018  0.1882 -0.1965
24864W        W40673   7.375  15.608   4.749 -0.0606  0.0986 -0.3198
24865W        W40674   5.111   1.704   5.524  0.1435  0.0314 -0.0768
24866W        W40675  11.351   7.566  12.104  0.0102  0.1293  0.0701
24867W        W40676  10.113   5.986  14.305  0.3048  0.1095  0.0759
24868W        W40677   8.051   1.251  14.921 -0.0532 -0.0889 -0.3539
24869W        W40678  11.689   6.693   0.045 -0.0734  0.0423 -0.1358
24870W        W40679  12.559  16.364   1.350 -0.2151  0.1929 -0.2518
24871W        W40680  12.640  15.528   2.059  0.3391 -0.1559 -0.6610
24872W        W40681   6.308   7.435  15.409 -0.2114  0.4875 -0.4194
24873W        W40682   0.227   5.751   0.138  0.3085 -0.1073 -0.1109
24874W        W40683  12.471  10.702   2.789  0.2055  0.4201  0.1542
24875W        W40684  17.148  15.109   3.125 -0.1110 -0.1604  0.0713
24876W        W40685  14.043   2.769  16.517  0.4388  0.0690 -0.0904
24877W        W40686  17.594  16.985   5.495 -0.2374  0.0763  0.1177
24878W        W40687   1.773   3.174   2.184 -0.2433 -0.3254 -0.1301
24879W        W40688   4.436  15.723  15.635 -0.0703 -0.1048 -0.1479
24880W        W40689   2.242  11.135  14.745  0.0326  0.4976 -0.3832
24881W        W40690   2.696  17.657   3.912  0.2357 -0.0443  0.1264
24882W        W40691  14.000  12.913  16.133 -0.4963  0.2031 -0.1153
24883W        W40692   1.850  15.746  13.153  0.0335  0.0684 -0.2404
24884W        W40693   5.693   1.587   2.419  0.1141 -0.0580  0.0027
24885W        W40694  10.629   1.834  11.877  0.2341 -0.2222  0.2434
24886W        W40695   8.994   0.328  16.645 -0.1388 -0.2756  0.0321
24887W        W40696   2.081   8.213  13.130  0.3104  0.2321  0.0054
24888W        W40697   0.371   8.373   4.435  0.0899 -0.0536 -0.2157
24889W        W40698   4.866  17.345  12.095  0.0631  0.1693  0.0633
24890W        W40699   7.381   0.536   5.353  0.0543 -0.1467 -0.0446
24891W        W40700   1.959  12.198   4.487 -0.3054  0.2022 -0.0496
24892W        W40701   1.658   2.534   5.249  0.0686 -0.2307 -0.0175
24893W        W40702   9.228  13.348  15.589 -0.0956 -0.2922  0.0493
24894W        W40703   9.250   3.115  12.163 -0.2896 -0.2545 -0.2240
24895W        W40704  15.558   6.796   4.534 -0.0480  0.0501 -0.1924
24896W        W40705  11.491   6.923  13.918  0.0298  0.2733  0.0596
24897W        W40706  12.769  13.414  12.372  0.1153 -0.1447 -0.1492
24898W        W40707  16.108  14.623   5.364 -0.0339  0.0184  0.0747
24899W        W40708   4.348  16.184  14.172  0.1919 -0.2817  0.0178
24900W        W40709  14.070   3.143   3.574  0.2476  0.0396  0.1034
24901W        W40710   4.189  11.614  15.699 -0.2669  0.0956 -0.1119
24902W        W40711  14.665   1.232   3.083  0.1942  0.0405 -0.2001
24903W        W40712  16.546  13.056   5.286 -0.2453 -0.0544 -0.1792
24904W        W40713   6.525   8.675  12.863  0.1824 -0.0214  0.1992
24905W        W40714   3.140   5.319   0.245 -0.0583  0.2495 -0.0791
24906W        W40715   7.570  10.747   1.581 -0.3351  0.0816 -0.0092
24907W        W40716  16.080  15.504   3.007  0.0731  0.0699  0.1807
24908W        W40717  15.371  15.513  13.932  0.1241  0.1113  0.1949
24909W        W40718   5.513   3.717   3.648  0.1668  0.2105  0.1986
24910W        W40719   0.463  14.527  11.699  0.0788  0.0864 -0.3828
24911W        W40720  10.984   6.913   5.480 -0.4232  0.1397  0.2110
24912W        W40721  16.583   9.965  11.999 -0.3186 -0.3261  0.3133
24913W        W40722  13.845  12.537  13.390 -0.0450 -0.1027  0.4294
24914W        W40723  13.553  13.033   5.652 -0.0929  0.1309 -0.0705
24915W        W40724  10.435  10.143  16.609  0.0041  0.0163  0.0601
24916W        W40725   6.387   6.369  10.932  0.1628 -0.1515  0.1207
24917W        W40726   5.187  14.631   0.091  0.0404 -0.1486 -0.0854
24918W        W40727   3.469   1.554   0.234  0.0747  0.3074  0.2058
24919W        W40728  13.992  14.281  15.556 -0.1672  0.1025  0.5352
24920W        W40729   4.028   1.940   0.855  0.2005 -0.1533 -0.1029
24921W        W40730   6.288   9.716   2.991  0.1618  0.1745  0.4504
24922W        W40731   0.640  11.571  16.002  0.1027  0.4791 -0.1850
24923W        W40732   8.240  16.369  16.077  0.0460 -0.2194  0.0077
24924W        W40733  13.452  11.061  15.688  0.5345 -0.1789  0.1434
24925W        W40734  11.349  14.745   0.667  0.0382  0.2652 -0.2218
24926W        W40735  10.337   4.835  13.968  0.1610  0.2649 -0.0189
24927W        W40736  13.324   6.115  16.573 -0.2763  0.0072  0.0734
24928W        W40737   5.878   4.028   3.563  0.0877  0.0232  0.2417
24929W        W40738   2.044   8.064  14.489 -0.0471 -0.0943 -0.0078
24930W        W40739  17.377  13.777  13.471 -0.1836  0.2708 -0.0106
24931W        W40740   4.278   9.365   3.156 -0.3213 -0.1677 -0.1438
24932W        W40741   7.249   6.360  14.276 -0.2230  0.2469  0.0517
24933W        W40742   6.941   0.443  16.651  0.1636 -0.1103  0.0738
24934W        W40743   5.320  14.310   3.501  0.0344  0.2803 -0.2090
24935W        W40744   8.789  13.777  14.735 -0.1428  0.0202  0.1337
24936W        W40745   4.057  10.527   0.338  0.0032 -0.1014  0.1317
24937W        W40746   1.936   3.362   2.701  0.2142  0.1708 -0.0592
24938W        W40747  12.294  10.254  14.493  0.1363  0.0149  0.2161
24939W        W40748   3.944  15.045   2.923 -0.3078 -0.0526  0.0399
24940W        W40749   3.517  17.096   1.111  0.2103  0.0712 -0.1363
24941W        W40750   5.357  12.995   3.412  0.0023 -0.0128  0.1597
24942W        W40751   2.907   3.994  12.805 -0.3306  0.0097  0.1331
24943W        W40752  12.137   3.976   5.506  0.0562 -0.1582  0.0586
24944W        W40753   7.460  14.435   1.227  0.0069 -0.1758  0.3720
24945W        W40754  11.622  12.435  13.041  0.0742 -0.1120  0.2087
24946W        W40755  13.136   9.494  16.027  0.0859 -0.1227 -0.0306
24947W        W40756   5.274  15.932  12.890 -0.1306  0.0145 -0.2052
24948W        W40757   4.871   4.013  14.386 -0.0683  0.2488 -0.0394
24949W        W40758   4.291   1.863   4.952 -0.2999 -0.1615  0.0668
24950W        W40759   7.116  10.574  14.054 -0.2709  0.2513  0.0098
24951W        W40760  13.485   1.564   0.753 -0.0720  0.4674 -0.1540
24952W        W40761   5.636  11.875  11.769  0.2095  0.1805 -0.0965
24953W        W40762  13.049   0.641   0.049  0.0409 -0.1093  0.0237
24954W        W40763  10.624  11.040  15.251  0.0842 -0.2958 -0.0235
24955W        W40764  12.295  14.093   0.359  0.1464 -0.3464 -0.2008
24956W        W40765   4.872  12.700   3.534 -0.2417  0.2888  0.0845
24957W        W40766   5.423  17.082   4.858  0.1586  0.3488 -0.1116
24958W        W40767   8.462  15.474  15.539 -0.0914  0.2122  0.0275
24959W        W40768   6.001   4.444  14.207  0.0070  0.3174  0.0650
24960W        W40769   4.654   2.776   4.673  0.1816 -0.0894 -0.1943
24961W        W40770  10.260   5.669   1.806  0.2541  0.0594  0.1621
24962W        W40771   2.709   0.363  14.961 -0.0589  0.2573 -0.3617
24963W        W40772   8.771  12.316   4.737  0.0968 -0.0070  0.3149
24964W        W40773   7.188   8.587  15.883  0.0577  0.0345 -0.0082
24965W        W40774   8.768   1.551   2.427 -0.2192  0.1917 -0.3974
24966W        W40775  16.321  12.148  15.569  0.0677 -0.2772  0.0600
24967W        W40776  13.224  14.208   1.229  0.3927 -0.2212 -0.1687
24968W        W40777  15.227  16.314   1.109  0.2316  0.1298 -0.1564
24969W        W40778   8.947  11.190   5.630 -0.1539 -0.0112  0.1207
24970W        W40779   7.789  15.301   4.501 -0.5070 -0.1677 -0.0063
24971W        W40780  13.129   6.631   0.587 -0.1133  0.0689  0.3872
24972W        W40781  12.146  16.364  14.426  0.1169 -0.0342 -0.2627
24973W        W40782   6.856   6.893   4.417  0.0667  0.0534  0.2853
24974W        W40783  11.643   2.377   5.024 -0.0248  0.1065  0.0820
24975W        W40784   9.164   9.660   3.749 -0.0681  0.0452 -0.0998
24976W        W40785  12.355   3.518  15.422  0.1222  0.0251  0.1743
24977W        W40786  14.204  15.181  14.066  0.0638  0.0918 -0.0367
24978W        W40787   6.788  16.465  12.698 -0.0766  0.0468 -0.1304
24979W        W40788   7.364   5.335  12.623 -0.1565  0.1279  0.0887
24980W        W40789  13.660  15.212  15.695 -0.0638 -0.2156 -0.0936
24981W        W40790  10.253  10.338  14.152 -0.1609  0.0793 -0.1703
24982W        W40791  10.793  15.014  13.293 -0.2664 -0.2350 -0.1883
24983W        W40792   2.822   5.441   1.192 -0.0609  0.0550 -0.1866
24984W        W40793   5.190  11.980   1.090  0.0885  0.0445 -0.0308
24985W        W40794  11.802   5.672   1.655 -0.1270 -0.0699 -0.0647
24986W        W40795   2.260   9.610  14.423 -0.3078  0.0611  0.0479
24987W        W40796  14.144  15.222  15.919  0.0547  0.2251  0.0947
24988W        W40797  17.102   8.867   5.735  0.0958  0.0933  0.2040
24989W        W40798   2.581  10.345   4.307 -0.1379 -0.0928  0.0952
24990W        W40799   2.510  15.120   3.144 -0.0896 -0.2709 -0.1120
24991W        W40800   7.807   6.360   3.106 -0.0568  0.1691  0.1223
24992W        W40801   4.661  10.774   1.572  0.2399 -0.2353 -0.0599
24993W        W40802   3.561  15.560  10.554  0.1684 -0.2157 -0.0246
24994W        W40803   7.401  14.386  16.242  0.0484  0.3735 -0.3605
24995W        W40804   8.773   4.219  11.872 -0.0835  0.1134 -0.1873
24996W        W40805   6.936  15.767   0.589 -0.2188 -0.4477 -0.1459
24997W        W40806  10.031   2.940   3.589  0.2910  0.1016  0.0493
24998W        W40807   4.571  16.863  16.571 -0.1674  0.0371  0.3991
24999W        W40808  17.216  10.229  14.493  0.1954  0.1303 -0.1316
25000W        W40809  14.405  12.898   0.824  0.1204 -0.0210  0.0345
25001W        W40810  17.349  13.822  16.690 -0.1866 -0.1501  0.2151
25002W        W40811  14.142  15.299   4.398  0.0930 -0.1178 -0.0375
25003W        W40812  14.381   5.482  13.143  0.1962  0.2994  0.0427
25004W        W40813   3.124  10.493  15.620  0.3253 -0.1874  0.2376
25005W        W40814   8.578   8.578   5.678 -0.2898 -0.2337 -0.1258
25006W        W40815   8.742   1.397   5.060 -0.2594 -0.2279 -0.1978
25007W        W40816  15.002   0.756  15.966 -0.1660  0.0831 -0.0932
25008W        W40817   1.175   0.335  13.206  0.2657 -0.0230 -0.3144
25009W        W40818   6.214   3.280  15.962 -0.2060  0.2722 -0.2286
25010W        W40819  17.615  16.464   3.877  0.2546  0.1924 -0.0847
25011W        W40820   8.447  11.455   4.776  0.1556 -0.2481 -0.1056
25012W        W40821   3.962  14.931  16.308 -0.0580  0.2252  0.1307
25013W        W40822   1.719   4.994   4.783 -0.1343  0.4809  0.1154
25014W        W40823  17.775   3.800  12.796 -0.0675 -0.0738  0.2426
25015W        W40824  17.686   2.708   2.221  0.1314  0.1059 -0.1370
25016W        W40825  14.827   6.971  13.253  0.3539  0.0948  0.5025
25017W        W40826   3.908   1.235  11.907  0.2872 -0.3628  0.3647
25018W        W40827   9.636  12.221   4.189 -0.2870  0.1469 -0.1203
25019W        W40828  12.836  16.766  15.080  0.1831  0.0382  0.0624
25020W        W40829   0.716  11.063   2.883  0.1279  0.1735 -0.1389
25021W        W40830   8.647   2.317   5.030  0.2291 -0.0963 -0.1294
25022W        W40831  11.082   9.659   1.994 -0.2283  0.2148  0.2378
25023W        W40832   6.023   8.827   3.295 -0.3325  0.2487 -0.0801
25024W        W40833   0.846  14.277   2.586 -0.0769  0.1285  0.0422
25025W        W40834  16.627   0.563   3.589  0.0808  0.1859 -0.0073
25026W        W40835   1.108   1.688  15.786 -0.2612 -0.2049 -0.3908
25027W        W40836   4.937  10.729   2.473  0.1538 -0.0361  0.0967
25028W        W40837  10.098   2.239   3.683 -0.0341  0.0212 -0.0404
25029W        W40838   5.706  11.997   2.297 -0.1424 -0.1023 -0.1131
25030W        W40839   6.976  12.821   3.752  0.1435 -0.0699  0.1390
25031W        W40840  15.663  12.046  12.040  0.1147 -0.3774 -0.1162
25032W        W40841   0.288   1.785   0.526 -0.2286  0.1432 -0.1483
25033W        W40842  12.744  11.444  14.376 -0.1896 -0.1436 -0.0124
25034W        W40843   2.772   1.901   4.516  0.0051 -0.0575  0.1234
25035W        W40844   7.033   2.461   2.436  0.1937 -0.3628  0.1430
25036W        W40845   3.438   0.736   3.258  0.3748  0.0234 -0.0295
25037W        W40846  14.125   9.100  15.283 -0.0138  0.0235  0.1825
25038W        W40847   2.876   9.703   2.900  0.0605 -0.1922  0.0056
25039W        W40848   6.010   7.688  13.021 -0.2223  0.1218  0.0411
25040W        W40849  10.542   2.188   0.731 -0.0542  0.1404 -0.0839
25041W        W40850   5.266   2.632  13.592 -0.3928 -0.1385  0.0953
25042W        W40851   3.946  11.593  11.981 -0.1272  0.1224  0.0374
25043W        W40852  11.001   9.947  15.739  0.1034 -0.0287 -0.1083
25044W        W40853   3.879   8.676  13.260 -0.1900 -0.0188  0.0179
25045W        W40854   4.881   6.716   4.699  0.1149 -0.0826  0.0240
25046W        W40855   9.517   9.115   1.318 -0.0103 -0.0306 -0.2560
25047W        W40856  16.432  16.776  13.600 -0.0255  0.4007  0.2337
25048W        W40857   0.173  10.121   5.763  0.3469 -0.2558 -0.3498
25049W        W40858  11.049   7.889  15.178  0.0142 -0.3633  0.1448
25050W        W40859   4.441  17.539  16.709 -0.1903  0.0307 -0.2023
25051W        W40860  17.555   6.969  15.772  0.0522  0.1665  0.0013
25052W        W40861   0.213   2.246   3.063 -0.1313 -0.2365  0.0173
25053W        W40862  11.980  10.613  16.149 -0.1824 -0.1110 -0.1053
25054W        W40863   7.861  16.106  16.202 -0.0181 -0.1756 -0.0516
25055W        W40864  10.046  15.152   5.350  0.0291  0.0637 -0.1279
25056W        W40865   5.821   2.063  16.645  0.0092 -0.1682 -0.1579
25057W        W40866   6.171  11.322   5.009  0.0143  0.1147  0.0087
25058W        W40867   2.684  13.350  13.279 -0.1868  0.2116 -0.0089
25059W        W40868  14.852   9.807   3.781  0.2286  0.1381 -0.2326
25060W        W40869   9.278  17.261  13.285 -0.0237 -0.2841  0.0465
25061W        W40870   5.284  12.263  11.943 -0.0386  0.1219 -0.1325
25062W        W40871  16.041  13.636   2.203  0.0428 -0.0235  0.3698
25063W        W40872   1.139  14.401   2.197 -0.1265  0.0719  0.1654
25064W        W40873  11.755  14.629  13.038  0.0298  0.0481  0.0874
25065W        W40874  16.088   0.981   4.784  0.2835 -0.1065  0.3439
25066W        W40875   9.756   0.369   3.867  0.2679  0.2903  0.0449
25067W        W40876   0.845  12.429  14.033 -0.1555 -0.0111 -0.1823
25068W        W40877   2.207  17.344  12.589  0.0689 -0.1190  0.1462
25069W        W40878  10.048   1.479  12.450  0.1465  0.1921 -0.0640
25070W        W40879   7.026   7.558  11.930  0.1283  0.0019 -0.1097
25071W        W40880   7.711   4.068  12.943 -0.0556 -0.3631 -0.1213
25072W        W40881  11.805   3.220  12.906 -0.0616 -0.2343 -0.1990
25073W        W40882  14.457  17.473  13.198  0.2884  0.1978 -0.1763
25074W        W40883   4.051  15.516  14.083  0.0700  0.1229  0.0836
25075W        W40884  13.328  10.193   2.333 -0.0017 -0.2573  0.0293
25076W        W40885   8.216  17.409   3.805 -0.0862 -0.3172  0.1117
25077W        W40886   5.551   9.855  12.208  0.0607  0.2612  0.2018
25078W        W40887  16.853  15.433  13.869 -0.3155  0.3767 -0.0821
25079W        W40888   4.551   7.927   2.329 -0.0028  0.0402  0.0747
25080W        W40889   7.638   5.443   1.390 -0.0797 -0.0280  0.2506
25081W        W40890   7.048   0.834   0.636 -0.0675 -0.0465 -0.1425
25082W        W40891   2.074  12.940   5.884  0.0914  0.4211  0.0333
25083W        W40892  16.361   7.543  13.941  0.2278 -0.3016 -0.0778
25084W        W40893  15.651  11.374   2.597 -0.0193 -0.0049  0.2747
25085W        W40894   2.452   4.059   1.585  0.3404  0.3213 -0.2601
25086W        W40895  16.948  11.189  14.189 -0.0899 -0.0303  0.1704
25087W        W40896   8.968  13.437  12.792  0.2230 -0.0135 -0.3302
25088W        W40897   4.774   7.927  16.389 -0.1314 -0.0668  0.0866
25089W        W40898   0.698   1.439  13.964 -0.1675  0.1530 -0.0682
25090W        W40899  13.167  12.360  14.450  0.1019 -0.2526 -0.1404
25091W        W40900  12.267   0.462   6.313  0.0394 -0.0316 -0.1580
25092W        W40901  16.400   4.315   0.314  0.3171  0.0681 -0.1785
25093W        W40902  11.510   3.227   3.788  0.1616  0.0574  0.0307
25094W        W40903  11.168  14.120   2.526  0.0350  0.0116 -0.2211
25095W        W40904   2.339   4.126  14.939  0.1955 -0.1852 -0.0727
25096W        W40905   5.865   7.375   3.404 -0.2893  0.2819  0.0019
25097W        W40906   4.097  12.712   4.820  0.3478 -0.2591 -0.0538
25098W        W40907  17.959   3.028  11.526 -0.0554 -0.0898 -0.1146
25099W        W40908  15.305  13.362  13.071  0.0777  0.2290  0.0181
25100W        W40909   6.038   5.231   1.980 -0.1007  0.1924 -0.2259
25101W        W40910   9.024   6.665   0.770 -0.1110 -0.2810  0.2551
25102W        W40911  14.101  10.478   1.780 -0.1712 -0.0542  0.0748
25103W        W40912  10.283  17.222  11.994  0.3040 -0.1499 -0.0072
25104W        W40913  16.739   6.151   2.479 -0.1697 -0.0502 -0.1165
25105W        W40914   6.950   7.089  13.602 -0.0699  0.0103 -0.0088
25106W        W40915   2.194  11.310   2.733 -0.0236 -0.1133  0.2567
25107W        W40916   8.667  16.504   3.131 -0.3033  0.2146 -0.1873
25108W        W40917  12.888  13.483   6.026  0.1091  0.0126 -0.1680
25109W        W40918  14.174   7.746   4.892 -0.4826  0.3191  0.0324
25110W        W40919  14.981  13.163  12.727 -0.2183  0.3187  0.1514
25111W        W40920   0.010   5.152  12.254  0.1561  0.1951 -0.2459
25112W        W40921  12.654  13.697   0.104  0.1689  0.0179  0.0448
25113W        W40922  11.229  16.867   2.525 -0.0541  0.0325 -0.0414
25114W        W40923   3.508   4.408  15.160 -0.1422 -0.1196  0.1959
25115W        W40924  12.773   5.047  12.832 -0.2420 -0.0102 -0.0873
25116W        W40925   4.986  10.172   3.913  0.0606 -0.2239 -0.1019
25117W        W40926   3.997   3.197  14.816 -0.1747  0.0185  0.0664
25118W        W40927   8.602  17.516   2.563  0.0309  0.0732  0.1337
25119W        W40928  13.594  14.574   5.925  0.1542  0.1692 -0.0553
25120W        W40929   8.730   3.208   6.190  0.0714  0.0363  0.0683
25121W        W40930  14.946  13.382  13.514  0.2136 -0.2712 -0.0438
25122W        W40931   7.092   1.024   0.185 -0.0431 -0.2593  0.1597
25123W        W40932  13.734  13.064   0.337  0.0315 -0.2565  0.1699
25124W        W40933  14.204  13.126  13.079  0.1565  0.1850 -0.1465
25125W        W40934   5.104  13.442   3.593  0.3955 -0.1573 -0.1310
25126W        W40935   3.966  10.584  11.958 -0.0428 -0.3177 -0.3234
25127W        W40936  17.420   8.230  12.788 -0.0855 -0.2616 -0.0608
25128W        W40937   0.235   7.818  16.393  0.1982 -0.4162  0.1058
25129W        W40938   1.959   0.109   4.877  0.0097  0.0503 -0.3113
25130W        W40939   8.271  17.848   2.330 -0.0267  0.0166  0.1581
25131W        W40940  13.012   0.129  13.275 -0.0881 -0.1075 -0.1030
25132W        W40941   7.271   4.281  16.565  0.4282 -0.2154 -0.3081
25133W        W40942  13.603   2.486  16.446 -0.1544 -0.2494  0.0182
25134W        W40943  12.014   4.138  16.066 -0.0548 -0.1830  0.2194
25135W        W40944   0.149   9.260  12.513  0.2840  0.0166  0.1630
25136W        W40945   3.045  15.925   4.187 -0.1463 -0.1766  0.0557
25137W        W40946   8.445   4.715  13.346  0.0577 -0.0036  0.1336
25138W        W40947  12.345   4.763   1.039  0.1611  0.2889 -0.1100
25139W        W40948   9.981   6.310   0.301  0.2910 -0.1037  0.1414
25140W        W40949   0.202   0.290   4.744 -0.0198 -0.0548  0.2011
25141W        W40950  11.204   6.511   1.726  0.0471 -0.2632 -0.1870
25142W        W40951   9.636   1.746  12.161 -0.0409 -0.0630 -0.1392
25143W        W40952   1.357  16.007  15.917 -0.1953  0.0949 -0.1147
25144W        W40953  16.563  12.421  12.275 -0.2082  0.0859  0.0797
25145W        W40954   6.338  14.869  11.968 -0.0483  0.1919  0.0290
25146W        W40955   0.654  16.718   0.176  0.0818  0.2369 -0.0593
25147W        W40956   6.628   6.788   2.041  0.2204  0.0492  0.1781
25148W        W40957   0.271   0.392   3.195 -0.2436 -0.3359 -0.0858
25149W        W40958  10.337   6.317   5.822 -0.0781 -0.0522 -0.2260
25150W        W40959   7.862   8.622   1.870 -0.4338 -0.0991 -0.0928
25151W        W40960  16.773   1.868   4.694 -0.1135 -0.1361 -0.0399
25152W        W40961   8.656   5.395  15.877 -0.0639 -0.1052 -0.1580
25153W        W40962  13.730   7.394  15.416  0.1355  0.1067 -0.1733
25154W        W40963   2.592  14.913  12.059  0.0608 -0.1781  0.1483
25155W        W40964   3.168  14.353  15.069  0.0043  0.0409 -0.1034
25156W        W40965  15.279  12.721  13.858  0.1791 -0.2142 -0.1278
25157W        W40966   1.297  13.689  15.867 -0.0532  0.3215  0.2182
25158W        W40967   8.711  13.970  16.176  0.2331 -0.2707  0.0080
25159W        W40968   0.469  13.612   2.171  0.1574 -0.0630  0.0752
25160W        W40969  17.694  15.347  16.341  0.1334 -0.1260  0.3217
25161W        W40970  13.479   4.235   0.065  0.0988 -0.5220  0.0871
25162W        W40971  10.870   2.350  15.358 -0.0114  0.3606  0.1532
25163W        W40972   5.263  15.410  14.512 -0.0171  0.0070  0.0049
25164W        W40973  14.004  10.823   4.065 -0.1412  0.2947 -0.0798
25165W        W40974  11.686   8.547  14.308 -0.1566  0.0337 -0.0010
25166W        W40975  11.082  13.146  13.014 -0.1936 -0.0718  0.1643
25167W        W40976  14.443   8.255  13.343 -0.0912  0.2257  0.0466
25168W        W40977   1.408   8.430   3.934 -0.1138 -0.2029  0.1520
25169W        W40978   2.994  13.976  15.988  0.2515 -0.1662  0.0469
25170W        W40979  12.123  11.493   4.798 -0.1096  0.1565  0.0161
25171W        W40980   1.193  12.797  16.711  0.2466 -0.0402  0.1117
25172W        W40981  16.362   4.076   2.355  0.2303 -0.0712  0.1770
25173W        W40982   8.694  15.163   2.973  0.0688  0.3822 -0.1727
25174W        W40983  16.884  16.232  13.047 -0.0905  0.0982  0.0115
25175W        W40984   1.432  10.013  12.268  0.0078 -0.4111  0.4726
25176W        W40985  14.787  13.016  15.763  0.1496  0.1428 -0.1281
25177W        W40986  16.027  11.560  13.455 -0.0922 -0.0903  0.0683
25178W        W40987  16.824  16.559  10.863 -0.1670  0.1256 -0.3485
25179W        W40988  12.048  15.274   1.502 -0.3072 -0.1476 -0.1302
25180W        W40989  10.547  15.639  13.578  0.1501  0.0998 -0.0077
25181W        W40990   9.021   1.867   2.723 -0.2360 -0.2597  0.1517
25182W        W40991  17.475  11.380   3.066 -0.0591  0.0895 -0.0630
25183W        W40992   8.801  13.097   4.348  0.0958  0.2973 -0.0500
25184W        W40993   3.567  17.017   3.363 -0.0921 -0.1400 -0.3631
25185W        W40994   8.630  16.384   4.305  0.2892  0.0927 -0.3041
25186W        W40995  15.711   9.395   5.403  0.1329 -0.1945 -0.0246
25187W        W40996   8.476   2.030   1.516  0.1108 -0.2198  0.0656
25188W        W40997   9.831  11.029  16.355  0.0977  0.1356  0.0080
25189W        W40998   0.645   6.524   2.225  0.2661 -0.3912 -0.0299
25190W        W40999  12.566  15.688   3.811  0.0373 -0.0001 -0.0280
25191W        W41000   0.282   6.809  13.311  0.2480 -0.1723  0.0303
25192W        W41001   6.943  13.341   0.158  0.0363 -0.1150 -0.1333
25193W        W41002  10.236   2.162   4.197  0.2303 -0.1558  0.4326
25194W        W41003   6.000  16.982  13.430  0.2364  0.0560  0.0239
25195W        W41004  10.103  11.059   5.405  0.1446  0.0796  0.0469
25196W        W41005  10.880  11.721  13.954  0.0238 -0.1331  0.1683
25197W        W41006  17.751  12.503   1.850 -0.0868  0.0411 -0.1191
25198W        W41007   9.068  17.295  15.246  0.1522 -0.2401  0.0071
25199W        W41008  14.258   5.443   5.557 -0.1433 -0.0918 -0.2485
25200W        W41009   7.999   4.232  12.062  0.0517 -0.0343 -0.0045
25201W        W41010   0.151  17.185   3.231 -0.1871 -0.1149  0.0778
25202W        W41011  12.219  15.120   1.966 -0.0863 -0.0665  0.0266
25203W        W41012   6.612   7.558  15.722 -0.3368 -0.2424 -0.0505
25204W        W41013  10.631  14.549   4.879  0.1589  0.0619  0.2128
25205W        W41014  10.373   0.127   3.690 -0.0014 -0.0481 -0.0166
25206W        W41015   4.430   7.131  10.964  0.1102 -0.1240 -0.2589
25207W        W41016  16.692  15.136   0.505 -0.1027 -0.1067  0.0777
25208W        W41017   7.888   3.310  13.772 -0.1709  0.2055  0.0511
25209W        W41018  14.872  17.670   1.179 -0.0463 -0.1065  0.2455
25210W        W41019  16.684   9.636  13.581  0.1243 -0.0380  0.0829
25211W        W41020   5.044  17.930   3.293 -0.3953 -0.2349  0.2807
25212W        W41021   1.208   0.368   4.224 -0.0713 -0.2564  0.0112
25213W        W41022  15.804   0.092  14.855  0.2062 -0.0302  0.0477
25214W        W41023   6.104  11.410   4.540  0.2106 -0.1695 -0.2896
25215W        W41024   7.505   8.357  13.587 -0.0100 -0.0120  0.1332
25216W        W41025  12.302  10.654   4.028  0.0136 -0.1545 -0.1002
25217W        W41026  11.314   3.323   4.951 -0.1626  0.0802  0.0044
25218W        W41027  15.416   4.804   1.591  0.1686  0.1191 -0.2893
25219W        W41028   0.312   7.435   3.117  0.0110 -0.1636  0.1381
25220W        W41029  16.174   9.286   1.911 -0.2124  0.0392  0.0253
25221W        W41030  10.993  11.735  15.245  0.0227  0.1556  0.1373
25222W        W41031  15.345  16.210  13.586 -0.1653  0.0623  0.0720
25223W        W41032  14.305  16.219   3.020 -0.0922  0.3635  0.2011
25224W        W41033  15.544  15.627  16.543 -0.1185 -0.0409 -0.0157
25225W        W41034  10.637  14.803   5.846  0.0606  0.3560  0.0070
25226W        W41035   9.905  11.849   1.277 -0.3206  0.2544  0.1107
25227W        W41036  10.409   6.446  14.362 -0.2652  0.1424  0.5360
25228W        W41037   2.291   0.089  14.871 -0.0546 -0.1323  0.3033
25229W        W41038   4.481   6.775  14.440 -0.1049  0.1566 -0.1075
25230W        W41039   8.784   1.476  15.361 -0.3638 -0.0955  0.0604
25231W        W41040   6.909  10.533   4.008  0.1129 -0.0280  0.1673
25232W        W41041  13.049   6.015  12.745  0.3095 -0.0989  0.1449
25233W        W41042  15.485   3.059  15.566  0.0313 -0.0201 -0.0414
25234W        W41043   8.571  12.459  13.888 -0.4149 -0.1304  0.1617
25235W        W41044   0.001  10.819  14.827 -0.3599 -0.0682  0.1861
25236W        W41045  10.506   9.173   1.380 -0.0754 -0.0719  0.1998
25237W        W41046   8.689  10.054  15.248 -0.4050 -0.2433  0.0709
25238W        W41047   8.664  10.937  12.501 -0.1060 -0.1025 -0.0544
25239W        W41048   5.847   4.502  16.527 -0.0043 -0.1417 -0.1617
25240W        W41049   2.350   1.810  16.427 -0.1745 -0.1736 -0.2059
25241W        W41050   6.067  12.715  14.803 -0.1218  0.3322 -0.3028
25242W        W41051   8.991   9.379  15.769  0.1278 -0.2355  0.0145
25243W        W41052   1.059  17.410  15.676 -0.1849 -0.2537 -0.1362
25244W        W41053  16.496   5.071   0.630  0.0238 -0.1937  0.0545
25245W        W41054  15.313   3.989  14.641  0.2430 -0.1587 -0.1984
25246W        W41055  10.753   4.353  12.061  0.0530 -0.0389 -0.0548
25247W        W41056  12.047  14.243   5.755 -0.2245  0.6170  0.1415
25248W        W41057  15.048   3.349  15.118 -0.2371 -0.2095 -0.0491
25249W        W41058  15.858   1.841  11.301  0.4183  0.0663 -0.1866
25250W        W41059   8.906  11.310   1.233  0.1353 -0.4307  0.1548
25251W        W41060  11.088   3.811   0.219 -0.2016  0.0096 -0.2039
25252W        W41061  13.887   3.609  16.191  0.1543 -0.0005  0.3622
25253W        W41062   1.416   2.014  15.998  0.5754 -0.2232  0.1063
25254W        W41063   4.902  15.718   2.232  0.3399  0.1690 -0.0652
25255W        W41064   5.151  12.511  16.625 -0.1057 -0.0455 -0.1983
25256W        W41065  10.978   3.297  13.544 -0.5126 -0.3142 -0.4734
25257W        W41066   9.080  11.059  15.039 -0.0465  0.0899 -0.1263
25258W        W41067   1.201  10.276   0.556 -0.2350 -0.3874  0.2205
25259W        W41068   0.824   4.574   3.420  0.0749 -0.1922 -0.2535
25260W        W41069   6.672   3.395  15.333 -0.0593 -0.0489 -0.0206
25261W        W41070   0.601   4.722   4.207 -0.2355 -0.1966 -0.0463
25262W        W41071   7.574   1.270   3.264  0.2537 -0.0193  0.1646
25263W        W41072   3.920  15.317  15.379  0.0135  0.1078  0.0256
25264W        W41073   3.871  15.395   4.965 -0.1263  0.1018  0.0186
25265W        W41074   2.240   6.575   2.384 -0.0224  0.0748 -0.0492
25266W        W41075   6.417  15.426   1.239  0.0152  0.1094  0.0635
25267W        W41076  14.941  13.669  15.128 -0.0382 -0.4006 -0.1646
25268W        W41077  17.903   9.588   0.686  0.4150  0.1532 -0.0191
25269W        W41078   0.334   6.628   0.218 -0.1662 -0.1114 -0.0776
25270W        W41079   4.082  10.341   2.527 -0.0227  0.3356 -0.1434
25271W        W41080   6.003   1.121   2.805  0.3933  0.0436 -0.0815
25272W        W41081  14.923   0.776   2.801  0.2339  0.3752  0.1640
25273W        W41082   0.139   0.884  13.194 -0.1046 -0.3828  0.1818
25274W        W41083   5.638  12.940  13.478  0.1490 -0.1321  0.0209
25275W        W41084   5.719   5.769  11.797 -0.2646  0.0866 -0.0529
25276W        W41085   4.908  12.208   4.844  0.0219 -0.2465  0.2251
25277W        W41086  10.549   7.971   4.153  0.0915 -0.0098  0.1396
25278W        W41087   6.241   9.530   1.517  0.1836  0.0790 -0.0361
25279W        W41088   1.748   9.419  15.262  0.1734 -0.0133  0.0456
25280W        W41089   1.280  12.249   5.538  0.1106 -0.0192 -0.1687
25281W        W41090  11.073   1.406  11.762  0.0858 -0.3071  0.1754
25282W        W41091   1.959   1.847   0.043  0.1939 -0.1398  0.1550
25283W        W41092   2.007  13.960  14.469 -0.1097 -0.0020 -0.0376
25284W        W41093  12.507  14.581   3.133  0.0470  0.0226  0.0078
25285W        W41094   1.514  10.435  12.569 -0.2444 -0.1403  0.0699
25286W        W41095  11.966   5.190  12.910  0.2071 -0.2201  0.2161
25287W        W41096   8.962  12.000   1.172  0.3894  0.2885  0.2964
25288W        W41097  12.193   3.890   5.989 -0.1026  0.0087  0.2250
25289W        W41098  13.991  10.599  15.020 -0.0686 -0.2317  0.3022
25290W        W41099   1.940   1.892  11.503  0.3321  0.0000  0.2308
25291W        W41100   9.041  16.167  16.607 -0.3475 -0.0212  0.0235
25292W        W41101  16.172  10.767   3.886  0.1854 -0.2885  0.0360
25293W        W41102   2.255   8.341  14.979 -0.2484 -0.2770 -0.1764
25294W        W41103   5.842  12.589   4.712  0.0664  0.0161 -0.4476
25295W        W41104   0.616   0.568   4.738  0.0026 -0.0148 -0.1100
25296W        W41105  13.062   3.614   3.097 -0.1406 -0.1296  0.1691
25297W        W41106  17.755  13.632  15.741 -0.0380 -0.4714 -0.0339
25298W        W41107  15.320   1.602  14.924 -0.3570  0.0208  0.0794
25299W        W41108  16.122  15.023   0.364 -0.3410 -0.2663 -0.0318
25300W        W41109   4.274   8.934  13.049  0.4201  0.0327 -0.2385
25301W        W41110  13.637   8.065   4.813  0.1008 -0.2067 -0.3341
25302W        W41111   4.229  15.280  15.805 -0.0284  0.1486  0.3487
25303W        W41112  16.237  11.974  14.312  0.3366  0.1320  0.0642
25304W        W41113   0.292   0.203   0.426  0.2404  0.3001 -0.2316
25305W        W41114  11.881  11.602  13.722 -0.0341 -0.0791  0.0998
25306W        W41115   1.353   6.187   1.145 -0.1546 -0.1812  0.3382
25307W        W41116   0.501   6.663   3.993  0.1525 -0.1827  0.1190
25308W        W41117   2.298  13.557  12.997  0.0423 -0.0519  0.1639
25309W        W41118  13.395  15.968   1.622  0.2142  0.2019  0.0744
25310W        W41119   0.698  10.352   4.173 -0.1049 -0.0231 -0.0610
25311W        W41120   1.452   8.203   3.043  0.1262 -0.1204  0.1776
25312W        W41121  13.390  14.281  12.496 -0.0664  0.0486  0.1377
25313W        W41122   6.586   1.764  12.885  0.1898  0.1520  0.0802
25314W        W41123  16.417   7.696   2.285 -0.0792  0.2024  0.0301
25315W        W41124   1.428   7.866  12.618 -0.2522  0.0981 -0.1905
25316W        W41125   4.899  10.912  14.959 -0.2732  0.0111 -0.0143
25317W        W41126   9.017   7.508  12.347  0.1543 -0.1583 -0.4000
25318W        W41127  12.059   2.514  15.843  0.0194 -0.0836  0.1739
25319W        W41128  10.389  12.427   0.930 -0.0436  0.0612 -0.3494
25320W        W41129   1.238   4.530   1.237  0.1481 -0.0808  0.2959
25321W        W41130   1.103  11.901   1.966 -0.2346  0.0915 -0.0395
25322W        W41131   6.376   3.413  14.669 -0.0536  0.1814  0.3935
25323W        W41132  10.136   4.457   3.791 -0.0251  0.0471  0.1321
25324W        W41133   2.842   4.314  15.780 -0.0083 -0.0131  0.3123
25325W        W41134   8.730   7.273  13.567 -0.0288  0.0347 -0.0865
25326W        W41135  11.450   8.559   4.768  0.1385 -0.0588 -0.1644
25327W        W41136  16.386  11.304  12.333 -0.0070 -0.2726  0.0850
25328W        W41137  15.655  10.624  15.653  0.1254  0.1611 -0.3228
25329W        W41138   0.744   7.741  16.471  0.1039  0.1601  0.1825
25330W        W41139   7.199   0.999  14.996 -0.3533 -0.3847 -0.0643
25331W        W41140   2.399   2.474  14.014  0.2914 -0.1064 -0.1414
25332W        W41141  13.489   4.075  13.753  0.0732  0.2710 -0.1042
25333W        W41142   9.114  16.256   4.258 -0.2252  0.1572  0.0878
25334W        W41143   6.790   9.837  10.658 -0.2552 -0.1185  0.0013
25335W        W41144   7.206   9.251  14.000 -0.0174  0.1300 -0.3107
25336W        W41145   5.148  14.940   4.091 -0.0982 -0.1694  0.1195
25337W        W41146   0.526   2.806  15.809  0.1367 -0.3069  0.2103
25338W        W41147  15.245   4.418   2.794 -0.0926  0.0260  0.0283
25339W        W41148   6.652   0.673   2.867 -0.2394 -0.2697  0.0936
25340W        W41149  17.888   1.093   2.618 -0.1220 -0.0881  0.0562
25341W        W41150   1.501   3.637  11.071  0.1128  0.0870 -0.2208
25342W        W41151  12.440   4.716   2.590 -0.0755  0.3654 -0.1254
25343W        W41152  13.518   1.151   3.500  0.1200  0.1910 -0.0123
25344W        W41153   8.645  13.033   0.722  0.0825 -0.3574  0.2543
25345W        W41154  15.909  13.700   2.695  0.0845  0.0517 -0.0079
25346W        W41155  15.632   9.973  15.495 -0.2297 -0.0017  0.0423
25347W        W41156   5.873  13.226   6.073 -0.2560  0.0341 -0.3033
25348W        W41157   7.438  16.257   1.755 -0.1708 -0.2155  0.0268
25349W        W41158   2.691  12.001   5.377 -0.0230  0.0354 -0.0184
25350W        W41159  14.332  16.437  16.173  0.1583  0.0341  0.3992
25351W        W41160   0.219   1.519   5.572 -0.0447 -0.0700 -0.2482
25352W        W41161   3.332   7.441   4.880  0.1319 -0.0261  0.2704
25353W        W41162  10.805  14.621   3.721 -0.2637 -0.0125  0.1607
25354W        W41163   0.207   5.517  13.434  0.0978  0.0992  0.2297
25355W        W41164  14.369  11.799   5.306 -0.2039  0.0609  0.5762
25356W        W41165  10.312   0.501  16.113 -0.2012  0.1509 -0.0101
25357W        W41166  14.316   8.508  12.166 -0.1121 -0.0452 -0.1400
25358W        W41167   3.351  14.567  11.438  0.1557  0.2811 -0.0982
25359W        W41168   7.371  13.895   1.358 -0.0179 -0.3768  0.0960
25360W        W41169   8.524   1.804  14.142 -0.0272  0.0405  0.2188
25361W        W41170  10.487   9.523  14.271  0.1355 -0.2116 -0.0256
25362W        W41171   9.249  16.080   4.829  0.0156  0.0022 -0.2855
25363W        W41172   8.945   0.578  15.403  0.0063  0.1069 -0.0012
25364W        W41173   5.629  16.092   6.424 -0.1255  0.1576 -0.0870
25365W        W41174  16.854  13.806  13.455  0.1174  0.1322 -0.1091
25366W        W41175   2.528   6.105  14.356 -0.3568 -0.1917 -0.0595
25367W        W41176   5.226  15.095   3.463  0.0182 -0.0576  0.0435
25368W        W41177   2.209  16.199   0.106 -0.0656 -0.1106  0.0669
25369W        W41178  17.105   1.200  11.864 -0.2074 -0.0048  0.2510
25370W        W41179   7.700   0.145   4.509  0.1388  0.0105  0.1689
25371W        W41180   0.877   2.109   0.304 -0.3401 -0.4039 -0.2255
25372W        W41181   9.725  13.747  14.785 -0.0442 -0.3163  0.4074
25373W        W41182   8.682  12.155  16.211 -0.2947 -0.2588 -0.1581
25374W        W41183   1.888  11.626   2.273  0.0722 -0.0788 -0.0142
25375W        W41184   0.642  16.947  11.930 -0.0283 -0.1191  0.3081
25376W        W41185  12.668  10.254  15.419 -0.2403 -0.1720  0.0988
25377W        W41186   1.359   6.624   2.941  0.3011 -0.1178  0.1691
25378W        W41187   9.209   9.051  13.015 -0.3914  0.0241  0.0798
25379W        W41188   0.112   3.019  15.689 -0.1442 -0.0057 -0.1417
25380W        W41189   3.292  12.172   0.075  0.0773 -0.0919 -0.0229
25381W        W41190   9.217   6.936   4.100  0.1061  0.2494  0.0631
25382W        W41191  16.385   9.889  13.304  0.0464 -0.3126 -0.1326
25383W        W41192  17.175   2.118   4.597  0.0008  0.2734  0.0725
25384W        W41193  12.339  12.260   3.906 -0.2262  0.0007 -0.1297
25385W        W41194   6.018   5.980  12.304  0.0913 -0.5814  0.0656
25386W        W41195   0.538   8.086   0.569  0.1957 -0.0770  0.0611
25387W        W41196   2.743  11.478  14.023 -0.0543  0.0948 -0.1376
25388W        W41197  12.286   6.610  13.835 -0.1598 -0.0513  0.0152
25389W        W41198   7.331  15.218   4.383  0.1853  0.1998  0.0684
25390W        W41199  15.684   9.350  13.325  0.3048  0.1131 -0.0042
25391W        W41200   5.959  14.662  15.830  0.0251  0.1598 -0.1355
25392W        W41201   4.998   4.069  13.886 -0.2222  0.2102  0.1603
25393W        W41202   0.013   5.647  12.076 -0.0421  0.1454 -0.0397
25394W        W41203   6.356   1.007   1.422  0.0894 -0.1719 -0.1405
25395W        W41204   1.492  17.415   0.746 -0.1838  0.0749 -0.1039
25396W        W41205   2.298  14.713   5.658  0.2086 -0.1595  0.0491
25397W        W41206  13.633   0.854  14.014 -0.2097 -0.2195 -0.1263
25398W        W41207   4.225   0.817   5.506  0.0564 -0.2331 -0.1738
25399W        W41208  10.567   9.187  15.581  0.1674  0.0941 -0.4421
25400W        W41209  10.149  17.256  15.179 -0.0930  0.0632 -0.0583
25401W        W41210  11.484  17.267   4.895  0.0556 -0.2430 -0.1720
25402W        W41211   3.975   3.711   4.289  0.1664 -0.0305 -0.0769
25403W        W41212   2.162   0.252  15.752  0.1850  0.0757  0.1234
25404W        W41213   2.221   7.059   2.796  0.1298 -0.0476  0.1629
25405W        W41214  12.223   4.559   3.027  0.0219 -0.1778  0.2825
25406W        W41215   8.039   5.934   1.304  0.0110 -0.4161  0.2879
25407W        W41216   1.765  12.405  12.785 -0.1637  0.0277  0.1767
25408W        W41217   9.597   5.565   1.704 -0.1184  0.1686 -0.0096
25409W        W41218   7.404   5.802   2.482  0.2301  0.1910  0.0332
25410W        W41219   3.917  16.190  15.496  0.0646 -0.3335 -0.0979
25411W        W41220   1.474  11.205  11.838  0.0272  0.0152  0.0305
25412W        W41221  11.182  16.457   1.232 -0.0920 -0.1290 -0.1207
25413W        W41222   9.088   1.110  13.961  0.1609  0.0541  0.0192
25414W        W41223   5.209  17.956   5.145  0.0366 -0.0417 -0.0484
25415W        W41224   2.680   7.316   4.237 -0.1842 -0.2528 -0.2438
25416W        W41225   6.522  12.969  14.114  0.0242  0.0381  0.1428
25417W        W41226   6.762  17.171   5.723 -0.1610  0.1249 -0.1727
25418W        W41227   4.455  12.228  14.194 -0.0483  0.0405 -0.0670
25419W        W41228   6.728  12.172   4.534 -0.0845 -0.3072 -0.3082
25420W        W41229   1.689  12.615   3.444 -0.3732  0.0795 -0.0757
25421W        W41230  12.747  10.658   0.189  0.0030 -0.0480 -0.2113
25422W        W41231   0.235  11.203   3.059  0.1304  0.3103 -0.3982
25423W        W41232   8.535  10.649   2.118 -0.3002 -0.0245 -0.2131
25424W        W41233   4.095  17.188   3.295  0.1947 -0.0818 -0.0738
25425W        W41234  12.587   3.604   1.698  0.0220 -0.1711  0.1390
25426W        W41235   5.602   9.916  16.539 -0.1894 -0.1246  0.3695
25427W        W41236   2.013  15.053  13.821 -0.1038  0.1404  0.1695
25428W        W41237  14.403   3.899   1.128  0.2224 -0.0918 -0.1568
25429W        W41238  10.569  15.289  11.969  0.1887  0.0996  0.0987
25430W        W41239   2.337   7.243   4.590  0.1102  0.4956 -0.4718
25431W        W41240  10.421  17.515   5.528 -0.1705  0.0534  0.0200
25432W        W41241   3.545   1.959  11.924  0.1512  0.1207 -0.0258
25433W        W41242  16.931   0.156   4.179  0.0667 -0.0772  0.0199
25434W        W41243   3.350  12.221  14.738 -0.2060  0.0055 -0.0534
25435W        W41244  17.518  15.629   4.117 -0.0599 -0.3419 -0.0864
25436W        W41245   1.149  13.431   5.126 -0.1351  0.1366 -0.0143
25437W        W41246   2.395   3.318   1.142  0.1254 -0.0775 -0.0749
25438W        W41247  11.046  15.551   3.568  0.1257  0.0804 -0.3127
25439W        W41248   8.720  17.263   3.828 -0.0937  0.2574  0.0481
25440W        W41249  12.706  12.819  15.373 -0.1595 -0.0744  0.2657
25441W        W41250   7.637   9.466   5.302  0.1895 -0.1820 -0.0352
25442W        W41251   5.455  12.962  11.084 -0.2006  0.1797  0.1746
25443W        W41252  13.485   5.758   3.443  0.2076 -0.0653 -0.1217
25444W        W41253  17.018   2.125   2.764 -0.2318  0.1419 -0.5886
25445W        W41254  10.496  11.372  11.995 -0.0555  0.1794  0.3385
25446W        W41255   5.914  15.943  15.379  0.1064  0.1793 -0.1586
25447W        W41256  17.371   8.038   1.320  0.0291  0.0957  0.1049
25448W        W41257   4.886  14.259   2.823  0.2179 -0.0928  0.1790
25449W        W41258  11.202  14.767   2.416  0.0562 -0.0744 -0.1108
25450W        W41259   2.254   4.114   4.944  0.4242 -0.2030  0.0785
25451W        W41260  13.053   6.428  16.164 -0.2211  0.0927 -0.0098
25452W        W41261   1.037   6.936   0.281  0.1230 -0.3488  0.1135
25453W        W41262  13.073   6.486  14.005 -0.1265 -0.0337  0.0883
25454W        W41263  16.075  12.471  12.942  0.0265  0.1067  0.4430
25455W        W41264   1.017   3.664  13.905 -0.1430 -0.2029 -0.2186
25456W        W41265  12.568   7.876   4.900 -0.1033 -0.0932  0.0401
25457W        W41266  17.199   1.042   1.752  0.1427 -0.0080 -0.2016
25458W        W41267   1.845  14.376   0.746  0.0718 -0.1549 -0.1243
25459W        W41268  16.950   2.282   3.666  0.2772  0.0661 -0.2408
25460W        W41269   6.698   7.223   1.825  0.1309  0.0459 -0.1911
25461W        W41270   4.825   2.191   0.267  0.3191 -0.3155  0.0620
25462W        W41271  10.367   3.061   0.382 -0.1246  0.0125 -0.0385
25463W        W41272  10.520   8.570  10.886  0.1625 -0.3045 -0.0259
25464W        W41273   8.492   1.183   4.519  0.0573 -0.2108  0.2188
25465W        W41274   2.516  15.913  14.427 -0.1378 -0.0482  0.3624
25466W        W41275  12.599   8.940   1.014  0.0107  0.2559 -0.2285
25467W        W41276  17.120   6.167   5.908 -0.1837 -0.0114 -0.0825
25468W        W41277   4.301  16.079  12.400  0.2132  0.0335  0.3024
25469W        W41278  17.408   6.190   0.795 -0.2200  0.0898 -0.4190
25470W        W41279  15.159  15.127   0.967 -0.1421 -0.1933 -0.2357
25471W        W41280   5.192   7.027  11.270  0.0222  0.1826  0.0223
25472W        W41281   1.774   7.140  15.535  0.0956  0.2059 -0.0960
25473W        W41282   4.391   2.416  14.262 -0.0432 -0.2238  0.2126
25474W        W41283   3.271   9.910   1.257  0.3205 -0.0894 -0.2187
25475W        W41284   4.694  15.905  16.212 -0.1347  0.0989  0.2059
25476W        W41285   6.816   2.058   4.224  0.2010 -0.1452 -0.0906
25477W        W41286   0.134  13.175  11.062 -0.1572  0.0896 -0.0696
25478W        W41287  11.846  17.735   1.475  0.1544 -0.0876  0.1956
25479W        W41288   3.890   1.666   1.634  0.0625  0.1503  0.1416
25480W        W41289   4.057  17.355   5.655 -0.1446  0.3152 -0.1845
25481W        W41290   6.039   5.205   0.802 -0.0699  0.4171  0.0734
25482W        W41291  13.379   4.960   2.799 -0.5117  0.1805 -0.3128
25483W        W41292  13.636   9.269  14.432  0.2683 -0.1285  0.0654
25484W        W41293   4.344  17.595   3.186  0.2609  0.0881 -0.1481
25485W        W41294   6.957   2.570  14.763  0.0859 -0.0444  0.2007
25486W        W41295   6.566  15.024   1.736  0.0656 -0.0462  0.1328
25487W        W41296   8.066   8.119   0.307  0.3090 -0.0816 -0.1290
25488W        W41297   8.377  13.323   4.538 -0.0562 -0.0175 -0.3228
25489W        W41298  13.114   6.252   2.319 -0.3760  0.0248 -0.2443
25490W        W41299   8.108   3.949   4.050 -0.0023 -0.1393  0.2618
25491W        W41300  14.141  17.234   3.957 -0.2682 -0.0422 -0.1983
25492W        W41301   5.362   9.454   3.515  0.0236 -0.1236 -0.0404
25493W        W41302   7.236   3.894   0.274  0.1004  0.0310 -0.0621
25494W        W41303   7.988  11.031  13.208 -0.3233 -0.1161  0.0797
25495W        W41304   8.023  10.926   1.269 -0.1077 -0.1146  0.1621
25496W        W41305   8.888  15.103   4.650 -0.1202 -0.0326  0.1627
25497W        W41306  14.931  14.663  16.645 -0.0701 -0.0771  0.0895
25498W        W41307  10.839  13.275   1.172  0.1129 -0.3083  0.1088
25499W        W41308   2.603   4.434  14.199 -0.2755  0.0909  0.0755
25500W        W41309  12.752   2.113   0.540  0.0337 -0.2332 -0.2182
25501W        W41310   4.593  12.947   1.880 -0.0950 -0.2415  0.0697
25502W        W41311   6.547  11.870   6.188  0.0102 -0.0604  0.3704
25503W        W41312   8.792  16.684  16.158  0.2703 -0.3097 -0.0908
25504W        W41313  17.730  17.117   2.479 -0.0974 -0.3005 -0.1623
25505W        W41314  10.376  16.716  12.791 -0.2197 -0.1946  0.2399
25506W        W41315  11.950   6.050   4.831 -0.1778  0.3037 -0.0990
25507W        W41316   4.777   5.439  15.609  0.0190  0.1444 -0.2027
25508W        W41317  12.124   9.372  14.561  0.0960  0.2753  0.1764
25509W        W41318   4.030   7.525   0.316 -0.0119 -0.3294  0.1187
25510W        W41319  14.249   2.354   2.629 -0.1580 -0.2122  0.1230
25511W        W41320  11.197  14.103   3.746 -0.0206  0.6788  0.0973
25512W        W41321  17.845  16.594  14.757  0.0960  0.1988  0.1567
25513W        W41322  13.176  13.121   1.252  0.1761  0.1619  0.2071
25514W        W41323   2.290   2.151   0.276 -0.0791 -0.2220  0.0882
25515W        W41324  12.397   0.352   1.808 -0.0891 -0.2227  0.4047
25516W        W41325  13.776   1.454  11.477  0.2975 -0.0570  0.4818
25517W        W41326   2.990   0.699  14.790 -0.0820  0.0147  0.1565
25518W        W41327  11.503   4.639   1.496 -0.0324  0.0596  0.1995
25519W        W41328  15.078   0.861   0.149  0.0182 -0.0626  0.0371
25520W        W41329   3.983  16.628   0.453  0.4661 -0.0435  0.0973
25521W        W41330  10.965   5.808  15.885 -0.2494  0.1717  0.0505
25522W        W41331   6.996   3.097  15.954  0.4718 -0.0611  0.2479
25523W        W41332  13.430   3.215   3.079 -0.0471  0.1510 -0.1412
25524W        W41333   1.753   7.302  11.960  0.0876  0.2397  0.3287
25525W        W41334   2.325   6.771  15.114 -0.2057  0.1195 -0.5177
25526W        W41335  12.441  16.024  12.900 -0.0303  0.3313  0.0718
25527W        W41336   0.398   2.414  11.904 -0.0472 -0.0203  0.0370
25528W        W41337   7.924  15.872  14.874  0.1953  0.3189  0.1842
25529W        W41338  13.131   8.970  16.253  0.1173 -0.0920 -0.1344
25530W        W41339  11.572  13.110  16.279  0.1971  0.3016 -0.1669
25531W        W41340  14.993  11.206  16.247 -0.1380  0.1211  0.1687
25532W        W41341   1.288  14.541   5.549 -0.1952  0.2495 -0.0172
25533W        W41342  11.249  11.554  13.113  0.1060  0.0641 -0.1153
25534W        W41343   4.478  16.907   6.310 -0.0498 -0.0724  0.1936
25535W        W41344   9.966   3.784   4.532 -0.3679  0.0680  0.2341
25536W        W41345   3.873   9.092   3.005 -0.2824 -0.1417  0.2290
25537W        W41346  12.131   8.769  12.246  0.2007  0.2814 -0.1530
25538W        W41347   7.693  13.822  12.359 -0.0446 -0.0431 -0.1057
25539W        W41348  15.548   1.944   3.809 -0.1035 -0.0146  0.0787
25540W        W41349   2.602  11.984  13.888 -0.2867 -0.4904 -0.1086
25541W        W41350   1.924  10.355  12.858  0.1644  0.1123 -0.0486
25542W        W41351   6.589  15.360   3.825 -0.0560 -0.2704  0.0829
25543W        W41352   8.137  12.884  11.233 -0.0932  0.2607 -0.0343
25544W        W41353   4.774  13.113  12.365  0.2983  0.0016  0.0210
25545W        W41354  10.171   9.515   2.120  0.2886 -0.1319  0.0105
25546W        W41355   9.995  10.939   1.258 -0.2654  0.1288 -0.0151
25547W        W41356   8.564   2.400   1.174 -0.1439 -0.0086 -0.0098
25548W        W41357   0.364   5.502   5.112 -0.0913 -0.0124  0.1983
25549W        W41358  15.081   2.418  13.618  0.3824 -0.1958  0.3094
25550W        W41359   4.457   4.266   0.606 -0.1754 -0.0624 -0.2326
25551W        W41360   7.670  14.206  14.954 -0.1175 -0.1149  0.1066
25552W        W41361   4.368   6.337   3.046  0.1073  0.0649 -0.4726
25553W        W41362  15.525  12.544   4.012 -0.0727 -0.1306  0.1591
25554W        W41363  15.929   9.699  14.639  0.1363  0.1608 -0.1597
25555W        W41364  13.464   0.066  12.188  0.1275  0.1944 -0.0834
25556W        W41365   8.534  11.051   2.394 -0.0002  0.0010  0.0410
25557W        W41366   9.088  14.340   4.126  0.0141 -0.2645  0.1584
25558W        W41367  17.679  15.513  15.433 -0.0110  0.1019  0.2937
25559W        W41368  10.199   5.283   2.195  0.2775  0.3173  0.0266
25560W        W41369   5.922  11.761  13.867  0.0901 -0.1674 -0.0448
25561W        W41370   7.610   2.522   3.801  0.1726  0.1549  0.2353
25562W        W41371  11.709  14.994   4.588 -0.1946 -0.0840  0.2441
25563W        W41372   3.861  15.207   0.470 -0.2602  0.0475  0.2179
25564W        W41373   3.711   6.370  14.927 -0.0258  0.0610  0.0836
25565W        W41374  14.493  12.474   4.762 -0.1205  0.2761  0.0567
25566W        W41375  15.519   1.225   3.345 -0.1577  0.0671 -0.1516
25567W        W41376   2.805  13.598   3.946 -0.4093  0.1734 -0.0682
25568W        W41377  10.531  12.378  13.394 -0.0178  0.2368 -0.2597
25569W        W41378   1.661   9.578   4.769  0.2666  0.2121  0.1007
25570W        W41379  12.337   8.401   5.105 -0.5305 -0.2471 -0.2287
25571W        W41380   3.853   1.170   1.501  0.0031 -0.1607 -0.0992
25572W        W41381  14.821  10.623   0.680 -0.2234  0.1079 -0.1007
25573W        W41382  14.275  11.465  14.936 -0.3415  0.0626 -0.2941
25574W        W41383   0.369  12.615  15.149  0.3999  0.0553 -0.0452
25575W        W41384  11.783  10.527   2.247  0.1346 -0.2795  0.0492
25576W        W41385  12.662   9.437   1.062  0.0791  0.0782 -0.0537
25577W        W41386   6.852   6.316   2.116  0.0093 -0.2284  0.0055
25578W        W41387   9.199  10.175   2.569  0.0583  0.1250  0.2103
25579W        W41388  17.024   7.586   5.475  0.1872 -0.2771  0.0346
25580W        W41389  11.435  12.292  12.536  0.1616 -0.1688  0.0411
25581W        W41390   1.049  15.687   0.416  0.2534  0.0500 -0.1003
25582W        W41391   6.905   6.797   5.029  0.0766  0.0478 -0.0343
25583W        W41392   6.088   1.587   0.859  0.0948 -0.1637  0.1308
25584W        W41393  10.724   1.234   5.026  0.2905 -0.1799  0.2986
25585W        W41394   4.328   5.734  13.206  0.1473  0.0762 -0.1327
25586W        W41395  15.518   7.467   1.443 -0.0871 -0.1194 -0.4078
25587W        W41396   3.924   0.641  10.984 -0.0109 -0.1257  0.1169
25588W        W41397   5.975  14.053  15.234  0.0657 -0.0520  0.0997
25589W        W41398  16.741   0.491  13.880  0.2478 -0.1980  0.1632
25590W        W41399   3.987   3.472  12.936 -0.1002  0.2472 -0.1872
25591W        W41400   4.549   5.985  13.954  0.0308  0.0325  0.0495
25592W        W41401  16.169  10.998   0.130  0.1865  0.4740 -0.1007
25593W        W41402   3.933   0.436  14.026  0.0257 -0.0971  0.0318
25594W        W41403  16.886  16.078   0.064  0.0612  0.1167  0.1750
25595W        W41404   7.881   6.240   4.115 -0.1472 -0.2228 -0.1745
25596W        W41405  16.552   4.349  13.161  0.0782 -0.2529  0.1052
25597W        W41406   6.316  11.951   3.551 -0.2330 -0.3653 -0.2287
25598W        W41407   7.602  15.187   0.516  0.1792  0.0632 -0.2745
25599W        W41408  12.951   3.113   2.878 -0.0035  0.0280  0.2423
25600W        W41409   8.754   4.446   0.992 -0.1986 -0.0138 -0.1272
25601W        W41410  16.828   9.416   0.947 -0.0774 -0.0341  0.3997
25602W        W41411   9.313   7.491  11.956 -0.3054  0.1485  0.3900
25603W        W41412  14.414   3.852   0.236 -0.0575  0.4614 -0.1687
25604W        W41413   5.664   7.063   0.740  0.2583 -0.1838 -0.2512
25605W        W41414   4.492  17.723  14.495  0.1460 -0.0523  0.1566
25606W        W41415  12.926  13.578  13.791  0.1780 -0.0954 -0.1371
25607W        W41416  16.976  11.306  15.535 -0.2244  0.0350  0.1453
25608W        W41417   7.692   7.592  13.014 -0.2215  0.0002 -0.2363
25609W        W41418  10.945   0.460  14.509 -0.1191  0.1025 -0.1049
25610W        W41419   5.905  10.399   1.773 -0.0593  0.0277  0.3360
25611W        W41420  12.387  11.163   6.544 -0.0420 -0.1602 -0.2428
25612W        W41421   7.330   2.934   3.934 -0.0534 -0.0931  0.2034
25613W        W41422  10.435   8.152  16.670  0.2570  0.2212  0.1669
25614W        W41423  14.587  14.224   1.333  0.0317 -0.0616 -0.1377
25615W        W41424   8.828  11.535   2.211 -0.0475 -0.0560 -0.2996
25616W        W41425   4.334   5.037   1.256 -0.0456 -0.1832 -0.2045
25617W        W41426  12.124  16.785   4.529  0.2534 -0.2924  0.2061
25618W        W41427  14.095   0.287  15.217  0.0763  0.1212 -0.0983
25619W        W41428  14.936  16.639  12.504 -0.1398  0.0426 -0.4466
25620W        W41429   4.018  15.835  12.748 -0.1736  0.0011  0.0325
25621W        W41430  10.758  12.735  11.688  0.0240 -0.0011 -0.0939
25622W        W41431  13.069   6.305   5.294 -0.3496  0.0554  0.1180
25623W        W41432  12.844   5.816   4.389  0.2214 -0.4466 -0.1308
25624W        W41433   7.377   1.832  13.244 -0.1151  0.0587  0.2453
25625W        W41434  12.386   5.089   1.511 -0.0848  0.1199 -0.0896
25626W        W41435   2.756   7.538  11.046  0.2784 -0.1133 -0.2884
25627W        W41436   4.210   1.642   5.431  0.0350  0.1149 -0.0200
25628W        W41437  14.527  13.830  11.120  0.1864  0.1120  0.1677
25629W        W41438  14.317   1.976  13.402 -0.0491  0.2319  0.0838
25630W        W41439   0.905  17.346  13.983 -0.4012 -0.1317 -0.1233
25631W        W41440  16.790   0.049  13.997 -0.0649  0.0619 -0.1137
25632W        W41441   9.183  12.430   1.136 -0.0208  0.0287  0.0222
25633W        W41442   8.916   1.285   0.304  0.1530 -0.1311  0.0939
25634W        W41443  12.444   4.901  14.658 -0.0096  0.0726  0.2468
25635W        W41444   2.657   4.013  11.887  0.0135 -0.1255 -0.1741
25636W        W41445   4.046   6.817  10.648  0.1471  0.3578  0.1543
25637W        W41446   3.016  16.923   2.810 -0.0185  0.1342  0.0831
25638W        W41447   4.963   4.385   5.442  0.0883  0.2448 -0.0538
25639W        W41448   1.245   0.618  10.764  0.0746  0.0141 -0.1943
25640W        W41449   2.732  16.548  14.603 -0.0162 -0.0011  0.1167
25641W        W41450   6.529   1.293  15.576 -0.1718  0.2843 -0.0844
25642W        W41451   4.993   3.547  11.580  0.2158 -0.1478 -0.0326
25643W        W41452  12.068   5.361  15.456 -0.2322 -0.2000  0.0050
25644W        W41453   6.393   4.647  15.372 -0.1135 -0.0880 -0.2005
25645W        W41454   1.524  17.041   3.433 -0.0264 -0.0598 -0.0754
25646W        W41455   6.545   2.050  13.716  0.2823  0.0573  0.0972
25647W        W41456  16.236   2.792   4.776 -0.0541  0.4589 -0.3711
25648W        W41457  15.402   6.142   3.323  0.1415 -0.3390  0.2030
25649W        W41458  13.886   9.701  14.560 -0.1392 -0.0315  0.0262
25650W        W41459   0.721   4.736   0.874  0.0824  0.0373 -0.0965
25651W        W41460   1.353  12.241   6.170 -0.0459 -0.1978 -0.0217
25652W        W41461   6.319  12.926  11.240  0.0029 -0.0963 -0.0021
25653W        W41462  11.275   8.462   1.151  0.2335 -0.2344 -0.0527
25654W        W41463  10.820   5.663  15.387  0.0921  0.0153 -0.0199
25655W        W41464  14.284   2.414  15.248 -0.0060 -0.0799  0.0606
25656W        W41465  12.753  11.170   3.646 -0.1042 -0.1730  0.1419
25657W        W41466  16.233   9.222   5.547  0.0589  0.1552 -0.0142
25658W        W41467  17.014   4.887   0.260 -0.2235  0.0920  0.0772
25659W        W41468   9.282  17.835  15.829  0.2068  0.1124 -0.0273
25660W        W41469   4.400   7.627   5.601 -0.0068  0.0900  0.2303
25661W        W41470   0.074  13.479   4.089  0.0200  0.0839 -0.0905
25662W        W41471   2.969  12.824   3.680 -0.0520  0.1398  0.1458
25663W        W41472   3.568  16.079   1.286 -0.0985 -0.2097 -0.0890
25664W        W41473  17.916   4.759  16.240  0.1331  0.1314  0.1271
25665W        W41474   4.678  12.492   2.135 -0.2322 -0.1016 -0.0721
25666W        W41475   6.157  11.624  14.385  0.4995 -0.2050 -0.1452
25667W        W41476   9.792   1.464   1.555 -0.0281 -0.1927 -0.0772
25668W        W41477  11.631  15.056   1.344 -0.0485 -0.1267  0.0880
25669W        W41478   5.960  12.312  10.808  0.1447  0.1771 -0.0925
25670W        W41479   4.026  16.624   3.583  0.2912  0.0979  0.0463
25671W        W41480  13.008  12.574  13.793 -0.2053 -0.0408  0.0120
25672W        W41481   0.711  11.698   4.771  0.1057  0.0726 -0.1052
25673W        W41482   3.051   1.240   2.379 -0.0738  0.0698  0.1771
25674W        W41483  10.964  17.663   5.336 -0.0416 -0.0768  0.0190
25675W        W41484   4.684   1.732   5.269  0.1018 -0.2005  0.1245
25676W        W41485  17.410   0.079   5.626 -0.0493 -0.3484 -0.2145
25677W        W41486  17.007  17.707   2.674  0.1499 -0.0407 -0.0982
25678W        W41487   3.785  13.512  13.557  0.0425 -0.0438 -0.0724
25679W        W41488  16.300  12.944  13.085  0.2017  0.0420  0.0570
25680W        W41489  11.321  10.003   3.359 -0.2296  0.1159  0.0790
25681W        W41490  14.676   8.366   2.290  0.0820  0.1918  0.0981
25682W        W41491   0.827  15.465   3.593 -0.0299 -0.1128 -0.0511
25683W        W41492  17.299   7.628   5.040 -0.0080  0.2121  0.0645
25684W        W41493  12.734   9.623   2.894 -0.2013  0.0216 -0.0764
25685W        W41494  16.523   5.914  12.793 -0.0472 -0.1303 -0.0612
25686W        W41495  17.613   4.154   0.961 -0.1395  0.0146 -0.0968
25687W        W41496   1.171  15.705  16.580  0.0475  0.1535 -0.0476
25688W        W41497  14.058   6.975  11.789  0.0902  0.0494 -0.0560
25689W        W41498   6.654   6.588  11.679 -0.1142 -0.0273 -0.1687
25690W        W41499   6.414   0.815   2.440 -0.1040  0.0722 -0.2377
25691W        W41500   9.552   9.350   3.878  0.3518 -0.2253  0.0168
25692W        W41501   3.296   4.307   3.329  0.1240 -0.1978  0.2200
25693W        W41502  13.507  11.893  12.620  0.0352  0.3069 -0.0999
25694W        W41503   8.628  12.461  14.862  0.1623 -0.1908  0.0978
25695W        W41504  14.343   0.153   2.282 -0.2978 -0.2848  0.0956
25696W        W41505  10.890  14.606   6.815 -0.0910  0.1807 -0.2245
25697W        W41506   3.196  10.350  12.552 -0.1091  0.5191  0.2544
25698W        W41507   7.410   6.854   4.881 -0.2618  0.1333  0.1700
25699W        W41508  17.574  11.071  15.037 -0.2122  0.2280 -0.0351
25700W        W41509   7.681  17.104  14.290 -0.0392  0.2000  0.1026
25701W        W41510   9.428   7.219   5.687 -0.0712 -0.0660  0.1346
25702W        W41511  14.529   4.925  15.511 -0.2378  0.3981  0.1559
25703W        W41512  12.533   4.367  14.821 -0.2195 -0.2101  0.0483
25704W        W41513  16.699  12.083  14.032 -0.1417  0.0192 -0.0211
25705W        W41514   7.913   8.822   4.428  0.0666  0.0436  0.1144
25706W        W41515  11.846   6.100  15.782  0.1136 -0.0274  0.0628
25707W        W41516  11.523   9.369  15.288 -0.0323  0.0867 -0.0067
25708W        W41517   8.111  10.362   0.702 -0.3504  0.1792  0.0239
25709W        W41518  16.420   8.871  16.201 -0.0549 -0.1856 -0.3334
25710W        W41519  11.408  13.672   4.209 -0.1012  0.1491  0.0102
25711W        W41520   0.608  12.139  15.315 -0.3794 -0.3684 -0.0023
25712W        W41521   2.032   7.865  13.533 -0.2230  0.1676 -0.0385
25713W        W41522   7.647   6.107   2.113  0.0055  0.1558  0.1399
25714W        W41523   9.781   0.462   4.825  0.0079 -0.2008  0.3737
25715W        W41524   1.513   2.889  16.019  0.1164 -0.0555 -0.4082
25716W        W41525  16.908   5.183   2.413  0.1261  0.2496  0.3925
25717W        W41526  16.753   6.754   2.745 -0.0169 -0.2431 -0.2633
25718W        W41527  17.553   4.804   5.230  0.2415  0.1605  0.2066
25719W        W41528  13.312  15.368   0.804 -0.1080  0.2847  0.0531
25720W        W41529   7.337  16.951   0.083  0.2332  0.2131 -0.2933
25721W        W41530  17.749   8.398   0.438 -0.1572 -0.0077  0.0140
25722W        W41531   6.712   6.293   4.312 -0.3903 -0.0758  0.0312
25723W        W41532   2.140   9.267   2.391 -0.0066 -0.3490 -0.1368
25724W        W41533   5.583   0.870   3.560  0.0904  0.1903  0.4178
25725W        W41534  17.785  16.237  12.507  0.1001  0.0420 -0.0913
25726W        W41535  12.823   2.884   2.467 -0.1956 -0.2513  0.0239
25727W        W41536   6.156  15.041   2.535 -0.1168 -0.2243  0.1972
25728W        W41537  13.481   9.513  12.489  0.0665 -0.0353 -0.1333
25729W        W41538   7.501   2.967  13.949 -0.0963 -0.1639  0.3065
25730W        W41539  13.116   5.867  14.713  0.1845  0.0298  0.0975
25731W        W41540   3.135  16.591   2.501 -0.3714 -0.3677 -0.1433
25732W        W41541   4.984  17.848  12.045  0.3779  0.1255  0.0410
25733W        W41542   7.559  17.265   4.442  0.1272 -0.0996  0.2499
25734W        W41543   3.660  17.171   4.828 -0.0466  0.1103 -0.3176
25735W        W41544  13.055  11.736  16.083  0.0534  0.0881 -0.2860
25736W        W41545   4.736  15.420   2.733  0.1727 -0.2162 -0.0306
25737W        W41546   8.391   3.300  14.201  0.0653  0.1056 -0.0452
25738W        W41547   1.826  10.499   3.150 -0.2441  0.1505  0.2211
25739W        W41548   2.457  17.050   4.093  0.1703  0.3160 -0.4068
25740W        W41549   0.655  16.068   1.814 -0.2231 -0.0521  0.1169
25741W        W41550  15.251  12.706   5.878 -0.0664  0.0773  0.1633
25742W        W41551   9.692   7.382   5.210 -0.1069 -0.2521  0.4238
25743W        W41552  15.789   8.276   2.319  0.1160  0.0549  0.1376
25744W        W41553  14.645   8.343   1.132  0.5189  0.0822 -0.1983
25745W        W41554  13.408   3.755   2.231 -0.1830 -0.2749 -0.0850
25746W        W41555  11.770   1.266   4.699  0.1099 -0.1188 -0.2016
25747W        W41556  12.754  17.213   3.215  0.1181 -0.0298 -0.0522
25748W        W41557  10.226  11.544  11.498 -0.0774  0.0687 -0.0957
25749W        W41558   6.538  14.241  14.118 -0.1401 -0.0801 -0.2701
25750W        W41559   3.633  13.320  11.666  0.0716 -0.2918 -0.1339
25751W        W41560  12.963  14.303   5.440 -0.2348  0.0581  0.2831
25752W        W41561   6.127  16.118   2.260  0.1281  0.2572  0.0591
25753W        W41562   3.950  16.396  14.509 -0.2208  0.0699  0.0594
25754W        W41563  17.618   8.983  15.360 -0.3040 -0.1793 -0.1748
25755W        W41564  15.002  15.184   4.986  0.0716 -0.1687  0.0413
25756W        W41565  11.925   8.732   0.473  0.2082 -0.0204  0.0383
25757W        W41566   4.619  11.943  15.013  0.0557 -0.0564  0.0366
25758W        W41567   8.796   1.568  13.253  0.1234 -0.0154 -0.2682
25759W        W41568   6.909  16.398  16.441  0.1469 -0.1040  0.3232
25760W        W41569  13.003  17.312  13.114 -0.2388 -0.0187  0.1708
25761W        W41570  13.583  14.161  13.322  0.1039  0.1134 -0.1048
25762W        W41571   4.437   1.064  15.256  0.0566 -0.0066 -0.1356
25763W        W41572  17.476   2.327   3.605 -0.1489  0.1832 -0.0435
25764W        W41573   6.153   6.823  13.408 -0.2487 -0.1765  0.1470
25765W        W41574   6.668   3.722   4.999 -0.2378  0.3747 -0.0801
25766W        W41575   4.562  12.018  13.570 -0.0405 -0.0500  0.2985
25767W        W41576  11.702  15.673   2.457  0.1541  0.2857 -0.1206
25768W        W41577  11.233   2.500  14.567 -0.3595 -0.0619 -0.2259
25769W        W41578   4.518  17.399   1.266 -0.0211  0.0917  0.2196
25770W        W41579  14.103  14.512   2.429  0.1947 -0.1525 -0.0322
25771W        W41580  11.455   4.513  13.155 -0.0110 -0.0261  0.0327
25772W        W41581   9.301  14.428  14.253 -0.0943  0.1798 -0.1168
25773W        W41582   8.484  16.891   4.109 -0.0422 -0.0343  0.1136
25774W        W41583   7.431   5.077  13.693 -0.2182 -0.0210 -0.0549
25775W        W41584  15.780   9.740  11.617 -0.0031 -0.1269 -0.1382
25776W        W41585  13.734  15.480  11.934 -0.1842 -0.3300 -0.1477
25777W        W41586  14.798  14.835   6.249  0.2583 -0.2752 -0.0681
25778W        W41587   1.656   4.016   1.969  0.1955 -0.0454 -0.3255
25779W        W41588  15.999  14.646   2.586 -0.6186  0.0724  0.1134
25780W        W41589   3.062   4.871   5.545  0.1817  0.0755  0.1148
25781W        W41590  14.347   8.143  12.485 -0.3075 -0.2521  0.2503
25782W        W41591  15.005   7.197  15.952 -0.0691 -0.0889 -0.0617
25783W        W41592   0.921   5.561  11.741  0.1650 -0.1921 -0.1881
25784W        W41593   9.935   0.424   1.749 -0.1848 -0.1488 -0.1525
25785W        W41594   7.420   7.729   2.064  0.1731 -0.0658  0.2821
25786W        W41595  15.928   7.707   2.361  0.2703 -0.0748 -0.0404
25787W        W41596   2.303   4.078  13.165 -0.3350  0.1639 -0.0524
25788W        W41597   6.417  11.554   1.574  0.0060  0.2115 -0.0355
25789W        W41598   7.640   0.805  12.868 -0.2047  0.1514  0.0184
25790W        W41599   3.667  14.262  11.798 -0.0021 -0.1302 -0.3042
25791W        W41600   1.907  14.268  14.029  0.0237 -0.0736 -0.0435
25792W        W41601   0.395   1.043   5.816 -0.1193 -0.2248  0.0497
25793W        W41602   4.947   6.119  16.115 -0.0580 -0.1375 -0.4445
25794W        W41603  14.078   9.142   1.271 -0.0587 -0.2038 -0.2279
25795W        W41604  17.041  16.185   1.207  0.0224  0.0840 -0.1722
25796W        W41605  16.299   2.472   0.479 -0.2513 -0.1474 -0.3542
25797W        W41606   5.978  17.370   6.029 -0.0274 -0.0773 -0.0518
25798W        W41607   6.791  14.071   4.822  0.2056  0.1283 -0.0882
25799W        W41608   5.414   2.236   3.999  0.1097  0.0942  0.0207
25800W        W41609  15.271   0.811  13.937  0.1544  0.0613  0.2037
25801W        W41610  12.298   2.992   3.493  0.0342 -0.0031  0.4805
25802W        W41611  16.970  10.467   3.401  0.2610  0.2748  0.0151
25803W        W41612  16.850   4.094  16.144 -0.2114  0.1345 -0.0634
25804W        W41613   1.925   5.963   4.803 -0.3357 -0.2510 -0.2816
25805W        W41614   7.576   4.324   2.011  0.0543 -0.0640 -0.2818
25806W        W41615  13.961   9.443  14.035 -0.4816  0.1504  0.1902
25807W        W41616   6.507   9.061  12.507  0.1243 -0.2128 -0.0888
25808W        W41617   3.658   6.550   4.768 -0.2802 -0.0704 -0.1169
25809W        W41618  14.230  12.830   4.476  0.0721 -0.1079 -0.0042
25810W        W41619   3.875   7.436   2.491  0.0592  0.2246 -0.2749
25811W        W41620   7.891   9.161  15.817 -0.3691 -0.1112  0.1291
25812W        W41621  13.350  16.920   1.601  0.0280 -0.2156  0.1075
25813W        W41622   6.764  10.536   3.496 -0.0386  0.0220 -0.1083
25814W        W41623  16.989   3.314   5.757  0.1688 -0.2733  0.1930
25815W        W41624  17.267   5.338  13.925 -0.2887  0.1924  0.1416
25816W        W41625   6.630  17.119   4.639 -0.1436  0.2069 -0.0012
25817W        W41626   1.439  12.358  13.586  0.0686  0.0096  0.1985
25818W        W41627  13.035  10.014   1.618  0.1463 -0.3754 -0.0058
25819W        W41628  11.834  15.402  11.097  0.1187  0.1111  0.1340
25820W        W41629  15.014  15.211  13.752  0.1956 -0.1670  0.2446
25821W        W41630   3.084  14.110  14.125 -0.0764 -0.0505 -0.0230
25822W        W41631  15.284   4.925  16.247  0.0576 -0.3159  0.1023
25823W        W41632   2.306  12.856   2.355 -0.1274  0.2963 -0.1872
25824W        W41633   2.371   3.443   0.278  0.0366  0.2208 -0.2613
25825W        W41634   7.054   0.021   6.027  0.1181 -0.0573  0.0335
25826W        W41635   2.221   8.771  13.117  0.2821  0.1837 -0.2072
25827W        W41636   8.324   7.639  16.357  0.0518  0.3849 -0.4460
25828W        W41637  13.687  17.202  12.511  0.2410  0.1294  0.2472
25829W        W41638   4.459  16.206  15.316 -0.2436 -0.1683 -0.0736
25830W        W41639  17.358   7.102  11.749  0.1408 -0.2463  0.0673
25831W        W41640  10.749   1.329  14.587 -0.2145  0.0076  0.1158
25832W        W41641  13.749   9.520   3.658  0.0645  0.3804  0.1978
25833W        W41642   4.470   3.130   2.949 -0.1540 -0.0413  0.2892
25834W        W41643   9.578  16.215   5.158 -0.0188 -0.0066  0.1026
25835W        W41644  10.919   1.413  12.609 -0.2390 -0.0754 -0.2227
25836W        W41645  15.649  12.655   0.546 -0.2310  0.0715 -0.0547
25837W        W41646   9.068  16.479   2.179 -0.4158 -0.1254  0.1185
25838W        W41647   5.686  13.047   0.501 -0.1568 -0.1813 -0.1076
25839W        W41648  13.680   1.493   4.775  0.0867 -0.0863  0.0902
25840W        W41649   4.564  16.868  12.950  0.0579 -0.0466  0.0614
25841W        W41650   9.952  11.296  11.867 -0.0028  0.0789 -0.0678
25842W        W41651  11.444   6.074   4.824  0.0585  0.0957 -0.0594
25843W        W41652  17.610  11.742   5.473 -0.0315  0.0308  0.0861
25844W        W41653   0.483   3.232  13.728 -0.0679 -0.1191 -0.0043
25845W        W41654  14.380   6.996  16.444 -0.0792  0.0212 -0.0322
25846W        W41655   3.422   8.159  15.786  0.0535 -0.0593  0.0816
25847W        W41656  11.573  17.031   2.029 -0.4106 -0.3244 -0.1274
25848W        W41657   1.641   2.254  15.126 -0.1663 -0.2943  0.1092
25849W        W41658   5.108  12.569   3.973 -0.0600 -0.0643 -0.0635
25850W        W41659  14.324   6.514  14.523  0.0156 -0.0227  0.0062
25851W        W41660  13.201   8.862   0.517  0.2295  0.1302  0.2728
25852W        W41661  14.773   0.867  12.316 -0.1998  0.1243 -0.3265
25853W        W41662  10.435  14.808  14.885 -0.1392  0.2140 -0.0377
25854W        W41663   5.432  11.782  14.630 -0.1466 -0.0808 -0.3689
25855W        W41664   7.776  12.919  12.343 -0.2423  0.2914  0.3020
25856W        W41665   8.729   0.073  15.260  0.1313 -0.0885  0.0035
25857W        W41666   9.549   9.348  13.398  0.2444  0.0010  0.2617
25858W        W41667   8.583   4.689   4.790 -0.0391  0.2465 -0.2454
25859W        W41668  10.781  17.324  15.911 -0.0018  0.0793 -0.0388
25860W        W41669  17.875   1.573   5.227 -0.0757 -0.1770  0.1119
25861W        W41670   0.756   2.526  13.121  0.0773  0.0357  0.1084
25862W        W41671  17.279   0.549   5.280 -0.1100 -0.1077 -0.1293
25863W        W41672  12.813  14.242   4.543  0.0710  0.0840 -0.3742
25864W        W41673  16.425  15.295   0.006 -0.0692 -0.0903  0.2059
25865W        W41674   2.249  14.429  14.539  0.0661  0.0834 -0.1154
25866W        W41675  12.950  12.094  13.598 -0.0505 -0.0437  0.0452
25867W        W41676  14.618   1.528  16.395  0.1101  0.0102 -0.0601
25868W        W41677   9.984   8.093  13.724  0.3930 -0.1349 -0.1308
25869W        W41678  14.703  15.874   1.839  0.2205  0.0165 -0.2344
25870W        W41679  10.632   3.941   0.094 -0.0192  0.0095  0.0471
25871W        W41680  14.215   3.322   1.349  0.0813  0.1854 -0.0526
25872W        W41681   0.315   0.464   3.717 -0.0837  0.1116 -0.1041
25873W        W41682  14.334   7.554  11.615 -0.3187  0.2815  0.1019
25874W        W41683  10.551  11.971   2.930 -0.0645  0.1008 -0.0218
25875W        W41684   7.129   4.092  12.136 -0.0095  0.0787  0.1260
25876W        W41685   1.296  14.013  11.639  0.2633 -0.1586 -0.2115
25877W        W41686   9.125   8.098  13.509  0.3488 -0.1203  0.1091
25878W        W41687   2.043   7.651  15.587  0.0293 -0.1275  0.0075
25879W        W41688  11.742   3.087  10.634  0.2414 -0.0935  0.1703
25880W        W41689  16.814   6.415  11.542  0.0547 -0.1792  0.1361
25881W        W41690   6.740  16.262   0.566  0.0818  0.3107 -0.0464
25882W        W41691   3.283   8.552  16.161  0.0429 -0.1159 -0.1756
25883W        W41692   2.983   0.502  12.760 -0.1455 -0.0436 -0.1278
25884W        W41693  12.311  17.399   3.500  0.0490  0.0729 -0.0946
25885W        W41694  10.057   2.753   4.467 -0.1505  0.0206 -0.0124
25886W        W41695  12.485   7.116  12.548 -0.1132  0.0699 -0.2577
25887W        W41696   5.062   0.022   3.749  0.0415  0.0517 -0.0482
25888W        W41697   7.323  14.376  13.699  0.0199 -0.0701 -0.0074
25889W        W41698   8.918  17.647   4.275  0.2333 -0.1950 -0.0014
25890W        W41699  12.650  13.252  14.602  0.1822 -0.2354  0.0318
25891W        W41700   5.331   5.978  13.965  0.4779 -0.2857 -0.0148
25892W        W41701   0.310  17.169  11.612  0.0908  0.1474  0.2547
25893W        W41702  13.714   8.513   4.697 -0.4671 -0.1542 -0.0415
25894W        W41703   4.910  12.036   1.886 -0.0591 -0.1816 -0.1844
25895W        W41704   7.193   7.345   4.405 -0.2894  0.0974 -0.2208
25896W        W41705  11.188  10.332  16.098 -0.0011  0.2506  0.3120
25897W        W41706  11.514  15.795   0.827 -0.3251 -0.1308  0.0645
25898W        W41707   4.758  15.483  15.999 -0.0574  0.3473  0.1129
25899W        W41708   2.192  15.929  12.184  0.0073  0.0626 -0.1750
25900W        W41709   3.618   4.173  11.724  0.1163  0.3471 -0.0284
25901W        W41710   8.288   2.802   2.064  0.1785 -0.1325 -0.0600
25902W        W41711  13.798  10.062   6.579  0.0029  0.2047  0.5263
25903W        W41712  12.849  17.787   0.406  0.0239 -0.1079 -0.1640
25904W        W41713  17.776  12.809  11.059 -0.0423 -0.1518  0.0896
25905W        W41714   7.760  11.702   3.798 -0.2409  0.0491  0.1292
25906W        W41715   4.647   2.952  15.288  0.1144 -0.1559  0.1166
25907W        W41716   2.764   7.197  15.211  0.0269  0.0016  0.2598
25908W        W41717   0.818  16.643   3.323  0.3334 -0.0998  0.0722
25909W        W41718  15.912   6.454   2.111  0.1431 -0.0646 -0.0029
25910W        W41719   2.051   6.200  14.492 -0.1458 -0.3300  0.0100
25911W        W41720  13.868  12.875  13.845 -0.0786 -0.3499  0.1467
25912W        W41721  16.744   2.436  16.169 -0.2274 -0.0273 -0.2556
25913W        W41722  15.667  16.125   5.879 -0.0014 -0.3110  0.0172
25914W        W41723  15.873   4.174   1.319  0.0969 -0.0576 -0.0882
25915W        W41724  13.425   7.541   4.763  0.0192  0.1301 -0.2175
25916W        W41725  13.180   8.771  15.386 -0.3659 -0.1383  0.0608
25917W        W41726  13.428   0.243  11.723  0.0870  0.0769  0.0321
25918W        W41727  17.161  12.789   4.774 -0.1201 -0.2490  0.3227
25919W        W41728   9.250  13.903  14.669 -0.1603  0.0830  0.1885
25920W        W41729   7.506  11.585  15.322 -0.1250  0.2233 -0.0069
25921W        W41730  17.457   0.045   3.349 -0.0147  0.0114 -0.1470
25922W        W41731  16.559   7.247   2.458 -0.0745  0.1369 -0.0981
25923W        W41732   9.172   5.936   3.533  0.1221  0.0920 -0.0755
25924W        W41733   0.247  16.288   3.564 -0.3425 -0.0615 -0.1806
25925W        W41734   0.969  15.856   3.957  0.2104 -0.1465 -0.2085
25926W        W41735   6.466   2.226  11.894  0.0473  0.1285 -0.0923
25927W        W41736  17.011  10.767   4.819  0.0878 -0.2144 -0.3947
25928W        W41737   1.975   0.848   4.867  0.1292  0.0069  0.1843
25929W        W41738   5.134  10.629   5.672  0.0102 -0.0587  0.1699
25930W        W41739   0.507   0.021   1.197  0.2861  0.1551 -0.0264
25931W        W41740  13.736  15.622   1.548 -0.0358 -0.2648 -0.0598
25932W        W41741   8.445   8.525  13.752 -0.1457  0.0718 -0.2537
25933W        W41742   8.384   4.768   0.654  0.0942 -0.0012  0.2312
25934W        W41743  15.922  16.518   1.688 -0.1090  0.2684  0.0072
25935W        W41744   9.525  11.278  11.269  0.2010  0.0134 -0.0647
25936W        W41745   7.852  15.158   0.969 -0.3410  0.1265 -0.5140
25937W        W41746   6.300  14.063  13.743  0.1220 -0.1566  0.0627
25938W        W41747   5.717   3.422  12.832  0.1845  0.3381  0.0758
25939W        W41748   3.173   5.988  13.176 -0.0650  0.0819  0.2642
25940W        W41749  11.865   9.717  11.408 -0.1789  0.2988 -0.2766
25941W        W41750  14.285   7.811   0.085 -0.0435 -0.0596 -0.0488
25942W        W41751   8.837  17.844  12.581 -0.0103  0.0207  0.4435
25943W        W41752  10.315   7.777   5.980  0.2900 -0.1168  0.1528
25944W        W41753  15.891  14.935  16.504 -0.1025 -0.2811  0.1025
25945W        W41754  15.207  11.884  12.944  0.2426  0.0625  0.3553
25946W        W41755   9.828   6.446   5.741 -0.0202 -0.0020 -0.3654
25947W        W41756  15.240   3.758  10.525  0.2510  0.1387 -0.1171
25948W        W41757  14.291   0.596  16.514  0.1835  0.0246  0.0922
25949W        W41758   6.146   9.493  11.233 -0.1889  0.5918 -0.3058
25950W        W41759   5.485   2.485   1.922  0.0234 -0.0651  0.0469
25951W        W41760  14.976   6.149   4.138 -0.0115  0.0451  0.1666
25952W        W41761   5.062   5.077   1.838  0.1548  0.1989  0.0145
25953W        W41762   3.888   2.727   4.785 -0.2315 -0.0122  0.0677
25954W        W41763   2.878   7.790  16.482 -0.1895 -0.4152  0.0592
25955W        W41764   3.468  11.132   2.065  0.2747 -0.1395 -0.0840
25956W        W41765  11.974   8.493   2.183  0.1477  0.0096 -0.1133
25957W        W41766  13.792   7.382   2.530  0.2243  0.0334  0.1238
25958W        W41767   8.183   3.432   0.496  0.1321 -0.0522 -0.0129
25959W        W41768   4.760   3.993   3.144  0.2683  0.0206 -0.1341
25960W        W41769   4.317   0.146   3.473 -0.3525  0.0171  0.2417
25961W        W41770   9.953  12.151  15.223  0.2725 -0.0879 -0.2734
25962W        W41771   5.972   7.403   5.635  0.3508  0.1023 -0.0829
25963W        W41772   2.177   0.164  12.278  0.3554 -0.1714  0.2227
25964W        W41773   9.863  13.206   1.033 -0.1003 -0.0954 -0.0424
25965W        W41774   8.851  13.623   1.367  0.0728 -0.0902 -0.1256
25966W        W41775  11.099   5.921   3.973  0.3103  0.1028  0.1558
25967W        W41776  17.030   1.702   4.235  0.0408  0.3430  0.1386
25968W        W41777  15.472   6.412  13.821  0.3102  0.2430  0.0273
25969W        W41778   8.159   8.058  16.524 -0.1333  0.2695  0.1753
25970W        W41779   2.531  11.827  15.965  0.3268  0.1185 -0.3031
25971W        W41780   1.361   2.423   1.095 -0.3256 -0.0995 -0.1835
25972W        W41781  16.114  11.642  16.451 -0.3228 -0.0828  0.0908
25973W        W41782   5.185   0.911  13.881  0.0994  0.3066  0.4175
25974W        W41783   9.538  14.540  16.448 -0.0412 -0.0173  0.2975
25975W        W41784   2.080  15.318  12.997 -0.2601  0.2051  0.0822
25976W        W41785   7.245  14.559   2.810  0.0592  0.0446  0.1108
25977W        W41786   3.660  10.910   3.486 -0.2309 -0.0232 -0.0924
25978W        W41787   7.032  13.058   0.749 -0.2458 -0.0159 -0.1441
25979W        W41788   2.020   8.759   0.694 -0.2593  0.0475 -0.0350
25980W        W41789   3.232  13.445   1.445 -0.2217 -0.1385  0.1305
25981W        W41790   0.171   2.825   1.141  0.2733  0.1572  0.0701
25982W        W41791   0.677  12.085   5.128  0.1383  0.0262 -0.0583
25983W        W41792  13.736  15.920   5.233  0.1403  0.1321 -0.3017
25984W        W41793   1.872   8.380   2.512  0.0472 -0.2601 -0.2241
25985W        W41794   0.203   4.842  16.643 -0.2700 -0.1450  0.1292
25986W        W41795   3.854  17.546   3.066  0.1783  0.0975 -0.1852
25987W        W41796   7.525   5.629  16.404  0.1296 -0.0153 -0.1697
25988W        W41797  13.578  17.239   0.310 -0.1107  0.2121  0.0537
25989W        W41798  16.409   7.511   4.671 -0.0605 -0.1007  0.3689
25990W        W41799   4.525   9.306   0.230  0.2805 -0.1079 -0.0489
25991W        W41800  12.047  13.088  12.859 -0.1596 -0.2718 -0.2529
25992W        W41801   1.757   1.424   3.821  0.0908 -0.3774 -0.1693
25993W        W41802  13.827  17.688   2.795 -0.0675 -0.1297 -0.0911
25994W        W41803  10.914  16.331   3.861  0.0067  0.0640 -0.0419
25995W        W41804   0.540   9.888   2.695  0.2127  0.0939  0.1824
25996W        W41805   7.830   0.610  16.714  0.0467 -0.1221  0.1756
25997W        W41806   9.595   7.203  14.495 -0.0754  0.1583  0.2840
25998W        W41807  14.084  15.489  13.672 -0.2148 -0.0459  0.2191
25999W        W41808   4.304   2.908   0.398  0.2109  0.0660  0.0760
26000W        W41809  15.682   8.614   1.362  0.0757  0.0110 -0.1441
26001W        W41810   6.327   9.959   2.543  0.3150 -0.0090  0.2164
26002W        W41811   2.935  12.092   4.359 -0.0098 -0.3867  0.0581
26003W        W41812  16.495  14.655  13.509  0.0164  0.0737 -0.3725
26004W        W41813   1.455   5.815   5.182  0.1134  0.1528  0.0674
26005W        W41814   9.217  17.654  14.049  0.0080 -0.0400 -0.0413
26006W        W41815   9.049  11.224  12.680 -0.1116  0.0208 -0.1107
26007W        W41816   5.865   1.236   3.295  0.0260 -0.0280 -0.0899
26008W        W41817   0.371  10.688   2.974  0.2121  0.1005 -0.0409
26009W        W41818  16.147  14.343  14.536 -0.1540 -0.0944 -0.1319
26010W        W41819   6.397   3.779  14.185 -0.0868  0.0814 -0.2185
26011W        W41820  10.134  11.676  15.294 -0.1247  0.1534  0.0227
26012W        W41821  16.276  16.562   1.297 -0.0565 -0.0743  0.1787
26013W        W41822   3.418   6.153   1.284  0.2177  0.2372 -0.0036
26014W        W41823   7.711   0.422   4.968 -0.0559  0.1132 -0.1868
26015W        W41824   7.674  11.205  16.609  0.0857 -0.0206 -0.3417
26016W        W41825  17.016   8.654  12.737 -0.0032  0.0726 -0.2205
26017W        W41826  15.716   7.563  16.631  0.0349  0.0899 -0.2574
26018W        W41827  11.365   3.580  13.633 -0.0130 -0.0239 -0.1524
26019W        W41828   5.324   6.402   4.867 -0.1338 -0.2817  0.0370
26020W        W41829  17.261   6.111  11.542 -0.0530  0.1212  0.1946
26021W        W41830  16.245  12.644   3.753  0.0913 -0.3059 -0.1608
26022W        W41831   6.630   3.742   0.390  0.2774 -0.1915  0.1809
26023W        W41832   3.883  15.801   5.331  0.0827  0.1953 -0.0189
26024W        W41833   9.946   4.927   3.232 -0.2196  0.1562  0.0327
26025W        W41834  10.227   0.347  13.430 -0.2015  0.1868  0.2066
26026W        W41835  12.418   4.092  11.736  0.0118  0.0927  0.0878
26027W        W41836   4.138  13.982  11.956  0.1667  0.1209  0.1556
26028W        W41837  14.537   7.992   1.494 -0.0290 -0.2559 -0.2580
26029W        W41838  11.944   5.143  12.405  0.1669  0.0201 -0.3684
26030W        W41839   4.679   3.130  14.449  0.0301  0.2309  0.1117
26031W        W41840  17.409  13.338  16.509  0.0035  0.0425 -0.0146
26032W        W41841  12.575   1.511   3.678  0.0395  0.2614 -0.1573
26033W        W41842   8.879   5.013  13.224 -0.1727 -0.3095 -0.0115
26034W        W41843  17.775   5.117  16.564  0.3234  0.0749  0.2638
26035W        W41844  14.281  14.760  12.340  0.0133 -0.2962  0.2352
26036W        W41845  13.101   0.195   4.293 -0.1160  0.2978 -0.1437
26037W        W41846  10.421   8.420   4.876 -0.1924  0.1574  0.2542
26038W        W41847  15.026  16.125   0.630 -0.1064  0.0803  0.0062
26039W        W41848  14.278  15.096  13.418 -0.0635 -0.2642  0.3457
26040W        W41849  13.309  17.662  16.380 -0.0824 -0.2048 -0.1462
26041W        W41850   4.755  15.025   3.635  0.1905 -0.0379  0.0348
26042W        W41851   7.168   3.822   4.486 -0.0166  0.0624 -0.0537
26043W        W41852   2.668   6.408   0.964 -0.3692 -0.0284 -0.0244
26044W        W41853   0.126   1.618  15.599 -0.1358  0.1126 -0.2753
26045W        W41854  12.356   4.906   2.022  0.1055  0.0626 -0.2214
26046W        W41855  12.989  17.807  12.262  0.1638 -0.3114  0.1571
26047W        W41856  13.365   9.747   4.371 -0.2933 -0.0487  0.0865
26048W        W41857  17.763   2.516  15.712  0.2784 -0.1322 -0.0140
26049W        W41858   7.860   9.891  16.122 -0.1027  0.2917  0.2736
26050W        W41859  15.198  12.031   3.419  0.1413  0.1233  0.1008
26051W        W41860  13.189  11.833   5.467 -0.2041 -0.0080 -0.0919
26052W        W41861   9.674  13.087   1.521 -0.0746 -0.2595 -0.2536
26053W        W41862  16.281   9.384  12.721 -0.1128 -0.0612  0.2861
26054W        W41863   1.175   0.118  13.687  0.1264  0.0965  0.1776
26055W        W41864  12.385   0.697  14.722  0.0731 -0.1473 -0.0688
26056W        W41865  14.454   8.582  12.933 -0.3110  0.0202  0.1948
26057W        W41866   7.997   3.884  13.783 -0.0339 -0.0433 -0.0048
26058W        W41867  14.937   0.490  14.231 -0.0977 -0.1449 -0.4072
26059W        W41868  11.235  13.295   1.609 -0.1434  0.2858 -0.2060
26060W        W41869  11.540  12.187   6.188 -0.2678  0.3229 -0.1875
26061W        W41870   4.353   2.917  11.281 -0.2019 -0.1377 -0.3506
26062W        W41871  13.673  15.785  13.811  0.0644  0.0407 -0.0700
26063W        W41872  14.263  15.694  16.672  0.0567 -0.3046  0.0432
26064W        W41873   8.043  11.546  13.069  0.1789 -0.0325  0.0562
26065W        W41874  12.080   3.114  16.320 -0.2496  0.2744 -0.0875
26066W        W41875  15.228  16.446  15.897  0.0005 -0.1239 -0.0252
26067W        W41876  15.538   2.813  14.585  0.2013  0.0361 -0.1052
26068W        W41877  13.799   4.001   1.007 -0.0763 -0.0323  0.0720
26069W        W41878   0.657   3.027   1.375 -0.2951 -0.0435  0.2580
26070W        W41879   7.705   7.965  14.938  0.1991  0.0756 -0.1047
26071W        W41880   6.238   7.845  16.470 -0.1329  0.1171  0.0414
26072W        W41881   4.502   7.920  15.337  0.2946  0.0150  0.0615
26073W        W41882   2.811   2.683   4.038  0.2197  0.0224  0.2229
26074W        W41883   3.498  16.498   0.940 -0.2550 -0.1253 -0.4140
26075W        W41884  12.000  12.429  12.124  0.0290 -0.3038 -0.1216
26076W        W41885  11.101  16.796   0.170  0.1216 -0.0059  0.1557
26077W        W41886  16.698   5.748   2.880 -0.0344  0.0285  0.2082
26078W        W41887  10.259   7.863  16.190  0.0142  0.3676  0.1825
26079W        W41888  16.185   0.028  13.226 -0.0531 -0.0366 -0.2497
26080W        W41889  16.171   9.735  15.110 -0.0234 -0.0276 -0.1235
26081W        W41890   1.247   3.495  12.051  0.1754  0.2104 -0.1682
26082W        W41891   6.879  17.347  16.221 -0.0532  0.0900  0.1465
26083W        W41892   4.267  11.254   1.493  0.1374  0.0509  0.0279
26084W        W41893   8.320   2.823   3.300  0.3541  0.4077 -0.2202
26085W        W41894   3.958   5.039  11.100 -0.0467 -0.0088 -0.1653
26086W        W41895  16.191  13.034   1.628 -0.1878 -0.0237 -0.0472
26087W        W41896  16.604  17.163  15.559  0.1857  0.1195 -0.1013
26088W        W41897   3.649   4.678  11.273  0.3487 -0.0865  0.4301
26089W        W41898  12.600   3.728  13.781  0.1583 -0.2447 -0.2891
26090W        W41899  11.100   3.349   6.547  0.1997 -0.4047  0.2291
26091W        W41900  10.808   7.870   3.748 -0.3632  0.1526  0.1264
26092W        W41901   8.817  15.091   4.001  0.1531 -0.1493 -0.0198
26093W        W41902   7.689  17.521  16.355 -0.0402 -0.0222  0.2368
26094W        W41903   9.614  13.421   4.741  0.1302 -0.1938 -0.2199
26095W        W41904  17.772  12.069   4.655  0.2301  0.0088  0.0441
26096W        W41905   3.308   0.478   3.680 -0.0508 -0.0116  0.3616
26097W        W41906  13.324  12.622  14.885 -0.3910 -0.2672  0.1068
26098W        W41907   8.738   1.018   5.980  0.0211 -0.0737  0.2348
26099W        W41908   0.453  14.363  15.310  0.0996 -0.2083  0.1304
26100W        W41909   3.039   5.985  16.528  0.1356  0.0686  0.1847
26101W        W41910   9.274  11.666   4.969 -0.1084  0.0756  0.0722
26102W        W41911   5.685   9.606  14.438 -0.1834 -0.0350 -0.0015
26103W        W41912   3.840  15.987  14.907  0.1598  0.4990 -0.0348
26104W        W41913  10.887  12.130   2.569 -0.0209  0.1022 -0.4513
26105W        W41914   4.362   3.119  13.323 -0.0096 -0.1057 -0.1950
26106W        W41915  14.374  13.762   1.157 -0.2286  0.2550 -0.1924
26107W        W41916  11.648   1.005  12.391  0.1188  0.4513 -0.0889
26108W        W41917  15.514  11.962   3.846  0.2685  0.4912 -0.2139
26109W        W41918  12.658  17.359   2.674  0.0983 -0.4382 -0.2501
26110W        W41919   7.597   1.913   3.924  0.4100  0.2273 -0.2171
26111W        W41920  11.323   4.865  12.325  0.4523  0.3831 -0.0509
26112W        W41921   5.688  15.403  14.801 -0.2750 -0.0500 -0.1130
26113W        W41922  16.912   4.429  11.291  0.0128 -0.0207  0.1443
26114W        W41923   8.580   2.875   5.502 -0.0347  0.1817 -0.2609
26115W        W41924  13.476   4.066  12.360 -0.3964 -0.1181  0.0892
26116W        W41925  13.687  17.675  16.014 -0.0206  0.2320 -0.3665
26117W        W41926   5.687  11.373  12.984 -0.1427  0.0725 -0.2549
26118W        W41927   9.929   7.103   3.086  0.0416 -0.0701 -0.0954
26119W        W41928  17.935  12.386   0.613 -0.1744  0.0158 -0.3351
26120W        W41929  16.643   6.026  11.968  0.3249 -0.3647  0.0069
26121W        W41930   4.890  12.260   3.196  0.0384  0.0263 -0.1368
26122W        W41931   8.555   6.490   4.715 -0.0346 -0.0913 -0.0267
26123W        W41932   1.656   7.630   3.234 -0.0148 -0.2530  0.1226
26124W        W41933  12.161  15.655   1.923  0.0901  0.5895 -0.2327
26125W        W41934  17.071   0.723  13.509  0.0212 -0.0646  0.1523
26126W        W41935   5.335   9.357  11.120  0.3189  0.3078 -0.1867
26127W        W41936   4.434  15.814   0.231 -0.0969  0.2437 -0.1105
26128W        W41937   3.831  12.523  13.583 -0.1028 -0.2921  0.0740
26129W        W41938   0.271  16.752  15.157  0.0413 -0.3028 -0.2476
26130W        W41939  14.243   2.598  11.866 -0.3626  0.2330  0.4763
26131W        W41940   0.338  17.692   3.138 -0.0452 -0.0397  0.0557
26132W        W41941   9.652   9.502  15.640  0.0079  0.1303 -0.0695
26133W        W41942   3.042  17.445   2.101 -0.0563  0.2252  0.0198
26134W        W41943   8.725  15.632  16.108 -0.1313  0.2765 -0.0284
26135W        W41944  14.154  13.069  11.724  0.4608 -0.2204 -0.2044
26136W        W41945   6.751  17.868  11.786  0.2451 -0.4309 -0.0350
26137W        W41946   5.296  16.920  12.263  0.3178  0.0319 -0.1988
26138W        W41947   9.054   0.238  14.001 -0.1050 -0.0257  0.2536
26139W        W41948  14.843  10.869  16.527 -0.3588  0.0208 -0.4998
26140W        W41949   3.542   0.131   5.948 -0.1315  0.0216  0.0756
26141W        W41950   0.932   3.468   1.271  0.2083  0.1194 -0.0716
26142W        W41951  10.040   2.480  15.392  0.0197  0.2116  0.1599
26143W        W41952  14.961  13.146   3.689  0.2483  0.3734 -0.0655
26144W        W41953   8.664   0.503   3.736  0.0142 -0.0432  0.2976
26145W        W41954  12.328   5.910  12.553 -0.1066 -0.1957 -0.1004
26146W        W41955  10.586  13.283   1.582  0.0417 -0.1732  0.2167
26147W        W41956   6.931  16.056   1.100 -0.0662 -0.0092 -0.1349
26148W        W41957   6.180   4.221  11.638  0.2267  0.0115 -0.1146
26149W        W41958   0.562  13.389  14.470 -0.0894  0.0299  0.4332
26150W        W41959   8.067  14.124  12.577 -0.1496  0.1313 -0.1657
26151W        W41960  17.836   2.132   3.915 -0.0514  0.1036  0.4449
26152W        W41961   5.479   6.940   2.587 -0.0146  0.0320  0.1161
26153W        W41962  17.787   0.689   4.459  0.2850 -0.0049 -0.1200
26154W        W41963   0.141   0.815   1.168 -0.1115 -0.0816 -0.1397
26155W        W41964  12.032  11.978   4.544 -0.0850 -0.2516 -0.1188
26156W        W41965  16.962   5.440  15.048 -0.1079 -0.1305 -0.0331
26157W        W41966  10.632   0.286  13.747  0.0565  0.1298 -0.0013
26158W        W41967   3.201  13.576  12.048  0.1755 -0.0158 -0.0774
26159W        W41968   7.846   2.869  14.867 -0.0015 -0.0284 -0.1396
26160W        W41969   5.637  14.928  12.777  0.0751  0.2190  0.2505
26161W        W41970   3.993   7.248   5.500 -0.0294 -0.0984  0.0319
26162W        W41971   9.948  16.572   4.699  0.1797  0.2425  0.2462
26163W        W41972  10.326  16.660   3.492 -0.0517  0.1866 -0.0144
26164W        W41973  15.571  17.655  12.134  0.0014 -0.0714  0.4364
26165W        W41974   4.249  15.964   2.842 -0.0380 -0.0332 -0.1598
26166W        W41975  14.117   6.709  12.222  0.0186  0.4138 -0.0815
26167W        W41976   3.610  10.550  15.418  0.0942  0.1633 -0.0570
26168W        W41977  13.157   4.731  13.056  0.0232  0.0295  0.0877
26169W        W41978   3.625   3.117   3.976 -0.0562  0.3388  0.1480
26170W        W41979   6.433   3.061   0.889  0.1749  0.2443  0.1890
26171W        W41980   2.929   4.217  13.725 -0.0731  0.2193  0.2954
26172W        W41981  17.135   9.388   1.388  0.2598 -0.0071  0.0755
26173W        W41982   0.499   4.917  11.958  0.1760  0.2388 -0.2413
26174W        W41983   1.220  12.805  15.448  0.3763 -0.1309  0.0675
26175W        W41984  16.894   2.153  14.019  0.0363  0.1680 -0.2756
26176W        W41985  11.667   2.970  15.646 -0.0732 -0.0678 -0.0987
26177W        W41986   7.236   7.124   6.371  0.0324  0.0135  0.1019
26178W        W41987  12.648  11.717   5.756 -0.0397  0.1641 -0.2324
26179W        W41988  10.487   2.592  15.059  0.0177 -0.1427  0.0681
26180W        W41989  16.137   0.629  13.883 -0.1284  0.0409  0.1020
26181W        W41990  17.217  16.978  10.482  0.1048 -0.1577 -0.1808
26182W        W41991   0.967  15.050  11.708 -0.0453 -0.1735  0.1691
26183W        W41992   7.620  10.465  14.178  0.2534  0.0608  0.0264
26184W        W41993   0.392   8.849   4.507 -0.1326  0.0133 -0.0166
26185W        W41994  15.192  11.093   5.846 -0.1721 -0.1131 -0.1355
26186W        W41995  11.486  12.467  15.028 -0.0949 -0.2348 -0.0469
26187W        W41996  15.257  14.222  12.920 -0.0903  0.2313  0.3293
26188W        W41997   0.970  14.166  14.082 -0.0051 -0.1782 -0.0477
26189W        W41998  12.514   3.663   3.197  0.0484  0.2110 -0.1125
26190W        W41999   7.145  11.458   3.880 -0.0370 -0.1444 -0.0970
26191W        W42000   0.388   1.438  14.376  0.0411 -0.1646 -0.3110
26192W        W42001   2.045   2.269  16.404  0.0934  0.2553  0.0890
26193W        W42002  15.965   7.903   0.289  0.0297 -0.1305  0.4410
26194W        W42003   0.285   3.024  13.289 -0.2549  0.1011 -0.0458
26195W        W42004  10.245  12.062  14.199  0.1738 -0.0751 -0.2006
26196W        W42005   8.315  10.682  12.290  0.2976  0.0014 -0.2817
26197W        W42006   6.888  11.754   1.705 -0.0478 -0.1371  0.2437
26198W        W42007   9.606  17.689   2.134 -0.2168  0.0070  0.0758
26199W        W42008   6.224  10.515  15.245 -0.2466  0.2197  0.2560
26200W        W42009   0.742   4.757   1.448  0.2581  0.3245  0.1194
26201W        W42010   4.149   8.330   1.193 -0.1371 -0.4265  0.1148
26202W        W42011  11.243   2.528   5.371  0.3309  0.1750  0.1704
26203W        W42012   6.876  12.941  12.434  0.2446 -0.0805 -0.4428
26204W        W42013   5.421  13.068  16.278  0.0580 -0.2156 -0.2444
26205W        W42014   3.916   2.212  15.274 -0.0311  0.0301  0.1193
26206W        W42015   6.397   5.672  11.323  0.0873 -0.2133 -0.2422
26207W        W42016   8.792   8.936   6.042  0.1428 -0.1195 -0.0736
26208W        W42017   0.927   7.136   4.507 -0.2461  0.1567  0.0931
26209W        W42018  14.311   3.245   2.627 -0.1791  0.0829 -0.0972
26210W        W42019  11.929   5.029   4.338  0.3863 -0.1877 -0.3904
26211W        W42020  11.341   0.948   1.205 -0.1108  0.0039  0.1014
26212W        W42021   8.435   2.571   1.623  0.1517  0.0672 -0.2993
26213W        W42022  16.850  13.828  15.879 -0.2103  0.1495 -0.0695
26214W        W42023  16.482  11.036   5.738 -0.0174  0.1162  0.0143
26215W        W42024  16.469   9.410  15.841  0.4411  0.5636 -0.1898
26216W        W42025  12.205   4.583   0.117 -0.0592  0.1585 -0.0669
26217W        W42026   4.112   9.518   0.221  0.0493 -0.2631 -0.2951
26218W        W42027   3.690  15.454   3.113 -0.0097 -0.0593 -0.0355
26219W        W42028   8.178  16.067  14.171 -0.1419 -0.0719  0.0503
26220W        W42029   1.666   0.554  16.074 -0.3616  0.1780 -0.2561
26221W        W42030   8.053   2.800  11.788  0.0956 -0.1727  0.2078
26222W        W42031   7.146  15.793  14.281  0.0030  0.0442  0.0281
26223W        W42032   2.245   7.735  11.880  0.2386  0.2227  0.1217
26224W        W42033  17.493  14.482  14.353  0.2876  0.1796 -0.1826
26225W        W42034  10.096   1.543   3.271  0.0439 -0.4503 -0.1330
26226W        W42035   4.567   8.077   4.534  0.1541 -0.1943 -0.0316
26227W        W42036   7.643  16.846   2.850 -0.0933  0.1696 -0.0017
26228W        W42037   5.445   7.712  15.802 -0.0315 -0.0788 -0.0095
26229W        W42038   6.658  15.292   2.213  0.3176  0.0120 -0.1176
26230W        W42039   5.954  11.211   2.038 -0.0954  0.2446  0.0221
26231W        W42040   7.039  13.989   2.091 -0.2585 -0.0017 -0.2284
26232W        W42041   4.585   8.154   3.594 -0.0583 -0.1345 -0.0082
26233W        W42042   7.552   7.280   4.762 -0.2933  0.0654  0.0458
26234W        W42043  11.248  10.745   4.047 -0.1137  0.3172  0.1571
26235W        W42044  17.837  13.944   2.494  0.0016 -0.0508  0.3418
26236W        W42045   5.036   4.595  12.301  0.2188  0.0096 -0.2822
26237W        W42046   4.954   2.274  13.356  0.3549 -0.0460 -0.2504
26238W        W42047   9.835   1.921  13.850 -0.1681 -0.0456  0.4592
26239W        W42048   3.729   4.519  15.887  0.0702  0.1179  0.0059
26240W        W42049   3.043   3.665  11.978 -0.1110  0.0584  0.1618
26241W        W42050   9.757   3.331  13.364  0.0484  0.2917  0.0120
26242W        W42051   5.590   7.196   1.196 -0.3379 -0.3386  0.3152
26243W        W42052  10.988  10.115   2.109  0.0441  0.1507 -0.0455
26244W        W42053   0.605   9.413  14.347 -0.1401  0.1181 -0.3302
26245W        W42054   7.063   3.211   2.544  0.0367 -0.0178  0.0010
26246W        W42055   1.098   0.296   2.385  0.0832  0.0734 -0.0907
26247W        W42056   0.507   8.722  13.834  0.0690  0.0642  0.1938
26248W        W42057  10.006   9.376  14.123  0.2185  0.1683  0.2771
26249W        W42058   3.963  17.854   1.809 -0.4322 -0.0431  0.4177
26250W        W42059  10.764  10.099  13.107 -0.2752  0.0650  0.1368
26251W        W42060   3.983   1.416  15.147  0.1778  0.0816 -0.2167
26252W        W42061  11.045  12.647  12.800  0.1170 -0.1115 -0.0678
26253W        W42062   9.979  10.796  14.164  0.0116  0.1460  0.1922
26254W        W42063   7.547   3.359   3.743  0.0249 -0.2009  0.2671
26255W        W42064  16.182   8.780  15.004 -0.0934  0.1660  0.1860
26256W        W42065   9.148  17.327   0.787  0.1216  0.1356  0.1922
26257W        W42066  10.644   8.036   2.914 -0.0616  0.0147  0.2022
26258W        W42067   6.630   3.260  16.278 -0.1257  0.1004 -0.0974
26259W        W42068  17.529  13.276   4.177  0.4199 -0.1314 -0.2091
26260W        W42069   2.793   2.898   1.415  0.1766  0.0711 -0.0565
26261W        W42070  14.285   5.974  14.540  0.0250 -0.1583  0.0105
26262W        W42071  10.214   4.052   5.603 -0.1974  0.1603  0.0189
26263W        W42072  14.270   1.399   3.957 -0.0576 -0.0074  0.2143
26264W        W42073   3.484   9.745  14.871  0.0242  0.0124 -0.0915
26265W        W42074  17.810   0.145   2.478  0.0742  0.1274 -0.2170
26266W        W42075   2.426  10.743  12.190 -0.1644 -0.0397 -0.0924
26267W        W42076   9.118   3.777   2.760  0.0371  0.0520 -0.0991
26268W        W42077  13.014  11.575   4.949 -0.1017  0.0599 -0.1243
26269W        W42078  13.660   9.860  13.137 -0.0955 -0.0960 -0.2275
26270W        W42079   4.977  12.975  16.539  0.1197  0.1790  0.0126
26271W        W42080  13.984   1.658   0.745  0.0791 -0.2278 -0.0189
26272W        W42081   4.428  10.949  14.865 -0.0244  0.0267 -0.0822
26273W        W42082   1.400  14.125  16.658 -0.0748 -0.1685  0.1687
26274W        W42083   9.752  16.802  12.269 -0.1334  0.0082 -0.1033
26275W        W42084  11.510  14.850   5.326  0.4072 -0.1808 -0.3815
26276W        W42085   8.564   6.404   0.022 -0.2017 -0.2670  0.0083
26277W        W42086  15.212  10.056  12.557  0.1050  0.2368  0.1143
26278W        W42087  14.556  11.942   4.836  0.4265  0.0705  0.1522
26279W        W42088   9.401   7.264   2.908  0.2302  0.2487 -0.4431
26280W        W42089  17.841   4.470   0.258  0.1028 -0.0795  0.1670
26281W        W42090  14.774  17.175   0.932  0.2285  0.2479 -0.1553
26282W        W42091   4.124   4.908   2.396  0.0850 -0.2596 -0.3199
26283W        W42092  17.433  10.477   4.777 -0.0145 -0.0834 -0.0650
26284W        W42093   0.845  10.778   2.077 -0.1582 -0.0667  0.2138
26285W        W42094  17.297   2.005   5.883 -0.2296  0.0525 -0.1940
26286W        W42095   0.363   5.352  13.888 -0.3345  0.0234 -0.2273
26287W        W42096   1.989   4.994  15.801  0.2698  0.2540 -0.0123
26288W        W42097   8.852   7.350   3.781  0.2837 -0.1249  0.1260
26289W        W42098   4.539   1.593  15.000 -0.1768  0.0026 -0.0925
26290W        W42099   2.792  16.202   3.865  0.0635 -0.2051 -0.0184
26291W        W42100   3.630   2.267  12.969 -0.0090  0.0471  0.2057
26292W        W42101  12.393   9.087  14.958  0.2373 -0.2252 -0.0371
26293W        W42102   5.348  13.390  12.967 -0.0666 -0.2155  0.0315
26294W        W42103   1.438   1.068  12.016 -0.1239 -0.0765  0.0213
26295W        W42104   6.057   0.737  12.698 -0.1846 -0.0571 -0.0674
26296W        W42105   6.303  13.142  13.249  0.1008 -0.3870 -0.0224
26297W        W42106   4.903  11.713   2.785 -0.1132 -0.1264 -0.2873
26298W        W42107   3.889   7.241   2.003 -0.0230 -0.2491  0.3173
26299W        W42108  17.858  11.367   5.280 -0.1616  0.0169 -0.1886
26300W        W42109   3.890   7.264  12.221  0.3732 -0.0821 -0.0099
26301W        W42110   8.724   9.792   4.806  0.0744 -0.1455  0.0853
26302W        W42111  12.655   4.022  12.678 -0.1345 -0.1629  0.2890
26303W        W42112  11.709   4.672  15.264  0.0555 -0.4772 -0.0602
26304W        W42113   6.586   4.265  14.902  0.0080 -0.3796  0.1237
26305W        W42114  13.853   8.833  14.596  0.1330 -0.1719  0.2615
26306W        W42115  15.462   1.641   2.911 -0.2276  0.0173  0.1764
26307W        W42116  10.669  15.917  15.137  0.0097 -0.0198 -0.1329
26308W        W42117   2.187  10.199   0.511 -0.0261  0.0212  0.1969
26309W        W42118  17.693  17.266   2.936  0.1278  0.2230  0.0340
26310W        W42119  16.919  16.470  14.980 -0.2530  0.0224  0.0557
26311W        W42120  12.783  12.873   5.493  0.2511 -0.1666 -0.1806
26312W        W42121  11.022   2.983   4.639  0.2153  0.0371  0.0233
26313W        W42122  16.075  15.473  14.680 -0.3604 -0.2094 -0.2086
26314W        W42123   4.863   6.364   5.070  0.2500 -0.0543 -0.1095
26315W        W42124   9.748  10.452  14.920 -0.1639  0.2236 -0.0741
26316W        W42125   5.709   5.074   1.570  0.3636 -0.1321  0.0328
26317W        W42126  11.393  15.509  13.586  0.4265 -0.1574 -0.1687
26318W        W42127   2.614  15.022   2.702 -0.0922 -0.0814  0.1635
26319W        W42128  14.571  16.486  14.719  0.2306  0.0448 -0.1622
26320W        W42129  16.707   4.498   4.186  0.2051 -0.0099 -0.1064
26321W        W42130   7.078   8.929  14.877 -0.2108 -0.1502  0.4069
26322W        W42131  16.184   6.315  15.615  0.2128  0.0585 -0.5419
26323W        W42132  14.656  10.494   0.097  0.0743 -0.0045 -0.3363
26324W        W42133  10.148  14.220  12.257 -0.0489  0.0942 -0.2898
26325W        W42134  13.689   1.283  14.299 -0.1157  0.0140  0.0296
26326W        W42135  10.385  15.790   2.983  0.0222 -0.1340 -0.0399
26327W        W42136   9.168  17.842   0.825  0.2547 -0.0809  0.0803
26328W        W42137   1.202   3.149  12.968  0.2980  0.2905 -0.1961
26329W        W42138   7.131  12.398   3.477  0.0380 -0.0953 -0.2328
26330W        W42139  16.384   0.526  16.533  0.3106  0.0350  0.0891
26331W        W42140   0.552   3.852  11.286 -0.1604 -0.3785 -0.3395
26332W        W42141  14.022   2.883  13.321  0.0167 -0.2053 -0.1093
26333W        W42142   8.049  16.746  11.988  0.1389 -0.2418  0.4173
26334W        W42143   2.712   4.949  13.244  0.1219  0.0513 -0.0734
26335W        W42144   8.331   5.373   4.293 -0.0931  0.0366 -0.3554
26336W        W42145   2.759  11.181  12.185  0.0330 -0.0321 -0.4440
26337W        W42146  11.370  15.157  12.355 -0.3067  0.0933 -0.0780
26338W        W42147  15.350   7.289   0.198  0.0336 -0.1585 -0.2068
26339W        W42148   7.979   7.680   4.105  0.2783 -0.1483 -0.0467
26340W        W42149   6.846   5.052   5.579 -0.0550  0.1978 -0.0098
26341W        W42150   9.438   2.317  11.692  0.1884 -0.0128 -0.1183
26342W        W42151   5.049   0.027  13.627 -0.0810  0.2805  0.1907
26343W        W42152   1.076   4.936  15.936 -0.1338 -0.1290  0.1643
26344W        W42153   7.630  10.259   1.806  0.0166  0.1462 -0.0990
26345W        W42154  17.026  11.828   1.878  0.2156  0.0920  0.2952
26346W        W42155   8.134   8.803   4.881 -0.0349  0.0616 -0.1613
26347W        W42156   1.748   9.106  10.872  0.1672 -0.1175  0.0616
26348W        W42157  14.866  17.552  11.088  0.3523 -0.3801 -0.3942
26349W        W42158   7.476  16.513  16.545 -0.0050 -0.0620 -0.2943
26350W        W42159  17.774  13.524   5.662  0.0961  0.1892 -0.1611
26351W        W42160  12.930  17.260  16.280 -0.2726 -0.2163 -0.2754
26352W        W42161   4.882  17.689   0.153  0.1145  0.1615 -0.2704
26353W        W42162   2.842  16.478   2.981 -0.4491 -0.1932  0.2456
26354W        W42163   7.705   7.695   3.668 -0.1923 -0.1694 -0.0238
26355W        W42164   8.510  12.064   0.568 -0.2116  0.1500 -0.1673
26356W        W42165  14.225   9.330  16.265 -0.1979 -0.1795  0.1057
26357W        W42166   2.157   4.847   1.782 -0.2472 -0.3853  0.1795
26358W        W42167   2.138  13.745  14.019 -0.1158 -0.0970 -0.1455
26359W        W42168   6.792  15.198  11.402  0.1124  0.4770 -0.3263
26360W        W42169   2.676   6.370  11.545 -0.1828  0.0672  0.0212
26361W        W42170   0.389   3.865   1.989 -0.0503 -0.1802 -0.3443
26362W        W42171  15.250  14.301   5.323 -0.1704 -0.1778  0.1933
26363W        W42172  14.651   4.808   0.265 -0.0587  0.2086 -0.0960
26364W        W42173   5.954  14.621  13.522 -0.1406  0.0336  0.2598
26365W        W42174   8.763   5.980  15.709 -0.1342 -0.1351  0.1085
26366W        W42175   5.042  14.646   3.718 -0.0155  0.1531 -0.0322
26367W        W42176   6.126   6.268  14.853 -0.2234  0.2201 -0.0234
26368W        W42177   5.459   9.874   3.224 -0.2192  0.1996 -0.1480
26369W        W42178   5.381   8.597   1.722 -0.2904  0.2255  0.0946
26370W        W42179   5.707   6.785  12.062 -0.1132 -0.2626  0.0770
26371W        W42180   0.381   5.017  14.611  0.1922  0.2587 -0.0947
26372W        W42181   4.094   3.692  12.485  0.1733  0.0582 -0.1128
26373W        W42182   6.982   7.208  15.680 -0.1312  0.0663 -0.1643
26374W        W42183   9.721   5.414  13.363  0.3159  0.2177 -0.0138
26375W        W42184   3.984  13.095  12.009  0.3207 -0.1275 -0.0630
26376W        W42185  10.412   8.606   1.601 -0.0675  0.1465  0.2242
26377W        W42186   1.067   7.013   2.880 -0.0005 -0.0885  0.1932
26378W        W42187  15.563  12.553  12.141  0.0005 -0.0307  0.0586
26379W        W42188  14.282   9.814  11.282  0.0519 -0.0224  0.1311
26380W        W42189  10.113  17.809  15.960  0.0710 -0.0379  0.0930
26381W        W42190   1.966   9.447  11.214  0.1700 -0.1276  0.3285
26382W        W42191   9.966  17.871  13.334  0.0422  0.4584 -0.2933
26383W        W42192   8.019   1.704   0.635 -0.3054 -0.0247 -0.1890
26384W        W42193   3.507  14.125  11.342 -0.0718  0.1380 -0.2334
26385W        W42194   3.419  17.553  15.265 -0.1677  0.0677  0.1576
26386W        W42195   6.613   4.508   4.699 -0.1611  0.1654  0.0623
26387W        W42196   1.845  12.509  13.900 -0.0599 -0.1887 -0.2045
26388W        W42197  12.561   5.482   0.647 -0.1734 -0.1607  0.1749
26389W        W42198  10.404  12.851  13.264 -0.1755 -0.2456  0.2542
26390W        W42199  17.140  11.250  11.837  0.1253 -0.3986  0.0338
26391W        W42200  12.951   4.146  14.651  0.0317 -0.0891 -0.0069
26392W        W42201   0.245   3.293  16.630 -0.0205  0.0951 -0.0573
26393W        W42202   4.887   2.985   0.688 -0.0627 -0.3124 -0.0739
26394W        W42203   9.394   1.792   4.612 -0.3261 -0.0362  0.1307
26395W        W42204   1.133   9.127   6.049 -0.1199  0.0723 -0.2556
26396W        W42205   0.246   9.361   5.928 -0.1774 -0.0366  0.2576
26397W        W42206   4.716  13.666   3.363  0.0963 -0.2710  0.1198
26398W        W42207   4.921  17.681   4.253 -0.2973 -0.0112  0.2364
26399W        W42208   7.273  16.887  12.001  0.2485 -0.0499 -0.2532
26400W        W42209   4.166   5.422   4.473  0.2388  0.0245  0.0257
26401W        W42210  16.867   2.201   1.244  0.0908 -0.1315  0.2509
26402W        W42211  16.722   9.010   1.221  0.0542  0.0816 -0.3906
26403W        W42212  12.601  14.764  12.964 -0.0841 -0.0973  0.2017
26404W        W42213   6.731  12.141  15.142  0.0025  0.3907  0.1233
26405W        W42214   0.469   4.623  12.463  0.0756  0.0144  0.0798
26406W        W42215   7.732  17.526   4.013  0.0517  0.0112 -0.1839
26407W        W42216   7.710  12.138   2.257  0.0564  0.0889  0.3105
26408W        W42217   3.869  12.774   4.018 -0.0620  0.3063  0.0114
26409W        W42218   9.767  11.388  15.440  0.2480 -0.0715 -0.1422
26410W        W42219  13.152  13.391   5.595  0.1591  0.3499 -0.3273
26411W        W42220  10.884   5.183   3.326  0.0725  0.2440 -0.0376
26412W        W42221  11.893  17.858   1.915  0.0490 -0.0350  0.0752
26413W        W42222   0.497   5.020   3.274  0.1357  0.0891 -0.1774
26414W        W42223  17.090  14.218   5.927  0.0336 -0.1104 -0.3118
26415W        W42224  11.111   8.292  13.118 -0.2358  0.0253 -0.0621
26416W        W42225   7.452   5.321   2.702  0.0849 -0.1914  0.0419
26417W        W42226   7.617   6.387   4.591 -0.1167 -0.1187  0.2139
26418W        W42227  10.645  17.107   5.297  0.0725 -0.1785 -0.0595
26419W        W42228   2.988   6.840   1.655 -0.0056 -0.1489  0.1119
26420W        W42229   0.137   6.154  12.157  0.3160 -0.4169  0.0005
26421W        W42230  17.593  13.375  13.309  0.2545  0.0265 -0.0122
26422W        W42231   5.863   8.226  10.666  0.1180  0.1315 -0.1331
26423W        W42232   2.878   7.950  13.859 -0.2118 -0.1666  0.1017
26424W        W42233   8.326   6.332  12.313  0.0594  0.1102  0.1336
26425W        W42234  15.017  11.505  15.758  0.0907  0.1433 -0.2379
26426W        W42235   9.210   1.955  16.585 -0.0757  0.1708 -0.0561
26427W        W42236  16.314   1.832   3.948 -0.3216 -0.5754 -0.2216
26428W        W42237  10.606   2.719   0.822 -0.0185  0.2527 -0.0130
26429W        W42238   6.098  10.974   2.881 -0.2134  0.1757 -0.0164
26430W        W42239   5.425   4.355  16.278 -0.0099 -0.0448  0.0835
26431W        W42240  12.420  10.277  12.624  0.0975  0.4487  0.1442
26432W        W42241   0.154  12.279   2.869 -0.1902 -0.0411  0.2915
26433W        W42242   5.487   7.047  14.094  0.0456  0.2398 -0.0797
26434W        W42243  13.286  11.070  12.842  0.1649 -0.0147 -0.1334
26435W        W42244  11.192   5.841  13.146 -0.4348 -0.0081  0.0340
26436W        W42245   9.907  13.985  16.612 -0.0165  0.2140  0.1843
26437W        W42246  11.430  16.436   2.668  0.1292  0.2179 -0.0373
26438W        W42247  10.181   8.118   0.434  0.0152 -0.0863  0.0898
26439W        W42248   9.398   2.642   6.624  0.1053 -0.0045 -0.2317
26440W        W42249   0.531  15.319   1.444  0.2221 -0.0309  0.1180
26441W        W42250   1.001  13.468   3.963 -0.0399 -0.0908  0.1053
26442W        W42251   0.598  12.566   3.043 -0.0780 -0.0063  0.1560
26443W        W42252   1.168   1.272  13.855 -0.3207 -0.1283 -0.1040
26444W        W42253  11.650  12.875  13.334  0.1836 -0.1009  0.1216
26445W        W42254  16.581  17.135   4.336  0.1491  0.0156 -0.1286
26446W        W42255   8.614   7.143   5.391 -0.1336 -0.0824  0.0283
26447W        W42256   0.465  15.578  11.580 -0.1028 -0.2125 -0.1119
26448W        W42257   1.063  16.812  14.451  0.1412  0.0008 -0.1457
26449W        W42258   5.483   9.376  13.456  0.0081 -0.1867 -0.2032
26450W        W42259  10.942   2.196   5.047 -0.0477 -0.4104 -0.3744
26451W        W42260  15.473   2.952  12.448 -0.1983 -0.1043 -0.0083
26452W        W42261   2.595   3.555  12.891 -0.1834 -0.2392  0.1900
26453W        W42262  17.193   1.717  11.908  0.1303 -0.1899  0.1006
26454W        W42263   6.031   2.302   2.172  0.1681  0.2104  0.0373
26455W        W42264   7.905  11.687   2.310  0.2076 -0.1420 -0.0516
26456W        W42265   4.568   7.083   4.934 -0.0336 -0.0832  0.1675
26457W        W42266   2.778   5.740   4.185 -0.2053 -0.0066  0.1756
26458W        W42267  10.490  17.251  16.448 -0.1128  0.2626 -0.3004
26459W        W42268  12.141   9.776  16.094  0.0423  0.0960 -0.0124
26460W        W42269   1.509  15.164  14.044 -0.2967  0.1668 -0.5003
26461W        W42270  13.278   3.723  14.480  0.3898  0.1058 -0.1543
26462W        W42271  11.715   5.843   0.059 -0.1190 -0.3196 -0.0830
26463W        W42272   9.277   5.397   3.688  0.0147 -0.0443 -0.0773
26464W        W42273   2.944  13.496  15.094  0.0073 -0.0827  0.1095
26465W        W42274   9.319  13.386   4.248 -0.0218 -0.0622 -0.2643
26466W        W42275   8.996  11.073  11.375 -0.1417  0.1130 -0.1494
26467W        W42276   9.264  15.572  12.006 -0.1803 -0.0596 -0.0622
26468W        W42277  10.011   1.445  15.140  0.0815 -0.0333  0.2813
26469W        W42278  11.618  13.236  13.713  0.0924 -0.0157 -0.3349
26470W        W42279   6.043   0.209   3.272 -0.1472 -0.1428  0.1047
26471W        W42280   2.116   1.275   2.905  0.1316  0.1099  0.0023
26472W        W42281   9.052  16.295  14.322  0.1265  0.1529 -0.1368
26473W        W42282   2.809   2.106   0.942 -0.0021 -0.0221  0.1087
26474W        W42283  11.915  13.713   5.615  0.0805  0.1236 -0.1178
26475W        W42284   5.863   4.754  14.561 -0.2302  0.2747  0.0026
26476W        W42285  11.609   2.777   0.814 -0.0169  0.0817 -0.2494
26477W        W42286  11.106  16.281  11.657  0.2135 -0.3805  0.0975
26478W        W42287   2.149   8.061  15.890  0.0452  0.0444  0.0262
26479W        W42288  11.645  16.536  14.608 -0.2245 -0.2466  0.0609
26480W        W42289  17.443  10.251  12.021  0.0809 -0.1446  0.1372
26481W        W42290   7.511  17.546  14.345 -0.0587 -0.0837 -0.2193
26482W        W42291  13.077   1.776   0.929  0.1021  0.0654 -0.0655
26483W        W42292  11.047  15.872  14.282 -0.0525  0.1654 -0.0118
26484W        W42293  11.327   2.618   3.186 -0.0002 -0.1742  0.2025
26485W        W42294  14.129   2.255   1.396 -0.3596 -0.1222 -0.1653
26486W        W42295  13.401   8.866  11.750 -0.1796  0.2901  0.1185
26487W        W42296   1.662  12.031  13.133  0.1630  0.1820  0.1121
26488W        W42297  11.784  15.443  16.100 -0.0092  0.1099  0.1552
26489W        W42298   8.166  13.351  15.673  0.0229 -0.2642 -0.3744
26490W        W42299  14.240   5.416   4.538  0.0620 -0.2929 -0.1785
26491W        W42300   5.630   2.689  14.612  0.0741 -0.2461  0.1361
26492W        W42301   3.147  13.140  11.747  0.2410  0.0415  0.3078
26493W        W42302  10.124  11.941   2.630  0.2966  0.1554  0.0746
26494W        W42303   1.309   4.269   0.083  0.1935 -0.3279 -0.0199
26495W        W42304  15.726   0.777   3.484  0.1464  0.0349 -0.3384
26496W        W42305  14.032   1.593  12.850  0.0001 -0.1102  0.1697
26497W        W42306  13.584   6.791   3.695  0.1431 -0.3077 -0.0669
26498W        W42307  12.416  14.161  14.283  0.2995  0.1092 -0.1469
26499W        W42308  12.115  13.931   3.291 -0.0656  0.1100  0.1143
26500W        W42309  10.529   5.845   2.725  0.0567  0.1364 -0.0169
26501W        W42310  11.000  11.265   1.255 -0.0645  0.0639  0.0024
26502W        W42311   3.522  17.135   4.338  0.0047  0.0782  0.2633
26503W        W42312  12.784   9.451   1.561  0.2743 -0.2682  0.1627
26504W        W42313   4.650   1.722  16.700  0.1035  0.0391 -0.3607
26505W        W42314   0.220  13.003   5.674  0.1715  0.1916  0.0460
26506W        W42315  11.269  13.556   1.151 -0.1325  0.0598  0.0172
26507W        W42316   4.402  13.798  15.617 -0.0498 -0.0479 -0.1278
26508W        W42317  12.436  17.229  13.102  0.0875 -0.4139 -0.2673
26509W        W42318   9.036  15.052  14.854 -0.3008 -0.0794  0.2309
26510W        W42319  16.285  14.487  16.072  0.0640  0.2875  0.3266
26511W        W42320   8.993  14.332  15.486  0.1261  0.0884  0.5003
26512W        W42321  11.708  17.664  11.971 -0.2222  0.1892 -0.1639
26513W        W42322   5.121   7.016   1.135 -0.0091  0.0339 -0.1689
26514W        W42323  17.504  11.588   4.501 -0.0871 -0.2284  0.1096
26515W        W42324  11.743  10.256  15.338  0.2161 -0.0432  0.0680
26516W        W42325   4.222   6.726   0.576  0.1241  0.1579  0.3660
26517W        W42326   9.355  13.914   2.320 -0.2335  0.0448 -0.0169
26518W        W42327  16.312   0.094  15.202 -0.0203 -0.0074 -0.0449
26519W        W42328   1.803   1.491   2.463 -0.0683  0.0077 -0.1024
26520W        W42329   7.885   9.104   1.510  0.1451  0.2529  0.0872
26521W        W42330  13.586   3.921  13.227 -0.1598  0.0223 -0.1712
26522W        W42331   3.230   0.071   5.076  0.0662 -0.1182 -0.1164
26523W        W42332  15.793  13.446   0.974  0.3075  0.2038  0.0573
26524W        W42333   5.226  15.200  14.064 -0.0150  0.0221  0.2136
26525W        W42334  12.230   7.276  14.968 -0.2083  0.1351 -0.0910
26526W        W42335  11.049  11.073   5.362 -0.0378  0.0519  0.1537
26527W        W42336   4.197  16.832  11.976 -0.0050 -0.1887  0.2856
26528W        W42337  10.833  14.988   2.801 -0.1086 -0.1070 -0.2991
26529W        W42338  13.437   4.185  11.745 -0.1155  0.1978  0.3146
26530W        W42339   3.466  15.972  15.914  0.0629  0.2241 -0.0938
26531W        W42340  17.764   6.793   4.633  0.0623 -0.0246  0.2338
26532W        W42341   5.335  12.251  14.776  0.1475 -0.2334  0.0918
26533W        W42342  12.547   1.912  11.716 -0.3035 -0.3187  0.0222
26534W        W42343   2.313   1.672   3.231  0.1395 -0.1486  0.0305
26535W        W42344   9.965  12.344   2.359 -0.0115  0.0104  0.3425
26536W        W42345   2.313   8.068   4.282 -0.2708  0.1075  0.1318
26537W        W42346   3.070  13.002   0.616  0.0264  0.2763  0.2755
26538W        W42347   6.240   3.895   1.568 -0.1203 -0.0304 -0.0058
26539W        W42348  13.437   8.206   2.858  0.0632  0.0138  0.0057
26540W        W42349   4.898  17.558  14.286 -0.1189  0.2534  0.1941
26541W        W42350  14.662   9.116  14.366  0.1712 -0.0803  0.3046
26542W        W42351   3.302  14.745  10.653 -0.0256 -0.1941 -0.1045
26543W        W42352  12.147  17.316  14.051  0.0457  0.1056 -0.1678
26544W        W42353   0.040   2.362  14.481 -0.1028  0.5109  0.0453
26545W        W42354   8.706  16.537   5.818 -0.0148 -0.2455 -0.1095
26546W        W42355  13.564  14.063   0.434 -0.1878 -0.0417 -0.0427
26547W        W42356   0.939  12.897   4.095  0.0330  0.2013  0.1329
26548W        W42357   0.855   1.564  16.255 -0.1647  0.0965 -0.0655
26549W        W42358   6.684   6.575  12.211 -0.1311 -0.0021 -0.0249
26550W        W42359  14.547  11.654  14.519  0.0077  0.4914  0.2671
26551W        W42360   4.534   3.858  12.788 -0.0922  0.2003  0.1698
26552W        W42361  13.578   5.445   3.856  0.0774  0.1796 -0.3543
26553W        W42362  15.673   8.101   4.909  0.3101  0.0784  0.0124
26554W        W42363  17.686   3.986   3.633  0.1381  0.3596 -0.2027
26555W        W42364   9.778   2.357   4.792 -0.0670  0.2253  0.1631
26556W        W42365   7.756   8.161  13.956  0.2720 -0.0671 -0.2257
26557W        W42366  17.244  16.900  14.935  0.0251  0.2384 -0.1799
26558W        W42367  16.193  12.152   4.465  0.0047 -0.2797  0.2686
26559W        W42368   7.820  10.385   1.341 -0.0520  0.1289  0.2529
26560W        W42369   0.582   3.214   0.385  0.0552  0.1007  0.1454
26561W        W42370   5.945  11.627   1.118  0.2519 -0.0280 -0.1022
26562W        W42371   3.339   9.773   2.377  0.0271  0.0087 -0.0945
26563W        W42372  10.962   1.073  11.358 -0.0699  0.0308  0.0170
26564W        W42373   1.890   5.237   1.999 -0.1898 -0.0232 -0.2576
26565W        W42374   2.260  12.151   3.442 -0.0134 -0.1593  0.0540
26566W        W42375   6.655   5.636   3.013  0.2769 -0.0433  0.1326
26567W        W42376  11.762  11.259   5.670 -0.0558 -0.1933 -0.1626
26568W        W42377  12.047  15.799  14.647  0.0725  0.0670 -0.0737
26569W        W42378  15.936   9.350  12.353 -0.1115  0.0224  0.2620
26570W        W42379  12.897  17.766   5.888  0.2454  0.0357  0.0092
26571W        W42380  16.545  11.241  11.796  0.3030 -0.2831  0.0062
26572W        W42381   8.759   9.433   5.240 -0.0755 -0.3044 -0.0792
26573W        W42382   2.210   7.184   3.515 -0.0753  0.1641  0.1072
26574W        W42383   1.190   0.687  15.763  0.0404  0.1371  0.0766
26575W        W42384  16.111   9.290   3.378  0.1239  0.4409  0.2045
26576W        W42385   8.989  17.800  16.563 -0.1194  0.2725 -0.0822
26577W        W42386  14.204   4.891   0.855  0.0384 -0.2368 -0.1042
26578W        W42387   7.237   6.943   4.069  0.0670  0.2074  0.0581
26579W        W42388  14.881   2.297   0.183  0.0721  0.0379 -0.4435
26580W        W42389   0.520  11.088   1.863 -0.0272 -0.3337 -0.0149
26581W        W42390  16.824   2.025  14.934 -0.1011  0.0068 -0.1363
26582W        W42391   6.241  14.548  14.500  0.2681  0.1982  0.3515
26583W        W42392   2.725   5.698   0.731 -0.3631  0.0269 -0.0222
26584W        W42393   3.300  15.219  12.645 -0.1166  0.1781  0.1367
26585W        W42394  12.556   2.510   5.039  0.1286 -0.2778  0.3416
26586W        W42395   5.323   1.264   3.733 -0.0774 -0.1932  0.0335
26587W        W42396   1.428   6.468   3.897 -0.6571 -0.0354  0.0199
26588W        W42397  14.099   1.680  15.231 -0.2082  0.2457 -0.1471
26589W        W42398   5.744  17.420   3.583 -0.0600  0.0097  0.0654
26590W        W42399   3.230  11.141  12.169  0.3833  0.2705 -0.1699
26591W        W42400  12.380   7.905   5.373 -0.0252 -0.1829 -0.2428
26592W        W42401  10.310  10.022  13.356  0.0263 -0.0135  0.0176
26593W        W42402  16.181   0.093   1.128  0.1011  0.1086 -0.0999
26594W        W42403  10.587   1.813  11.311 -0.1497 -0.1233 -0.3646
26595W        W42404   0.863   9.177  13.955  0.2926 -0.1456 -0.1169
26596W        W42405   5.733  16.008  15.889 -0.1027  0.0905  0.1934
26597W        W42406  11.999  17.945  13.533  0.2402 -0.0134 -0.2036
26598W        W42407  13.264   5.241   2.431 -0.1684  0.0438  0.1306
26599W        W42408   8.732   7.132   4.295 -0.3931 -0.0689  0.2228
26600W        W42409  16.692   2.001   5.187 -0.1130  0.1885  0.0365
26601W        W42410   3.247  17.780  11.567 -0.0176 -0.0027  0.3359
26602W        W42411  15.772  17.637   5.201  0.1223  0.0760  0.0633
26603W        W42412  13.533   2.373   2.633  0.0125 -0.0437 -0.2055
26604W        W42413   8.230   1.267  16.160  0.3255  0.0878 -0.1106
26605W        W42414   1.870   6.948   4.637  0.1535  0.0835 -0.3319
26606W        W42415  17.399  10.503   3.085  0.2082 -0.1775  0.1852
26607W        W42416   0.520  14.296   0.023  0.0172  0.0592  0.2076
26608W        W42417  11.471  13.398  12.688 -0.1056  0.0971  0.3433
26609W        W42418   2.610   8.203  11.609 -0.0178  0.2889 -0.1705
26610W        W42419   7.496  13.795  12.868  0.1907 -0.0155  0.0677
26611W        W42420   3.756  11.732  15.387 -0.0173  0.3295  0.1967
26612W        W42421   0.352  16.946  15.657 -0.2277 -0.2924  0.0672
26613W        W42422   1.754  17.017   0.642 -0.0161 -0.3207 -0.1630
26614W        W42423   4.026   5.816   4.810 -0.2046 -0.0103  0.2412
26615W        W42424  14.771  10.796   3.383 -0.2028  0.2757  0.0696
26616W        W42425   0.400  15.812   0.571  0.1311 -0.0880  0.1664
26617W        W42426   7.935   6.704  13.137  0.2422  0.2985 -0.1661
26618W        W42427   4.978   6.239   2.163 -0.2507  0.2078 -0.2069
26619W        W42428   7.825  15.064   3.994  0.3926  0.2493 -0.0692
26620W        W42429   3.154   3.616  14.573  0.1101 -0.2915  0.1119
26621W        W42430   7.037  16.686   5.749 -0.0083 -0.1158 -0.3823
26622W        W42431   8.888   3.544  16.305  0.2197 -0.0871 -0.0610
26623W        W42432   4.761  12.549   1.618 -0.0479 -0.1018  0.1942
26624W        W42433  13.703  12.148  13.081 -0.3671  0.1588 -0.0434
26625W        W42434  11.800   3.265  13.437  0.0099  0.0637  0.3164
26626W        W42435   1.467  17.010  12.125 -0.0738 -0.2422  0.2838
26627W        W42436   3.844  17.539   4.550  0.0141  0.0474  0.0522
26628W        W42437  17.001   3.538   3.058  0.3466 -0.1750  0.0585
26629W        W42438   4.491  11.033   4.707  0.0320 -0.1451 -0.0311
26630W        W42439   2.825   2.738  14.242 -0.1862  0.1684 -0.0751
26631W        W42440  14.363   3.008   1.710 -0.0828 -0.1198 -0.2303
26632W        W42441  15.839   8.363   4.262  0.0529  0.0462  0.2194
26633W        W42442  10.418   9.217  13.851  0.0247  0.2345 -0.1489
26634W        W42443   3.531  16.746   0.150 -0.0959  0.1954  0.0618
26635W        W42444   3.545   4.681   5.399  0.0958  0.0138  0.1814
26636W        W42445   1.512   8.219  12.307  0.0636 -0.1714 -0.0136
26637W        W42446  15.769  14.704  11.910 -0.0868  0.0811 -0.0527
26638W        W42447   7.584  12.368   0.270  0.1260  0.1396 -0.0760
26639W        W42448   3.575  12.289  13.217  0.1445  0.1887 -0.0455
26640W        W42449  12.482  14.866   3.671  0.1306  0.1906  0.3949
26641W        W42450   8.303   8.217  12.119 -0.0187 -0.1646  0.0093
26642W        W42451  12.840  12.377  11.010 -0.1671  0.3975  0.0476
26643W        W42452   5.579   9.059   3.204  0.0090 -0.2573 -0.0737
26644W        W42453   7.339   5.181   0.065 -0.0686 -0.0280 -0.0036
26645W        W42454   5.317   3.800  11.889 -0.2632  0.0364  0.1673
26646W        W42455   9.049   0.191  14.921 -0.0676  0.1370  0.0976
26647W        W42456   3.835   5.667  14.674 -0.1961  0.0418  0.2728
26648W        W42457  14.063  11.119   0.566 -0.2194 -0.2000 -0.0730
26649W        W42458  17.422  17.740  15.099 -0.2237  0.1344  0.1640
26650W        W42459   2.465  12.885   3.831  0.3217  0.3432 -0.0163
26651W        W42460  12.215  15.761   4.164 -0.2292 -0.2247 -0.0031
26652W        W42461  13.548  16.118  16.002  0.1328 -0.0001  0.2317
26653W        W42462  12.952   3.637   3.952 -0.0072 -0.0631 -0.1191
26654W        W42463   8.782   0.698  13.974  0.2623  0.1490  0.0519
26655W        W42464   3.860   6.465   1.322 -0.1528  0.0680 -0.2075
26656W        W42465  13.890  14.477  11.230  0.0278 -0.2888  0.0865
26657W        W42466   3.416  14.655   4.739  0.0486 -0.0721  0.0704
26658W        W42467  11.663  12.128  11.757 -0.2914  0.1692 -0.1503
26659W        W42468   9.910  15.092   5.899  0.0816  0.0296  0.2226
26660W        W42469   5.953   3.336   2.854  0.1343  0.1201 -0.4274
26661W        W42470  17.875   6.680  10.881 -0.3015  0.0477  0.0315
26662W        W42471  13.644   6.629   5.835 -0.1750 -0.0219 -0.2331
26663W        W42472  16.152  13.649  12.645  0.0345  0.0238 -0.2217
26664W        W42473   1.401  15.044   5.460 -0.4053 -0.0219 -0.0420
26665W        W42474   9.571   0.942   1.558  0.2813  0.2581 -0.3963
26666W        W42475  16.276  11.239   3.102 -0.0091 -0.1794 -0.0125
26667W        W42476   9.751   2.929  12.539  0.0918  0.0389  0.0786
26668W        W42477  15.173  12.505   0.333 -0.0535  0.1302 -0.0692
26669W        W42478   0.673  15.065   4.821 -0.1300  0.1312 -0.0360
26670W        W42479   3.445   1.703   3.092 -0.0473 -0.1029 -0.4318
26671W        W42480  11.147   8.067   3.012 -0.0370  0.1734 -0.0114
26672W        W42481   3.032  15.307   2.489 -0.0297  0.1396 -0.0039
26673W        W42482  17.241  16.434   3.125  0.0218 -0.1077  0.3013
26674W        W42483  12.447   7.077   1.557 -0.0110  0.0584  0.1080
26675W        W42484  11.202  12.680  13.234  0.0130 -0.0754 -0.1647
26676W        W42485   9.204   4.825   0.549 -0.4014 -0.1048  0.0040
26677W        W42486   7.246  13.019  14.746 -0.3427  0.1064  0.0654
26678W        W42487   7.794   0.446  14.270 -0.0465  0.1867 -0.0374
26679W        W42488  12.183   6.799   0.317 -0.2387 -0.0996  0.1126
26680W        W42489   9.798   6.814  14.823 -0.2660 -0.0742  0.0654
26681W        W42490   9.723  15.396   0.013  0.0273 -0.1054 -0.1904
26682W        W42491   3.759  15.043  15.783 -0.2883 -0.0992  0.1003
26683W        W42492   7.266  14.337  15.267  0.1533  0.0559  0.1302
26684W        W42493  15.203   1.227   2.928 -0.1546 -0.0699  0.2206
26685W        W42494   8.240   0.259   3.104 -0.2999  0.0936 -0.4777
26686W        W42495  15.354   9.607   6.255  0.0329 -0.1119  0.1477
26687W        W42496   1.309   4.039   5.525 -0.0690  0.1447  0.1097
26688W        W42497  15.545   2.638   1.673 -0.0023 -0.0400  0.1133
26689W        W42498  14.867   3.280   6.170  0.0310 -0.0435 -0.0208
26690W        W42499  15.332   1.557  12.016  0.0282 -0.1953  0.0901
26691W        W42500   8.446   7.343   2.502 -0.2585  0.1475  0.2649
26692W        W42501  16.264   3.419   0.345 -0.0848 -0.2431 -0.2352
26693W        W42502   6.136   0.914  13.208 -0.0592 -0.0628 -0.0746
26694W        W42503  17.531   5.673   0.445  0.2587 -0.0891 -0.0963
26695W        W42504  14.718   1.858   1.400 -0.1389  0.1097  0.1905
26696W        W42505   0.540   8.123   0.009 -0.1200  0.1068 -0.0078
26697W        W42506  11.344   6.703  15.781  0.3106 -0.1964 -0.3003
26698W        W42507  12.630   4.062  13.210 -0.2802 -0.2564 -0.4274
26699W        W42508  15.072  14.134   4.706 -0.0689  0.1081  0.0111
26700W        W42509   3.497  13.257   4.201 -0.1261  0.4851 -0.0410
26701W        W42510  16.222   7.869   5.058 -0.3697 -0.2218  0.1809
26702W        W42511  12.161   6.728   3.678 -0.3769  0.0741  0.0053
26703W        W42512  15.678  10.572  14.507 -0.2918  0.0612 -0.1990
26704W        W42513  17.888   1.136   3.754 -0.0714 -0.0515 -0.2066
26705W        W42514  17.853  17.804   1.937 -0.0314 -0.0951 -0.0331
26706W        W42515   9.122  13.821   1.799 -0.0730  0.2846 -0.0506
26707W        W42516  16.245  13.503   1.763  0.0095  0.0285  0.0659
26708W        W42517  17.750  12.214   2.378 -0.2493 -0.0058  0.0983
26709W        W42518   1.960   2.867  15.802 -0.0260  0.1864 -0.0154
26710W        W42519  14.090  15.605   4.937 -0.0396 -0.2459  0.0040
26711W        W42520   1.814  17.631  14.999  0.1850 -0.0532 -0.2468
26712W        W42521  13.721   4.497  15.153 -0.1753 -0.0419  0.2647
26713W        W42522  11.385   2.702   3.710 -0.0741 -0.0515  0.1331
26714W        W42523  15.410   3.517  15.554  0.1007 -0.0512 -0.1612
26715W        W42524  10.937   5.360   1.152 -0.0352  0.2214  0.0867
26716W        W42525   5.748   0.456  13.009 -0.1823 -0.0108  0.0232
26717W        W42526  14.632   4.375   2.486 -0.0096  0.0369  0.1688
26718W        W42527   9.660   9.890   0.477  0.0763 -0.1809  0.1526
26719W        W42528   8.240  12.835  12.674  0.2369  0.2180 -0.1940
26720W        W42529   7.555  14.686   1.835  0.1158  0.3057 -0.1533
26721W        W42530   6.620   0.614   4.540 -0.0141  0.3967 -0.3456
26722W        W42531   2.461  15.435   2.303  0.0104  0.0498  0.1177
26723W        W42532   0.614  11.725  13.487  0.0779 -0.0795  0.2217
26724W        W42533   1.034  11.869  13.252 -0.0541  0.1438  0.0110
26725W        W42534   7.573  10.724  11.120 -0.0242 -0.3184  0.2149
26726W        W42535   5.441   5.325  16.233 -0.1662  0.1247 -0.2203
26727W        W42536   9.839  15.214   0.907  0.1254 -0.1289  0.2377
26728W        W42537  13.181   3.746  13.446 -0.2535  0.1788  0.0901
26729W        W42538   2.221  15.857   4.686 -0.2121  0.2787 -0.2643
26730W        W42539   9.261  17.786  15.339  0.0190  0.1968 -0.0744
26731W        W42540   9.404  14.515  14.782  0.1583 -0.3301  0.0199
26732W        W42541  11.293  11.863   2.507 -0.1457 -0.3078  0.0756
26733W        W42542  17.834   0.082  13.898  0.3792  0.1439  0.2329
26734W        W42543  10.320   3.311   2.191 -0.1559  0.0841 -0.2317
26735W        W42544   5.614  12.298   5.407  0.2100 -0.1214  0.2964
26736W        W42545  13.428   7.237  13.452  0.2217 -0.2238 -0.0329
26737W        W42546   1.682   0.660  15.084  0.0229  0.2176  0.3206
26738W        W42547  13.620   6.156   4.948  0.2614  0.0475  0.0293
26739W        W42548  10.532   7.305   5.777 -0.0457 -0.0030  0.0546
26740W        W42549  15.890   2.871  13.655 -0.3667 -0.2793 -0.2371
26741W        W42550   5.170   5.753  12.811  0.0295  0.0405 -0.1804
26742W        W42551   2.527   5.518  13.591 -0.3175 -0.4374  0.1810
26743W        W42552   2.761   1.261   4.673  0.0716 -0.0380 -0.0237
26744W        W42553  14.535   0.893   1.048  0.0402 -0.1059  0.1727
26745W        W42554  16.557  15.454   1.525 -0.0896  0.2286 -0.0103
26746W        W42555   5.551  12.780  16.708 -0.0969  0.1204  0.0843
26747W        W42556   0.696  15.267  15.503  0.0833 -0.2180  0.1393
26748W        W42557   5.299  14.164  13.941 -0.0639 -0.2213  0.0255
26749W        W42558  12.826   7.951  16.432 -0.1602  0.3925  0.2455
26750W        W42559   0.674  16.257   4.904  0.2188 -0.0048 -0.1966
26751W        W42560  14.174   2.569   0.876  0.0981 -0.0113 -0.1511
26752W        W42561  10.174  15.698   2.018  0.0310 -0.0498 -0.2424
26753W        W42562  15.906   3.670  11.421 -0.2219 -0.1133  0.1082
26754W        W42563   1.138  17.699  11.887 -0.1952 -0.0221  0.0955
26755W        W42564   8.306   1.614   4.939 -0.0572 -0.0593 -0.1469
26756W        W42565   5.551  10.107   1.561  0.1040 -0.1138  0.3515
26757W        W42566  16.488  10.965  13.378 -0.3096  0.2117 -0.0455
26758W        W42567   7.965   4.730  12.050  0.0218  0.0562 -0.3622
26759W        W42568  13.136  12.171   1.690 -0.0239  0.0733 -0.1621
26760W        W42569   4.236  16.775   2.592 -0.1165 -0.5583 -0.0160
26761W        W42570   9.855   6.757   2.280  0.0078 -0.0410  0.0319
26762W        W42571  12.136   1.853  12.118 -0.0571  0.2704  0.0864
26763W        W42572  17.707   4.116   1.990  0.1018 -0.0938 -0.0051
26764W        W42573   5.204   5.212   2.849 -0.1252  0.0115 -0.0444
26765W        W42574   3.291   3.779   3.384  0.0355  0.1061  0.3748
26766W        W42575  16.801   3.443  15.949  0.0318  0.0410 -0.0913
26767W        W42576  10.337   8.881   4.367 -0.0708 -0.2432  0.0726
26768W        W42577   0.153  11.694   4.605  0.0443  0.0593 -0.0452
26769W        W42578   8.007  14.888   4.749 -0.1122  0.1678 -0.2490
26770W        W42579   1.809  12.645   4.476 -0.0270 -0.0464 -0.0009
26771W        W42580   3.174   3.865   5.158  0.0681 -0.3730 -0.1152
26772W        W42581   6.166  12.816   0.460  0.1122  0.1944  0.0020
26773W        W42582   4.154  17.219   4.703 -0.2507  0.1676 -0.3055
26774W        W42583  15.713  14.719   4.150 -0.4617 -0.0317 -0.0619
26775W        W42584   5.606   5.173  11.296  0.0673  0.4124  0.0029
26776W        W42585   2.524  16.930  12.571 -0.1259 -0.1793 -0.1109
26777W        W42586   0.166  17.276   0.639 -0.2858  0.0658  0.0324
26778W        W42587  11.700   8.673  13.767  0.1814  0.0142  0.1940
26779W        W42588  14.285   3.230  15.531 -0.2813 -0.0648 -0.0662
26780W        W42589   7.381  13.269  15.544 -0.0450  0.0329  0.0726
26781W        W42590   9.106  15.358  16.267 -0.0517 -0.1190  0.2176
26782W        W42591   9.203  17.510   3.865  0.0550 -0.1027 -0.1624
26783W        W42592  11.051  17.723   0.889  0.0855 -0.0339  0.1634
26784W        W42593   2.267   9.741   3.616 -0.0865  0.0035 -0.0639
26785W        W42594  16.760   2.526  15.041  0.2764 -0.1217 -0.1097
26786W        W42595   4.079   0.238   1.157  0.0805 -0.1304 -0.2124
26787W        W42596  13.668   1.964  12.257  0.0474 -0.3494  0.0851
26788W        W42597  10.852   5.025  15.404  0.1683 -0.2010 -0.0668
26789W        W42598   2.369   6.299  15.332 -0.0798 -0.1722  0.2049
26790W        W42599  17.501   4.546  12.645  0.1191 -0.3211 -0.0425
26791W        W42600  13.194   3.080   3.842  0.2673  0.0834 -0.1844
26792W        W42601  15.715   5.306   3.823 -0.0920  0.2630 -0.2242
26793W        W42602   2.917   3.197   0.976 -0.1378  0.1040 -0.2590
26794W        W42603  11.634   7.432   4.261  0.0706 -0.1410 -0.2471
26795W        W42604   2.421   2.660   0.455 -0.0538 -0.0135 -0.0961
26796W        W42605   3.472  14.446  12.661 -0.1309 -0.1783  0.1277
26797W        W42606   4.624   3.612   2.306  0.0560 -0.4393 -0.1524
26798W        W42607  14.656  10.851  14.089  0.1651 -0.1298 -0.1286
26799W        W42608   0.515   7.457   1.711  0.0138  0.0013  0.0034
26800W        W42609  10.785   3.097  13.073  0.0688 -0.1237 -0.2841
26801W        W42610   8.705   4.857  11.888 -0.0551 -0.0687  0.1442
26802W        W42611   5.365  17.371   2.434  0.1981  0.0722 -0.0297
26803W        W42612   9.633  11.029  12.090  0.1906 -0.1774 -0.1786
26804W        W42613  13.061  13.476  14.801  0.2137 -0.2221  0.0652
26805W        W42614   4.173   9.570  14.758  0.1037 -0.0994 -0.1662
26806W        W42615  10.966  10.813   1.403  0.0304  0.1938 -0.0055
26807W        W42616   7.378  17.496  12.208  0.3285 -0.0075  0.1747
26808W        W42617   0.701   7.778  13.757 -0.0810  0.2986 -0.1874
26809W        W42618  16.203  15.770   1.782 -0.2052  0.0196  0.0932
26810W        W42619  13.578   7.635  13.761 -0.1449 -0.2273  0.4172
26811W        W42620   9.575  17.838   2.620 -0.0434  0.0811 -0.1279
26812W        W42621  16.017   5.922  14.757  0.1413  0.0452  0.0950
26813W        W42622  15.175  12.945  13.373  0.1649 -0.1828  0.0441
26814W        W42623  10.854  12.762   2.542  0.0663  0.0746  0.1270
26815W        W42624   1.944  13.390  13.317 -0.2074  0.4846  0.0056
26816W        W42625  13.292  15.158   4.518  0.3567  0.3647  0.0516
26817W        W42626   0.053  10.607  15.852 -0.3912  0.2804  0.1999
26818W        W42627   0.901   4.611   0.411 -0.0401 -0.1279  0.2435
26819W        W42628  10.532   9.993  14.382 -0.2588  0.1430 -0.1300
26820W        W42629   8.471  17.054   2.421  0.4108 -0.0236  0.0141
26821W        W42630   8.621   4.128  12.678 -0.2710 -0.1593  0.0384
26822W        W42631   8.698   0.335  12.689 -0.2235 -0.0325 -0.1253
26823W        W42632   3.813  11.213   4.510 -0.2691 -0.0990 -0.1769
26824W        W42633   2.637   3.841   5.742  0.1259  0.1069  0.1183
26825W        W42634  13.422  15.364  14.976 -0.2635 -0.1348 -0.2600
26826W        W42635   7.916   2.457  15.240  0.2902  0.1692 -0.0126
26827W        W42636  17.373   1.403  12.848 -0.1858  0.0576 -0.1063
26828W        W42637  13.626  15.406   5.302 -0.0182  0.3673 -0.4988
26829W        W42638  17.734   8.000  14.068  0.0374 -0.0127  0.4119
26830W        W42639  16.757  12.309   1.560 -0.1420  0.1674  0.0205
26831W        W42640   0.423   9.949  12.182  0.0020  0.1184  0.0776
26832W        W42641  16.446  13.803   3.347 -0.0502  0.4255  0.0035
26833W        W42642   7.627  13.193  15.117  0.1596  0.2958  0.1115
26834W        W42643   6.879   6.759  15.905  0.2708 -0.1733  0.0861
26835W        W42644   3.305   5.699   3.866 -0.0367  0.2489 -0.0480
26836W        W42645  16.675   7.267   0.348 -0.1840  0.1796  0.0065
26837W        W42646   7.022  14.975   3.041 -0.2359  0.2585  0.2251
26838W        W42647   5.188   9.638   0.687  0.3084 -0.1336 -0.2233
26839W        W42648   3.131  15.046  13.656 -0.2171  0.0249 -0.0641
26840W        W42649  12.455   1.826   4.169 -0.0639  0.1411 -0.3967
26841W        W42650   3.481   3.161  14.911 -0.0680 -0.0038 -0.1090
26842W        W42651   7.814   0.526   3.534 -0.0564 -0.2115 -0.2092
26843W        W42652  16.821   8.765  15.230 -0.2658  0.0574 -0.1313
26844W        W42653   8.263  12.919  13.174 -0.1282  0.3825  0.1888
26845W        W42654   9.766   4.508   5.865 -0.0113  0.3283  0.0167
26846W        W42655  14.846   2.790  13.880  0.2105 -0.0528  0.4135
26847W        W42656  17.484   4.257   5.267 -0.1280 -0.1689  0.2696
26848W        W42657   6.429   8.802   4.328  0.2536 -0.1426  0.0858
26849W        W42658   5.474   8.568   1.006  0.0769 -0.2326  0.2018
26850W        W42659   3.506  13.559  15.779  0.1687 -0.2945 -0.1063
26851W        W42660  12.140  10.276   2.770  0.3765 -0.1229  0.0616
26852W        W42661   7.129  17.899   0.135  0.1435 -0.1157 -0.0741
26853W        W42662   0.701  14.317   4.948 -0.1701 -0.0475  0.1572
26854W        W42663  11.061   5.508  16.325  0.0866  0.0415  0.0620
26855W        W42664  10.824  13.789   0.980  0.0659 -0.1498  0.1210
26856W        W42665  10.974   2.156   1.055  0.1308  0.1577  0.2166
26857W        W42666   7.220   6.567  12.006 -0.0416 -0.0357  0.2150
26858W        W42667   1.929  11.132  12.005 -0.2949 -0.3326  0.0566
26859W        W42668   2.806  10.878   0.893  0.1510  0.1457  0.2445
26860W        W42669  13.909   9.946  12.608 -0.3569  0.0174  0.2129
26861W        W42670  11.672  16.083  15.354  0.3903  0.1460  0.0926
26862W        W42671  10.534   6.621  16.355 -0.1666 -0.0818 -0.0626
26863W        W42672   0.815  10.611  13.669 -0.2370  0.0670 -0.0889
26864W        W42673  12.541   0.274  15.975  0.0612 -0.1950 -0.0983
26865W        W42674   9.821   4.001   3.485  0.0547 -0.1476 -0.0227
26866W        W42675   0.622  11.453  11.668  0.2525 -0.1768  0.0148
26867W        W42676   6.342   2.411   5.416  0.2138 -0.0045  0.1736
26868W        W42677  15.988   3.734  14.193  0.0727  0.0589 -0.0938
26869W        W42678  17.443   6.984  12.647 -0.2841 -0.0377  0.0925
26870W        W42679   7.869   3.352   4.106 -0.1790  0.2998 -0.1415
26871W        W42680   2.273   9.631  10.360 -0.0708 -0.1210 -0.2166
26872W        W42681   5.388  13.176   6.108  0.1781  0.0547  0.1281
26873W        W42682  16.307   5.854  13.773  0.1844 -0.1953 -0.4768
26874W        W42683   8.831   3.509  10.899  0.1798 -0.0502 -0.2863
26875W        W42684  11.745   2.168  13.858 -0.1264 -0.1320 -0.2516
26876W        W42685  15.316   3.933   4.378  0.0035  0.0221  0.4041
26877W        W42686  17.813   2.749   0.643  0.2872  0.0474  0.1271
26878W        W42687   6.343   1.387   5.490 -0.1540  0.0885 -0.1281
26879W        W42688   5.695  15.257  16.139  0.1815  0.3457  0.1207
26880W        W42689   4.907  17.185   0.948 -0.0014  0.4617  0.0404
26881W        W42690   1.597   9.313  13.785 -0.0642  0.0013 -0.1464
26882W        W42691   5.457   8.970  15.616  0.0386  0.0073 -0.1093
26883W        W42692   2.001  10.701  16.137  0.2242 -0.1055  0.0226
26884W        W42693  17.075   8.356  11.452  0.0503  0.2374  0.1791
26885W        W42694   3.202  12.036  12.159 -0.2954  0.0284  0.0284
26886W        W42695   4.138  17.015   0.086  0.0250 -0.3884 -0.0595
26887W        W42696  14.523   5.230  11.650 -0.2360  0.3420  0.0440
26888W        W42697   6.916  17.757   4.178 -0.2409 -0.0470  0.1292
26889W        W42698  12.945  15.064  16.110 -0.2106  0.0200 -0.0666
26890W        W42699  16.353  16.295  13.090 -0.0339 -0.0810 -0.3177
26891W        W42700   7.677  14.728   0.329  0.0156 -0.2936  0.2102
26892W        W42701  17.925   8.490   3.001 -0.0162  0.1109  0.0932
26893W        W42702  10.119   0.368   3.058 -0.0605  0.1900  0.0499
26894W        W42703  17.168   9.443   5.577 -0.1561 -0.1575 -0.2480
26895W        W42704   2.067   1.409   5.994 -0.1232  0.0240 -0.1870
26896W        W42705  15.905  16.963  13.731 -0.0755  0.0547 -0.0048
26897W        W42706   9.814  14.179  15.260  0.0524 -0.0793  0.2006
26898W        W42707   6.856  15.744  11.364  0.0891 -0.0962  0.0287
26899W        W42708  14.775  13.774   6.019 -0.0376  0.5096  0.1594
26900W        W42709  15.279   1.150  14.605 -0.2386 -0.0155  0.0005
26901W        W42710   0.398  10.673   1.533  0.0775 -0.2360 -0.3485
26902W        W42711   6.591  16.316   2.150  0.0645 -0.2922  0.1438
26903W        W42712  13.457  12.799  13.596  0.0674 -0.1121  0.0512
26904W        W42713  15.318   5.473   0.158  0.2707  0.1092  0.0724
26905W        W42714  13.675  17.247   3.764 -0.0320 -0.0111 -0.2039
26906W        W42715   5.648   0.218  14.847 -0.0450 -0.2688  0.0669
26907W        W42716  16.373  17.733  15.752  0.3620  0.1675  0.2294
26908W        W42717   5.637  10.990   1.102  0.2550 -0.2583 -0.0258
26909W        W42718  17.254   1.780  12.395  0.1545 -0.0041 -0.3520
26910W        W42719   0.131  15.883  15.059  0.0113  0.0061 -0.1601
26911W        W42720  10.230   7.622   5.489  0.0232  0.2154  0.0848
26912W        W42721   5.299  11.462   5.187  0.3331 -0.3171 -0.0813
26913W        W42722   8.982  12.847  12.146  0.0692  0.0497 -0.1129
26914W        W42723  14.720  10.062  11.164 -0.0012  0.1099  0.2297
26915W        W42724   8.585  11.597   0.154 -0.0897  0.2193  0.0826
26916W        W42725  15.142   4.755  13.006  0.0149  0.2676  0.0841
26917W        W42726  12.351   7.324   2.572 -0.0347 -0.2704 -0.1381
26918W        W42727  10.152   1.889   2.785 -0.0938  0.1880 -0.3005
26919W        W42728   9.208   8.064   4.785 -0.3270 -0.3365  0.0387
26920W        W42729  11.176   0.629  12.510  0.0639  0.3392  0.0233
26921W        W42730   6.916  16.534  13.284 -0.0601  0.2038  0.0670
26922W        W42731   4.510  10.325   1.353 -0.0298  0.0116  0.1993
26923W        W42732   0.506   9.481  13.709 -0.0047  0.0397 -0.3025
26924W        W42733  15.593   9.472  11.988 -0.1184  0.0048 -0.0475
26925W        W42734  10.235  13.080  13.691  0.0789  0.0676  0.1165
26926W        W42735  12.491  12.858   1.729  0.0986 -0.4043 -0.2112
26927W        W42736  16.394  16.799  12.854 -0.2420 -0.1258  0.0216
26928W        W42737  12.496   7.178   5.581 -0.0266  0.0606  0.2073
26929W        W42738   7.116   8.263  12.206  0.0323  0.0568 -0.1599
26930W        W42739   4.554  16.059   2.105  0.0715 -0.1310 -0.1619
26931W        W42740  14.080  17.322   1.679  0.0825 -0.1050 -0.2751
26932W        W42741  16.147   0.994  13.532 -0.0513 -0.1340  0.0630
26933W        W42742   0.938   3.995   0.339  0.2428  0.0369  0.1475
26934W        W42743  17.431  17.563   2.356  0.1149  0.2124  0.0914
26935W        W42744   3.983   3.696  11.847  0.0185  0.0191 -0.2720
26936W        W42745   8.782  10.284   6.083 -0.0312  0.1313 -0.2729
26937W        W42746   7.289   1.741   2.423 -0.2104  0.2283  0.1362
26938W        W42747   4.510   5.802   4.990  0.1837  0.2211 -0.0657
26939W        W42748  16.511   5.092  13.736 -0.1102 -0.0404 -0.4455
26940W        W42749  15.956   6.193  12.826 -0.2143 -0.1015  0.2727
26941W        W42750  13.410  17.300  15.487 -0.0375 -0.0673  0.1967
26942W        W42751   7.196   0.418   1.797  0.0048  0.0642 -0.1037
26943W        W42752   5.022   3.412   3.666  0.0821  0.0531 -0.0323
26944W        W42753   5.631   6.484   2.752 -0.0750  0.0449 -0.0869
26945W        W42754   2.461   9.515  13.627  0.2473 -0.0742 -0.0861
26946W        W42755  10.390  16.647  15.559  0.1744 -0.0500  0.0863
26947W        W42756   2.544   0.482   4.637  0.1821  0.0057  0.2794
26948W        W42757  14.858   7.141   5.521  0.0361 -0.0519 -0.0011
26949W        W42758  12.853   1.617   4.457  0.2694 -0.0849 -0.1936
26950W        W42759  16.179   3.831   0.041 -0.2861 -0.0696 -0.4146
26951W        W42760   1.846   2.354   0.220 -0.1802 -0.0113 -0.1626
26952W        W42761   0.333   7.182  13.755 -0.0453 -0.0201 -0.3611
26953W        W42762  10.398  14.239  15.721 -0.3068  0.0603 -0.1517
26954W        W42763   0.852  10.957   1.566  0.1373 -0.1166  0.0796
26955W        W42764  13.011  13.719   1.240  0.0724  0.0313  0.4090
26956W        W42765  12.003  13.505   3.604  0.1894  0.0376 -0.0807
26957W        W42766  15.159  12.512   3.581  0.2253  0.0383 -0.2300
26958W        W42767   5.089   5.182   2.337  0.1559  0.0931  0.2864
26959W        W42768   2.373  16.320  11.233 -0.2746  0.2179 -0.2201
26960W        W42769  16.619  14.843  15.885  0.0429  0.1268  0.2918
26961W        W42770   1.722   7.520  12.388 -0.1295 -0.1822  0.0730
26962W        W42771  12.677   2.384   2.472  0.2716 -0.0811 -0.2138
26963W        W42772  13.628   7.488  14.832  0.2336  0.0579  0.1216
26964W        W42773   5.800   7.255   2.835  0.1519 -0.1026 -0.0991
26965W        W42774  17.493   9.882  12.398  0.0652  0.1413 -0.1371
26966W        W42775  12.105  13.729  13.429 -0.0561 -0.1716  0.0708
26967W        W42776   6.480   7.348  16.536  0.4990 -0.1123  0.3045
26968W        W42777   1.724  11.355  11.350  0.0750 -0.0753  0.0032
26969W        W42778   8.988   0.839   1.626  0.1339 -0.2288  0.2773
26970W        W42779  13.724  10.442  14.043  0.0996 -0.0344 -0.2903
26971W        W42780  11.858   2.512  13.494  0.2049 -0.0949  0.0062
26972W        W42781   7.140   1.689   0.141 -0.2680  0.1023 -0.1736
26973W        W42782   0.029  16.002   1.404 -0.0529 -0.3174 -0.1644
26974W        W42783   4.968   4.677   2.145  0.3366 -0.3180 -0.0682
26975W        W42784   9.278   2.232   4.338  0.0521 -0.1777 -0.2481
26976W        W42785   8.556   7.729  13.576  0.0398 -0.1711  0.0823
26977W        W42786   0.103   2.776   3.140  0.0513  0.0182  0.2394
26978W        W42787  12.319   3.213   3.014 -0.1694  0.2968 -0.1106
26979W        W42788  13.798   8.569   0.577 -0.0938 -0.3424  0.1697
26980W        W42789   9.453   4.157   2.490 -0.2669  0.4168  0.1499
26981W        W42790   9.930   7.694  14.613  0.1357 -0.1221  0.1123
26982W        W42791  15.505  16.082  12.001  0.0408 -0.0774  0.3301
26983W        W42792  16.732  12.853   2.380 -0.0392 -0.0348  0.1054
26984W        W42793  16.497   2.993   4.419  0.0091  0.0728 -0.3237
26985W        W42794  14.292  12.763  13.529  0.2150 -0.1540  0.0303
26986W        W42795   4.109  17.047  13.898  0.0647 -0.1771  0.0948
26987W        W42796   2.127  13.345  14.333 -0.2617  0.2877 -0.0002
26988W        W42797   8.405  10.585   1.085 -0.0426 -0.1273  0.3617
26989W        W42798  15.859  16.489   0.420  0.2710 -0.2300 -0.0852
26990W        W42799  12.726   0.840   0.970 -0.0603  0.0479  0.1356
26991W        W42800   9.457  16.654   4.641 -0.1383 -0.0996 -0.1616
26992W        W42801   6.940  14.085  15.579 -0.0549  0.1928 -0.0563
26993W        W42802   8.600  14.798   4.982  0.1396 -0.1458 -0.0920
26994W        W42803   8.102  13.048  11.830  0.1127  0.2491 -0.0347
26995W        W42804  10.966   2.705   5.791  0.1551  0.3704  0.3735
26996W        W42805   2.982   6.016   0.970  0.2699 -0.0821  0.1650
26997W        W42806  13.960   6.507   3.293  0.1987  0.0860  0.0817
26998W        W42807  12.637   0.245   0.201 -0.0567 -0.1267  0.0303
26999W        W42808   0.735   8.995   0.514  0.2298  0.1351 -0.1857
27000W        W42809  15.548   6.723   4.000  0.0236  0.2899  0.0647
27001W        W42810   3.546  13.911  15.117  0.3427  0.0567  0.0328
27002W        W42811   5.055   7.089  12.708  0.0617 -0.2577 -0.3424
27003W        W42812  12.095  17.465   0.630 -0.3037  0.1728  0.0587
27004W        W42813  16.456  11.021  14.161 -0.0464  0.1143  0.1615
27005W        W42814   8.224   2.967  15.258 -0.0212  0.1417 -0.2382
27006W        W42815  15.770   9.595   4.544 -0.1676 -0.2626 -0.2175
27007W        W42816   1.244  15.325  14.835 -0.0813 -0.0990  0.1404
27008W        W42817   4.857  13.166   3.273  0.1270  0.0133  0.0738
27009W        W42818   8.185  13.421  12.399 -0.1987  0.1492 -0.0940
27010W        W42819  13.702  17.354   3.181  0.0321 -0.0149  0.1973
27011W        W42820   7.126   3.878  12.655 -0.0753 -0.0035  0.0424
27012W        W42821   8.243  16.586   5.057  0.0539 -0.3058 -0.1112
27013W        W42822  12.034  15.967  14.171 -0.1373 -0.1694  0.2575
27014W        W42823  17.469   1.475   4.399 -0.0185  0.0932 -0.0327
27015W        W42824  15.882  10.978  16.440 -0.1022  0.2937 -0.1128
27016W        W42825  11.005   2.561   2.704 -0.1110  0.1287  0.2028
27017W        W42826   9.157  11.071   2.724  0.2201 -0.2872 -0.0686
27018W        W42827   3.358  11.515  13.668 -0.1903 -0.0392  0.0481
27019W        W42828  10.963  17.186   2.783  0.0112  0.0943 -0.3042
27020W        W42829   8.090   8.802   2.283 -0.0380 -0.1441 -0.0629
27021W        W42830  17.921   1.523   4.580 -0.0191 -0.1974 -0.0203
27022W        W42831   0.361  13.180  11.595 -0.2435 -0.0358 -0.2298
27023W        W42832  12.073   0.677   0.136 -0.1559  0.1055 -0.0568
27024W        W42833   5.578   6.796   3.139 -0.0453  0.1319  0.0380
27025W        W42834   5.212  10.878   3.200 -0.1431 -0.0784  0.2830
27026W        W42835   4.389  11.104  13.039 -0.0075 -0.0795 -0.0004
27027W        W42836  11.032   7.714   3.341 -0.0071 -0.0717  0.1337
27028W        W42837   2.730   7.355  15.651 -0.0283 -0.0688  0.3243
27029W        W42838  13.753   8.629   2.236  0.3062 -0.2804  0.0405
27030W        W42839   2.069   1.061   0.629 -0.0337 -0.1044  0.0397
27031W        W42840  16.029  13.732   5.597 -0.1266 -0.0322 -0.0283
27032W        W42841   4.578   4.780   0.406 -0.3014 -0.3847 -0.2430
27033W        W42842   9.251   2.354  13.713 -0.1033 -0.0848 -0.0759
27034W        W42843   5.117  11.790   2.357  0.0476  0.0969 -0.0243
27035W        W42844  14.160   0.099  14.344  0.1124 -0.1934  0.2960
27036W        W42845   8.804   5.345   2.742 -0.0751 -0.0245 -0.0226
27037W        W42846   0.439  13.101   2.351 -0.1128 -0.3290 -0.0424
27038W        W42847  17.789  10.226  12.758  0.0605  0.1081 -0.1036
27039W        W42848   1.753   9.173   0.456 -0.0581  0.0978 -0.2390
27040W        W42849   6.270  13.117  14.597 -0.0019  0.1208  0.0181
27041W        W42850  15.897  11.396   3.445 -0.1142 -0.0691 -0.1995
27042W        W42851  10.425   6.024  15.230  0.1452  0.2346 -0.1507
27043W        W42852  16.372   9.516   2.433  0.2403  0.2169 -0.0541
27044W        W42853   3.250  16.971  15.964  0.2476 -0.2324 -0.1991
27045W        W42854   7.626   0.939  13.410  0.1015  0.1462  0.1199
27046W        W42855  17.299  12.725   1.724  0.2278  0.2535  0.1202
27047W        W42856   7.904   0.500  13.278  0.1905 -0.0111  0.0408
27048W        W42857  17.578   7.425  16.395  0.1419 -0.2205  0.0055
27049W        W42858  17.496  10.109  11.543 -0.1111  0.0533  0.0084
27050W        W42859   7.146  14.764  12.986 -0.0395 -0.1472 -0.0073
27051W        W42860   5.764   8.966   0.521 -0.1315 -0.0613  0.1844
27052W        W42861  11.766  17.535   0.994  0.1837 -0.0852 -0.1330
27053W        W42862   0.859   4.035   3.409  0.0568 -0.0955  0.1342
27054W        W42863  16.646  16.574   5.010 -0.0811  0.1870  0.0886
27055W        W42864  13.399  17.538   5.147  0.0670  0.4793  0.0491
27056W        W42865   5.602   5.165   1.058 -0.3644  0.1326 -0.1071
27057W        W42866   1.160   9.950   4.216  0.0403  0.2088 -0.0709
27058W        W42867   0.886  14.332  16.367  0.0096  0.5354 -0.2758
27059W        W42868  11.969  10.653  11.853  0.0552 -0.0838  0.0544
27060W        W42869  17.337   0.978   4.625  0.0066  0.1816  0.1016
27061W        W42870   4.517   1.954   4.005  0.1989 -0.1695  0.1220
27062W        W42871  13.773   7.943  16.466  0.4795  0.0891  0.0408
27063W        W42872   0.098   0.050   1.506  0.3276  0.1194 -0.1287
27064W        W42873   6.231   3.605   0.696 -0.0127  0.1853 -0.0558
27065W        W42874  10.581   7.159   0.737  0.2101  0.1123  0.2540
27066W        W42875   0.232  16.027  12.815 -0.1821 -0.2705  0.0977
27067W        W42876  17.524   8.446  14.050 -0.0502  0.1118  0.0649
27068W        W42877  13.078   1.448   3.512  0.3037  0.1666  0.1721
27069W        W42878   3.673   1.662  12.931  0.0886  0.2902  0.1791
27070W        W42879  13.961  16.508   2.137  0.0242 -0.1922  0.2968
27071W        W42880   4.517   2.723  15.764  0.0657 -0.2092  0.2891
27072W        W42881   8.743  15.101   0.077  0.0118  0.0942  0.3774
27073W        W42882   8.958   1.586  13.871 -0.0580 -0.1208  0.1215
27074W        W42883  13.790   2.585  10.990  0.1113 -0.3493  0.1530
27075W        W42884  12.695   4.092  12.191  0.0921 -0.3292 -0.1089
27076W        W42885   9.415   4.616  14.786 -0.0867 -0.0180  0.1405
27077W        W42886   6.991   2.588   0.391  0.2023  0.2350  0.1669
27078W        W42887   5.877   3.502  15.110  0.1752 -0.1387 -0.0241
27079W        W42888   5.909  16.581   1.782  0.0273 -0.1707  0.1747
27080W        W42889   6.683  11.066   2.721 -0.4123  0.0301  0.5555
27081W        W42890   7.918   5.207   5.208  0.0500 -0.0507 -0.0310
27082W        W42891   5.434   8.650   3.398  0.1384 -0.0942 -0.0995
27083W        W42892  17.797  16.338  11.990 -0.1413 -0.2316  0.3654
27084W        W42893  14.556  10.290   1.652  0.1389  0.0939  0.1286
27085W        W42894  12.090   7.483  16.425 -0.2784 -0.4870 -0.2578
27086W        W42895   9.539   4.572  15.389  0.0222 -0.0560  0.2324
27087W        W42896  13.893  17.776  12.409 -0.0841  0.1180  0.4020
27088W        W42897   0.327  11.708  15.053 -0.0666  0.0681 -0.1964
27089W        W42898  13.545   1.952   2.264 -0.1600  0.4799  0.2702
27090W        W42899   7.962  17.681   1.893  0.0321 -0.1330 -0.3250
27091W        W42900  17.165  11.316  16.415 -0.1296 -0.2330  0.1006
27092W        W42901   7.970   1.884   1.725 -0.1833  0.2100 -0.1227
27093W        W42902  14.097   2.389  13.162 -0.0220 -0.0875 -0.1678
27094W        W42903  10.414  12.692   2.330 -0.2303  0.0714 -0.0299
27095W        W42904  17.586   6.167  15.322 -0.0331  0.1013  0.0323
27096W        W42905   7.262   0.070   1.395 -0.5331 -0.1200 -0.0046
27097W        W42906  17.845   5.759  14.763 -0.2702 -0.0518 -0.1081
27098W        W42907   9.676  15.639   4.226 -0.0910 -0.0013  0.2257
27099W        W42908   7.288   6.315   2.454  0.4102  0.1103  0.0668
27100W        W42909   7.813  16.663  16.213  0.1494  0.3640  0.2494
27101W        W42910  15.572   1.337   1.369  0.3798  0.1858  0.2389
27102W        W42911   8.714   6.278  12.679 -0.0176 -0.2341  0.3667
27103W        W42912  11.686  13.371   0.847 -0.1970 -0.0348 -0.0664
27104W        W42913  17.667  15.175   4.897 -0.0455  0.1467 -0.2345
27105W        W42914  10.608  12.912   1.904  0.0256  0.1597  0.0501
27106W        W42915   0.573  13.435  11.085  0.2166 -0.2091  0.1863
27107W        W42916   9.116   4.723  15.740 -0.2158 -0.1060 -0.1772
27108W        W42917  14.114  17.343  12.785 -0.2870 -0.2408 -0.0677
27109W        W42918  10.696   1.818   3.946 -0.0189  0.1240 -0.1711
27110W        W42919   3.204  14.628   1.177 -0.1844  0.1920  0.1061
27111W        W42920  11.071  10.761  12.669 -0.2627  0.0339 -0.1728
27112W        W42921   6.425   6.441   2.431 -0.1157 -0.1614  0.0234
27113W        W42922  16.891  15.447   4.577  0.1552  0.0204 -0.2104
27114W        W42923   1.132   5.871   0.217 -0.1479 -0.0886 -0.0223
27115W        W42924   1.256   3.765  15.344 -0.1330 -0.1830  0.0696
27116W        W42925   9.651   4.764   0.397 -0.1296 -0.0030 -0.0822
27117W        W42926   4.178   9.419  15.920 -0.1946 -0.3038  0.1610
27118W        W42927  10.671   9.937  12.282  0.0622  0.1973 -0.0893
27119W        W42928   1.921  13.267   0.014 -0.0259 -0.0646  0.0369
27120W        W42929   1.982  14.582  13.030  0.1034 -0.0300 -0.0160
27121W        W42930   9.807  17.006   5.079 -0.2120  0.2870  0.0216
27122W        W42931   6.701   7.814   4.062 -0.0338  0.1183 -0.1176
27123W        W42932  11.864  10.080   1.035  0.2455  0.1391  0.0836
27124W        W42933  16.515   0.073   6.334 -0.3431 -0.0454 -0.0128
27125W        W42934  11.709  15.391  14.340 -0.3414  0.0808  0.0602
27126W        W42935  17.766   3.507   3.740  0.1310 -0.0167  0.0143
27127W        W42936  15.260  14.409   2.646 -0.0272  0.2287  0.2222
27128W        W42937   7.841  16.677  13.554 -0.1652  0.2051 -0.2479
27129W        W42938   4.505  13.266  11.525 -0.1307  0.0901 -0.1055
27130W        W42939   3.910   6.980  11.772 -0.0366 -0.1513  0.1419
27131W        W42940  13.439  15.144  16.207 -0.0703  0.1404 -0.1376
27132W        W42941   0.110  14.832   2.185 -0.0006 -0.1025 -0.3312
27133W        W42942  10.210  16.680  15.043  0.0728  0.0383  0.0753
27134W        W42943  17.510  12.483   4.949  0.2311 -0.1442  0.0530
27135W        W42944   3.755   8.559   3.349 -0.0835  0.0306 -0.1370
27136W        W42945  16.847  11.966  13.122 -0.2533 -0.0769 -0.2192
27137W        W42946  12.123  11.926  15.700 -0.1832  0.0147  0.2773
27138W        W42947  11.433   7.520  15.456  0.0590 -0.0823 -0.2166
27139W        W42948  16.624  13.602   5.439 -0.1403  0.0429  0.1222
27140W        W42949  14.932  13.534   0.489  0.1226 -0.1918 -0.3681
27141W        W42950   7.266  12.749   5.014 -0.1280  0.3163  0.5121
27142W        W42951  15.720   5.542   0.815 -0.0017  0.2340 -0.1394
27143W        W42952  14.340  16.673   0.783  0.2408 -0.2359  0.0098
27144W        W42953   7.351  17.192  16.297 -0.0322  0.0110  0.0700
27145W        W42954  15.555   5.241   5.031 -0.0472 -0.1067  0.1348
27146W        W42955  12.549  17.123   4.654  0.1146 -0.4406 -0.0705
27147W        W42956  17.840  11.281   4.783  0.3109 -0.0721  0.0476
27148W        W42957   9.178   9.509   4.820  0.0658  0.0572  0.1596
27149W        W42958   5.876  13.513   1.456 -0.0008  0.0119 -0.2613
27150W        W42959  16.597   7.014  15.744  0.2392  0.1311  0.2438
27151W        W42960  12.997  17.610   4.391 -0.0540  0.2558  0.1671
27152W        W42961  13.254   7.203   2.207  0.1726 -0.3107  0.0767
27153W        W42962   2.977  15.648   5.334  0.0387  0.2566 -0.1616
27154W        W42963  12.295   4.921  12.153 -0.0361  0.0873 -0.1605
27155W        W42964   5.746  15.790   0.208  0.2010  0.0036  0.3053
27156W        W42965   0.401   9.524   4.508  0.1168 -0.1500 -0.1936
27157W        W42966  10.975   3.886   2.592  0.0432 -0.0039 -0.1437
27158W        W42967   0.742   0.540  11.884  0.1521 -0.0810  0.1096
27159W        W42968  11.472  13.388  11.400 -0.1471  0.1072  0.1201
27160W        W42969   6.950   5.361  11.541  0.1232  0.0280 -0.0006
27161W        W42970   3.983   1.711   2.283  0.1602  0.1219  0.0821
27162W        W42971  12.060   5.794   0.964 -0.0529  0.0384  0.0723
27163W        W42972   0.048  10.959   2.655 -0.0800 -0.0169  0.0552
27164W        W42973   2.343  15.226  15.894  0.2104 -0.2731 -0.0039
27165W        W42974  14.410  16.008  12.562  0.1100 -0.1328  0.3468
27166W        W42975   3.648   1.510   2.673 -0.0673 -0.0411  0.2193
27167W        W42976   6.594  13.841   4.373  0.0035  0.0712 -0.2673
27168W        W42977   9.448  17.224   5.468 -0.1310  0.0829 -0.1530
27169W        W42978   3.025  13.487  13.606  0.2662 -0.3156  0.1639
27170W        W42979   1.665   0.861   3.069 -0.0778  0.0761 -0.1925
27171W        W42980   4.675   0.865   3.212 -0.1187  0.0196  0.4981
27172W        W42981  17.115  10.932  14.723 -0.2428  0.2907 -0.1467
27173W        W42982  10.533   5.586   0.883  0.1684  0.0792 -0.0818
27174W        W42983   2.177   6.310   1.908 -0.3497 -0.1956  0.2186
27175W        W42984  10.190  12.296  12.524  0.2001  0.2391 -0.0932
27176W        W42985  10.340   9.188   5.776  0.1794 -0.1122  0.1256
27177W        W42986  16.006   6.353  14.586  0.0912 -0.0914  0.2132
27178W        W42987   9.925   9.301   0.088 -0.2845 -0.0865  0.0264
27179W        W42988  16.217  14.677   4.431 -0.0931  0.0625 -0.1399
27180W        W42989  12.342   4.620  13.701  0.3442  0.3373 -0.2195
27181W        W42990   9.297   5.103   5.534  0.0524 -0.1524 -0.0673
27182W        W42991   5.051  14.633  15.808  0.1815  0.1469  0.1927
27183W        W42992   0.075   3.771   3.318  0.0588 -0.0435 -0.1675
27184W        W42993   5.204  14.868  11.292  0.1730  0.1770 -0.1570
27185W        W42994  16.632   7.439  12.973  0.0764  0.3047 -0.2266
27186W        W42995   9.750  15.845  11.795  0.0577 -0.1839 -0.0569
27187W        W42996   0.725   5.475  11.304  0.2102  0.1886  0.1386
27188W        W42997   1.151   1.144  10.991  0.0137 -0.1999  0.0116
27189W        W42998   3.241   1.098   0.251 -0.0932 -0.1329  0.2447
27190W        W42999   0.635   1.725   5.216  0.1632  0.0075 -0.0285
27191W        W43000   8.300   3.003  12.335 -0.0434  0.3496 -0.0547
27192W        W43001   8.636   3.324   0.466  0.1934 -0.1924 -0.2345
27193W        W43002   0.695   2.739   0.202 -0.2548 -0.2087  0.1860
27194W        W43003   3.411   9.400   1.163  0.0417  0.1531 -0.0069
27195W        W43004   9.272   9.904  13.226 -0.2632 -0.0608  0.2291
27196W        W43005  15.316   7.190  12.960 -0.1150 -0.0134 -0.0837
27197W        W43006   1.546   2.736   2.201  0.0257  0.1385  0.0702
27198W        W43007   1.767   6.416  15.927  0.2552  0.2194 -0.0654
27199W        W43008   6.848   2.604  13.309  0.2215 -0.2147  0.4413
27200W        W43009   2.263  10.240  11.028 -0.2473  0.1011 -0.1744
27201W        W43010  17.218   6.777   0.826 -0.1829 -0.1023 -0.4720
27202W        W43011   8.184   6.710  14.697 -0.1500  0.2860 -0.1491
27203W        W43012   5.873  10.175   2.451  0.0748  0.0867  0.0545
27204W        W43013  16.741  15.413   5.097  0.0189  0.0678  0.1579
27205W        W43014   3.049  16.991   0.887 -0.4183  0.0058 -0.2196
27206W        W43015   0.874  13.297   1.468 -0.2081 -0.4000 -0.0392
27207W        W43016  11.313  17.215   0.968 -0.3745  0.1328 -0.0361
27208W        W43017   8.063   7.008  15.200  0.0755 -0.2543  0.0138
27209W        W43018   0.679   0.324  14.538  0.3450 -0.0580  0.0955
27210W        W43019  11.496   9.809   5.688  0.0900 -0.0904  0.1533
27211W        W43020  11.797   9.617   2.558 -0.0413  0.0201 -0.2059
27212W        W43021   4.922   9.391  14.415  0.1464 -0.1662 -0.2601
27213W        W43022   5.332   0.250  15.841  0.1307 -0.2356  0.0615
27214W        W43023  16.029  13.857   4.124 -0.0717  0.0621  0.4106
27215W        W43024   1.267   2.479   0.208 -0.2005 -0.3325  0.1522
27216W        W43025   5.210   6.508   1.753 -0.3888  0.0982  0.1644
27217W        W43026   9.848  13.071  13.237  0.0969 -0.0172  0.0061
27218W        W43027  10.085   6.761   4.502 -0.0497 -0.0180  0.1171
27219W        W43028   1.033  10.179  13.774  0.3718  0.2675 -0.1774
27220W        W43029  10.195  16.934  12.381 -0.3405  0.2003  0.2659
27221W        W43030  17.788  11.287   5.793 -0.1327  0.2371  0.1676
27222W        W43031  10.890   8.633   4.763  0.0824  0.5267 -0.0518
27223W        W43032   1.032  15.616   1.998 -0.4355  0.1436 -0.1400
27224W        W43033  16.153   7.350   2.700  0.1742  0.0113 -0.1014
27225W        W43034   6.099   0.900   3.760  0.0313  0.1189 -0.0711
27226W        W43035  16.245  14.390  14.055 -0.0184  0.2944  0.0909
27227W        W43036   0.111   4.287   0.681  0.0504 -0.0086  0.0281
27228W        W43037   4.475   7.306  13.286  0.3683  0.1420  0.0819
27229W        W43038   5.237   9.636  14.737 -0.0509  0.2025  0.1925
27230W        W43039  12.726   2.526   1.994  0.4630 -0.1742  0.1658
27231W        W43040   7.247   1.140   5.722 -0.0287 -0.0083 -0.0770
27232W        W43041   3.074   4.569   1.515 -0.2703  0.1394 -0.1221
27233W        W43042  10.918  12.738  15.157 -0.2517 -0.2352  0.0324
27234W        W43043  13.853  14.787   3.116 -0.1771  0.1665 -0.1515
27235W        W43044  14.361   8.711  16.063 -0.0181 -0.1400  0.0733
27236W        W43045   2.906  11.885   0.101 -0.1614 -0.0328  0.4473
27237W        W43046  14.297   9.773   0.124 -0.0291  0.0985  0.2634
27238W        W43047   8.694   6.632   5.585 -0.4206 -0.4538  0.2774
27239W        W43048  10.628   4.293  11.608  0.0495  0.1413  0.0331
27240W        W43049  17.332   9.833  15.491  0.1968 -0.0952  0.4367
27241W        W43050   6.540   8.482   5.365  0.0383  0.0504 -0.1397
27242W        W43051   3.212  11.497  13.187 -0.2441  0.1818 -0.0178
27243W        W43052   4.968   4.037  11.596 -0.0553 -0.1748 -0.2510
27244W        W43053   4.430  10.177  14.480  0.1403 -0.1189 -0.1993
27245W        W43054  17.219   7.197   5.870  0.1005  0.1502  0.1049
27246W        W43055  12.921   2.808   5.519 -0.0619 -0.0146  0.1323
27247W        W43056  16.415  17.225  12.580 -0.0716 -0.0648 -0.0245
27248W        W43057   7.291   6.208  16.653  0.1044 -0.2101  0.0678
27249W        W43058   5.331   1.438  16.313 -0.0592 -0.1956  0.0884
27250W        W43059   0.311  12.998   2.793  0.2449  0.1673  0.3694
27251W        W43060  11.491   3.160  11.778 -0.0999  0.1055 -0.1327
27252W        W43061   5.551  11.275  15.784 -0.1328 -0.0638 -0.1129
27253W        W43062   4.340   6.948   1.840  0.3562 -0.0383  0.1206
27254W        W43063  13.674   4.725  15.659 -0.0665 -0.0865 -0.2873
27255W        W43064   4.118   0.801   0.280 -0.2050  0.1979 -0.0478
27256W        W43065   3.727  15.119   2.217 -0.1582 -0.2422 -0.1166
27257W        W43066  12.782  12.636  11.846  0.1243  0.1832  0.0002
27258W        W43067   2.641   4.615   1.099 -0.0958  0.1244  0.0027
27259W        W43068   8.809  11.935  11.723 -0.1714 -0.0623  0.1616
27260W        W43069  16.460  10.172   0.630  0.1508 -0.3473 -0.0325
27261W        W43070   5.824  16.148  13.263  0.0530  0.2384  0.0184
27262W        W43071   0.673  11.588   2.893 -0.1553  0.0112  0.2394
27263W        W43072   1.126  11.412  15.399  0.2643 -0.0417 -0.4226
27264W        W43073  14.113  12.483   4.058  0.1302 -0.1620 -0.3791
27265W        W43074   7.186   7.756   3.966  0.1098  0.1160 -0.1028
27266W        W43075  10.456   5.934   3.436  0.1640 -0.1880  0.4225
27267W        W43076   3.427   9.915  14.418  0.5159  0.0956  0.0336
27268W        W43077   4.252   4.641   0.871 -0.0603 -0.4334 -0.2089
27269W        W43078  16.952   9.768  11.694  0.1838  0.1127  0.1747
27270W        W43079   3.298  14.576   2.978 -0.1327 -0.2196 -0.2689
27271W        W43080   3.266   5.918  14.056 -0.2635 -0.2903  0.2811
27272W        W43081   2.933   2.877   4.790  0.2627 -0.1180 -0.0405
27273W        W43082   4.069   8.366   3.682  0.1471 -0.0067 -0.1766
27274W        W43083   3.561  13.744   1.903 -0.2350 -0.2891  0.0743
27275W        W43084  12.167  12.065   5.046  0.0633 -0.3637  0.0278
27276W        W43085   3.784  15.558  12.039  0.0434 -0.0772  0.0701
27277W        W43086  10.770  16.914   2.313  0.0768  0.0568 -0.3250
27278W        W43087   7.315  10.397  15.863 -0.0463 -0.0928  0.0137
27279W        W43088   5.337   3.488   2.313 -0.0071  0.1450  0.1600
27280W        W43089   9.856   7.035  15.933  0.1671  0.1229  0.1588
27281W        W43090  15.863  14.550   4.765  0.0290  0.2621  0.0237
27282W        W43091  17.211  10.688   0.992  0.0566  0.1105  0.0443
27283W        W43092   8.216  15.878   1.371  0.0205 -0.2012 -0.0436
27284W        W43093   0.882  14.706   5.245 -0.0588  0.0031 -0.1302
27285W        W43094  16.056   8.435   1.037  0.2102  0.3051 -0.0374
27286W        W43095   3.179  15.935   0.387  0.2592  0.1271  0.0671
27287W        W43096  12.077  11.591   0.996 -0.5506  0.0293 -0.2198
27288W        W43097   2.149  11.806  11.039 -0.0376  0.3532  0.2647
27289W        W43098   7.835   7.385   0.418 -0.0857  0.0229 -0.1063
27290W        W43099   3.037  12.015  15.951 -0.0968  0.1324  0.1509
27291W        W43100   3.598  17.151  13.827 -0.0639  0.1503 -0.1285
27292W        W43101  14.880   9.668  13.111  0.0529 -0.1837 -0.1685
27293W        W43102   2.541  15.232  13.083 -0.2154 -0.0066 -0.0896
27294W        W43103  14.644   8.702  13.435 -0.1984  0.2170  0.0122
27295W        W43104   2.017   8.945  15.923  0.0160 -0.2473  0.0704
27296W        W43105   2.919  10.402  14.381  0.2450 -0.1783  0.0913
27297W        W43106  14.947   0.290  13.199 -0.0684  0.2187 -0.1541
27298W        W43107   1.530   8.752   2.407  0.0636  0.0105  0.0841
27299W        W43108   7.476  15.264   1.716  0.3727 -0.2548  0.2386
27300W        W43109   2.492  10.702  14.548 -0.2481  0.3344 -0.0927
27301W        W43110  12.681   5.861  15.505 -0.1137  0.1680 -0.3230
27302W        W43111  12.897  12.846  12.954  0.2074 -0.1917 -0.0888
27303W        W43112  16.337  15.780  10.576  0.0479 -0.0408  0.3126
27304W        W43113   7.097  11.165  11.916  0.2076 -0.1123 -0.1640
27305W        W43114  17.518  14.095   5.116  0.3459 -0.0098  0.1882
27306W        W43115   0.734  13.947   2.959  0.0694  0.1595  0.1463
27307W        W43116   4.451   7.606   0.601  0.1140 -0.0124  0.0163
27308W        W43117   3.595   5.009   0.247 -0.0700 -0.0401 -0.0195
27309W        W43118  10.375   6.260  16.654  0.0324 -0.2061  0.0192
27310W        W43119   5.428  17.949   1.496  0.0410 -0.4773  0.1762
27311W        W43120   4.241   1.557   2.663 -0.1515  0.1596  0.1761
27312W        W43121   8.427   1.583  14.946 -0.2394  0.0951 -0.2078
27313W        W43122  14.582  11.436   5.029  0.1038 -0.1602 -0.0556
27314W        W43123   1.203   6.694   1.380  0.0968  0.0037  0.0166
27315W        W43124  17.325  13.581   0.658 -0.1838  0.2181 -0.1466
27316W        W43125   9.674   5.718   2.659  0.1439 -0.2767  0.2052
27317W        W43126  15.350  16.851   4.473  0.0994  0.1669  0.1169
27318W        W43127   1.235   2.870   4.053 -0.1090 -0.3921  0.0298
27319W        W43128  17.216   1.139  13.809  0.0314  0.0440 -0.1049
27320W        W43129  16.417   2.229  14.252 -0.1287 -0.0046  0.0602
27321W        W43130   9.590  15.922   5.970  0.0476  0.2663  0.1041
27322W        W43131   4.889  13.019   4.473  0.0316  0.1754 -0.1283
27323W        W43132  14.572   2.660  11.514 -0.1967 -0.0277 -0.1194
27324W        W43133   6.632   2.933  13.624 -0.2273  0.2729  0.2255
27325W        W43134  13.135  13.637   0.399 -0.3396 -0.1046  0.1435
27326W        W43135  10.805  16.725   5.037  0.0510 -0.2355 -0.1172
27327W        W43136   5.920   1.142   5.698  0.3023  0.1816 -0.1569
27328W        W43137   3.200   4.849   3.965 -0.0340 -0.2281 -0.1896
27329W        W43138  16.416   1.625  16.080  0.1276 -0.0602  0.0229
27330W        W43139  17.029   7.916  14.183 -0.0196 -0.1374 -0.0713
27331W        W43140  10.125  17.520   0.598 -0.0652 -0.1188  0.3288
27332W        W43141   5.608  10.304  11.097  0.1393 -0.1962  0.0374
27333W        W43142   6.689   2.921  15.569  0.2456  0.0421  0.0240
27334W        W43143   1.953   0.480   4.392  0.0615 -0.3819  0.2339
27335W        W43144   3.567   1.526  15.869 -0.2530 -0.1140  0.2537
27336W        W43145  11.067  13.147   4.726 -0.3468  0.0278  0.0772
27337W        W43146  14.815  15.674   4.894 -0.0110  0.1029  0.2486
27338W        W43147   7.201  15.904  11.657 -0.0515  0.1471 -0.4487
27339W        W43148   9.166   7.764   5.742 -0.1893  0.3754  0.0736
27340W        W43149  10.999   6.393  16.144  0.1857  0.2200  0.1642
27341W        W43150  11.249  10.029   6.689 -0.1572  0.0350 -0.0220
27342W        W43151   2.352   2.005  14.844  0.2949  0.0712 -0.1612
27343W        W43152   2.589  12.836   3.319  0.4987 -0.0561 -0.0553
27344W        W43153   1.612  14.616   5.911  0.2564 -0.2078 -0.2055
27345W        W43154   9.462  12.020   1.095 -0.2181 -0.0511  0.0925
27346W        W43155   8.282   4.102   1.731  0.0839 -0.0696  0.0920
27347W        W43156   9.089   6.258   2.807  0.0675  0.1069 -0.1929
27348W        W43157   6.941   6.559   3.951 -0.1652  0.1472 -0.0051
27349W        W43158  13.911   3.717  12.358  0.0637 -0.2776 -0.1636
27350W        W43159   0.838  11.524  12.114  0.4147 -0.4260  0.1385
27351W        W43160   0.459   6.388   2.955 -0.1637  0.0908  0.3257
27352W        W43161   1.772  12.909  13.018 -0.0908  0.2671 -0.3459
27353W        W43162  11.581   9.895   5.202  0.4214 -0.0154 -0.1420
27354W        W43163  17.198   9.123  15.089  0.2643  0.3931  0.1705
27355W        W43164   1.680   9.104   2.730 -0.0641  0.0796  0.2691
27356W        W43165   8.122  10.042   1.665 -0.1476  0.1343 -0.2383
27357W        W43166   7.757  14.006   3.825 -0.2725 -0.0449 -0.0376
27358W        W43167  12.560   2.507   5.616  0.2548 -0.1809  0.0283
27359W        W43168  11.263   9.542  15.798 -0.1037 -0.0865  0.1078
27360W        W43169  11.886   9.384  11.978  0.2850  0.1255  0.0151
27361W        W43170  15.786   7.862  10.927  0.0232 -0.3381  0.0850
27362W        W43171   1.679   7.886   1.088 -0.1255 -0.1060 -0.0675
27363W        W43172  17.584   9.726  14.751 -0.1294 -0.5683  0.0680
27364W        W43173  14.531  14.635  15.463 -0.0330 -0.0397  0.4083
27365W        W43174  15.936   4.267   0.569  0.2303  0.1675 -0.1086
27366W        W43175  12.721  13.268   0.422 -0.0698  0.4171  0.1639
27367W        W43176   4.485   5.819   0.183 -0.2222 -0.1182  0.4247
27368W        W43177   4.271  13.840  13.903  0.0567  0.4515  0.2204
27369W        W43178  16.538  11.951   5.457  0.1077 -0.0595 -0.1249
27370W        W43179  10.047   6.192   4.335 -0.0819  0.1294 -0.2383
27371W        W43180   4.719   3.302   4.671  0.0161  0.0696  0.1646
27372W        W43181   1.105   8.278  14.284 -0.2989  0.3079  0.0569
27373W        W43182   6.256  16.530  13.295 -0.2403 -0.1149 -0.3754
27374W        W43183  10.606  14.015  13.324  0.3098 -0.2983  0.0588
27375W        W43184   2.612   5.005   1.464  0.0255 -0.1185  0.0569
27376W        W43185  15.118  14.589  12.647 -0.0499 -0.0032 -0.5591
27377W        W43186   8.990  15.417   2.175 -0.0533  0.0466  0.1131
27378W        W43187  11.862  11.267   5.159 -0.2773  0.1478  0.0812
27379W        W43188   0.091  15.660  14.112 -0.2552  0.1088 -0.1805
27380W        W43189  15.637  17.626  12.628 -0.1031 -0.0221  0.0416
27381W        W43190   4.922   8.194   4.007  0.5525  0.0052 -0.1019
27382W        W43191   6.221   7.013  12.936  0.0669  0.2028  0.0782
27383W        W43192   3.981   0.354   5.604  0.0555  0.2784  0.2762
27384W        W43193  15.016   8.197   2.637  0.0815  0.1254  0.0102
27385W        W43194   4.309  17.484   0.825 -0.3395 -0.0115 -0.0289
27386W        W43195  11.361   7.254   4.661  0.1729 -0.0231 -0.0182
27387W        W43196   5.587  15.864  12.459 -0.0404 -0.1243 -0.1581
27388W        W43197   2.517  12.589   1.355 -0.0659  0.0292 -0.0005
27389W        W43198   2.389  12.185   2.793  0.0889  0.2039 -0.1612
27390W        W43199  17.256  13.111   1.416 -0.1295  0.1422  0.1554
27391W        W43200  12.682  17.081  12.327 -0.2174 -0.2520  0.1938
27392W        W43201   1.411  16.761   1.903  0.0857  0.3485  0.0863
27393W        W43202  11.501   1.395   0.123 -0.2110  0.0563 -0.0544
27394W        W43203  10.099   8.226  15.415 -0.0489 -0.0587 -0.0071
27395W        W43204   3.031  16.533   1.044 -0.0068 -0.1361 -0.0214
27396W        W43205   4.067   2.894  13.948 -0.0987 -0.0940  0.1705
27397W        W43206  15.133  17.393  14.838 -0.1233  0.1008  0.0839
27398W        W43207   0.679   6.667  11.487 -0.0244 -0.1449 -0.0672
27399W        W43208   5.475  12.934   4.834 -0.0598 -0.0409 -0.0785
27400W        W43209   0.728   5.534   0.213 -0.4001  0.0717  0.0896
27401W        W43210   7.723   2.842  13.566 -0.1182 -0.1234  0.0994
27402W        W43211   8.518   2.637   4.508  0.3182  0.0288 -0.1170
27403W        W43212   1.740  16.311  16.684  0.2322 -0.2696 -0.1344
27404W        W43213  14.206  12.196  16.710 -0.0621  0.2587  0.0672
27405W        W43214   5.295   5.992  11.940  0.3893 -0.2905 -0.0371
27406W        W43215  16.218   0.891  12.073  0.2672  0.0229  0.1273
27407W        W43216   5.443   5.052   4.319  0.0149 -0.0186 -0.2497
27408W        W43217  11.030   6.632  14.953 -0.2533  0.0715  0.1561
27409W        W43218  15.249  14.190  13.916  0.2448 -0.0170  0.1834
27410W        W43219   5.660   2.426  13.885  0.1461  0.0322  0.2910
27411W        W43220  13.806   2.501  14.536  0.0954 -0.0050 -0.0410
27412W        W43221  15.324  11.628  16.124 -0.1780  0.0598 -0.1374
27413W        W43222   0.368  10.138  12.624 -0.2601  0.0670  0.0446
27414W        W43223   1.776   0.810   0.320  0.0390  0.2120 -0.0227
27415W        W43224   0.760   8.599   1.267  0.0105  0.1143  0.0263
27416W        W43225  15.126   2.028   5.540  0.2029  0.0369 -0.2703
27417W        W43226  12.425   5.858   5.789 -0.0356 -0.0591 -0.3979
27418W        W43227  17.280   0.267  14.973 -0.2238 -0.2721  0.1302
27419W        W43228  17.536  17.235   5.079 -0.1943 -0.3393  0.0669
27420W        W43229   3.018   4.970   4.531  0.1945  0.0039  0.2847
27421W        W43230   3.495  10.341  13.998 -0.0052 -0.0384 -0.0711
27422W        W43231   3.463  12.005  14.276  0.0751  0.1231  0.0583
27423W        W43232  11.473   1.833  14.241 -0.2721 -0.0158 -0.1350
27424W        W43233   4.872   5.719   3.752 -0.4836 -0.0610 -0.1598
27425W        W43234  16.396  16.018   3.151  0.2666 -0.1603  0.0518
27426W        W43235   8.576   4.732  15.181  0.2927 -0.3585  0.0470
27427W        W43236   4.167   9.443   2.676  0.0206 -0.2612 -0.0630
27428W        W43237   2.782  16.611   4.948  0.1294  0.0774  0.0980
27429W        W43238  10.678   0.460   4.452  0.0246  0.0858 -0.0771
27430W        W43239  13.937   4.193   4.012 -0.1999  0.1128  0.1434
27431W        W43240   1.915   8.246   4.717  0.0079  0.0208 -0.1765
27432W        W43241  11.889   0.763  16.239  0.2337  0.1237  0.1465
27433W        W43242   1.052   1.511  14.972 -0.0382 -0.1919 -0.3746
27434W        W43243   8.373   5.104  15.445  0.0854 -0.2026  0.0342
27435W        W43244  13.381   5.983  15.721 -0.1260 -0.0144 -0.0276
27436W        W43245   4.570  10.526  15.727  0.0492  0.0223  0.0373
27437W        W43246  12.097   7.473   1.386 -0.3502 -0.4478 -0.0996
27438W        W43247   8.679  10.270  14.267 -0.0745 -0.4602  0.2498
27439W        W43248  15.097  16.954  13.914 -0.0282 -0.3431 -0.1456
27440W        W43249   7.671  13.109  16.594 -0.0601 -0.1922 -0.0219
27441W        W43250   3.995  12.814   3.464 -0.2655 -0.1853 -0.0747
27442W        W43251  10.827   8.790   4.137 -0.0224  0.1013  0.4229
27443W        W43252   5.031   6.830  14.193  0.0892  0.0486 -0.0923
27444W        W43253  13.544  15.007  12.805  0.0206 -0.0434  0.1841
27445W        W43254   3.495  16.674   5.678 -0.1257 -0.0194 -0.1233
27446W        W43255  12.255   6.009  16.622  0.0074  0.1193 -0.0161
27447W        W43256  13.740  10.968  12.588 -0.0857  0.0938 -0.2838
27448W        W43257  13.447  12.679   0.137  0.1752 -0.4304  0.0629
27449W        W43258   4.874   4.133  12.605 -0.0723 -0.0041  0.2279
27450W        W43259   8.645   1.098   2.548 -0.1095 -0.3172  0.1659
27451W        W43260   6.089  14.563   3.880 -0.0968 -0.0960 -0.0371
27452W        W43261  16.702  12.937   0.910  0.0941  0.0008 -0.1781
27453W        W43262  16.264   3.129   5.303  0.1400  0.2563 -0.2334
27454W        W43263   2.828   2.902  13.198  0.0414 -0.0295 -0.0064
27455W        W43264  17.491   2.084   2.220  0.1551 -0.1227 -0.3532
27456W        W43265  17.556   6.947   5.660 -0.1047 -0.0168 -0.0303
27457W        W43266   0.745   5.989  11.079  0.1516 -0.0023  0.3191
27458W        W43267   4.324  16.108   4.465  0.0678 -0.1194 -0.1518
27459W        W43268   4.256  11.097  15.742  0.2332  0.0632  0.2783
27460W        W43269   0.091  14.518   3.245  0.2402  0.0997  0.2344
27461W        W43270   6.048  13.140   1.776  0.3549 -0.0707  0.1637
27462W        W43271   0.323  14.978  15.880 -0.0314  0.1687  0.0365
27463W        W43272   8.451   0.945   1.686  0.0076 -0.0341 -0.2771
27464W        W43273  12.899   8.628  12.678  0.1386  0.2469 -0.2193
27465W        W43274   0.721   2.035   3.214 -0.0724 -0.0439 -0.1776
27466W        W43275   4.241   1.889  15.404 -0.2108 -0.1972 -0.1233
27467W        W43276   3.724   4.681   4.164 -0.0631 -0.0465 -0.2868
27468W        W43277   4.956   3.987   0.403  0.0522  0.1662  0.2093
27469W        W43278   4.493  12.717   1.250 -0.4686 -0.1373  0.2255
27470W        W43279   0.813   0.079   0.200  0.1117  0.0332 -0.1813
27471W        W43280  15.279   1.211  15.779  0.0890 -0.1869  0.1356
27472W        W43281  17.814  15.206   1.021 -0.0622  0.0516 -0.1882
27473W        W43282   6.327  17.740  13.234 -0.1108  0.3135 -0.1784
27474W        W43283   0.429   3.326   1.071 -0.0240  0.0504  0.2633
27475W        W43284   3.073  11.869  13.991 -0.0643 -0.0471  0.0276
27476W        W43285   9.587   3.269  13.841 -0.0839  0.0851  0.1834
27477W        W43286  17.537  13.848   6.616  0.2215  0.1897  0.0113
27478W        W43287   6.051   4.850   1.167 -0.1095  0.0258  0.2259
27479W        W43288   1.018   3.888   4.935 -0.0570  0.2214 -0.1909
27480W        W43289   3.030   8.100  12.856 -0.1673  0.1670  0.0724
27481W        W43290   0.485   2.181  12.760 -0.0823 -0.0880 -0.0189
27482W        W43291   2.307   2.507  15.983 -0.0327  0.4093 -0.1672
27483W        W43292   6.132   3.131   4.812 -0.1730  0.0424  0.0872
27484W        W43293   4.320  15.742   6.074 -0.3951  0.1438 -0.1664
27485W        W43294   8.773   5.551  11.253 -0.1236  0.0333  0.0705
27486W        W43295  16.294   6.777   3.853 -0.1454  0.0517  0.0845
27487W        W43296   8.639   0.820  16.080 -0.2776  0.1338 -0.2831
27488W        W43297   2.357   8.490  16.097 -0.4290  0.0752 -0.0397
27489W        W43298   7.440  10.699  15.311 -0.1614 -0.0301  0.2757
27490W        W43299   7.880   2.734  12.272 -0.2300  0.0590  0.1377
27491W        W43300  14.961  14.618   0.683 -0.1359  0.1822 -0.1039
27492W        W43301   4.234   3.735   1.108  0.1284  0.1032 -0.1254
27493W        W43302   7.979   3.482   2.202 -0.0545 -0.1578  0.2314
27494W        W43303  14.956   9.090   4.031  0.2639  0.1298  0.5997
27495W        W43304   8.809  10.301   0.307  0.0263 -0.0459 -0.0315
27496W        W43305   6.713  14.455   5.325  0.3431  0.0828 -0.0812
27497W        W43306  16.270   0.385   1.855 -0.0809  0.0140  0.2904
27498W        W43307   1.090  16.813  11.732 -0.0358 -0.4819  0.0357
27499W        W43308  15.554  12.243   1.517 -0.1741 -0.0195  0.1979
27500W        W43309  15.408  13.113   2.024  0.1130  0.0760  0.0854
27501W        W43310  12.981   7.151   1.445  0.0837  0.0869 -0.2182
27502W        W43311   2.299   8.402   0.918 -0.0371 -0.3367  0.1110
27503W        W43312  16.929  15.088  15.109 -0.3577  0.1749 -0.1903
27504W        W43313  12.821   4.604  13.837 -0.3122  0.1137  0.0630
27505W        W43314   3.188   9.526  13.126 -0.0722  0.1862 -0.0083
27506W        W43315  11.808   9.167  16.446 -0.1282  0.3054 -0.0890
27507W        W43316  13.360  13.216   3.712 -0.0706  0.1102 -0.1164
27508W        W43317  11.924   5.589  12.513  0.0975 -0.4055  0.1146
27509W        W43318   3.289   0.869   0.882  0.0159 -0.0274 -0.2280
27510W        W43319   9.530  11.740   5.948  0.2247 -0.0329  0.1433
27511W        W43320  16.016  12.368  15.240  0.0550 -0.0781 -0.2320
27512W        W43321   3.052  12.566  16.040 -0.1883 -0.0563 -0.2173
27513W        W43322   6.781   4.722  14.296  0.1740 -0.1067 -0.1400
27514W        W43323   9.445  14.671   0.220  0.0789  0.2580 -0.2018
27515W        W43324  12.648  13.497  15.967  0.1360  0.0688  0.2258
27516W        W43325   8.826  12.970   3.349 -0.1059 -0.1209  0.3315
27517W        W43326   1.941  15.742   0.273 -0.2222 -0.3661 -0.0064
27518W        W43327  14.506  17.593   4.572 -0.1199 -0.1012  0.0174
27519W        W43328   5.743  13.187   5.594 -0.3515  0.0424  0.4104
27520W        W43329   3.596   1.300  14.213  0.2443  0.1514 -0.0800
27521W        W43330   6.855  16.178  14.289  0.0439 -0.1008 -0.1530
27522W        W43331   6.797  13.201   1.156  0.0399 -0.0634 -0.1733
27523W        W43332   9.164   4.249  13.079 -0.3411 -0.1375  0.3164
27524W        W43333  10.966   3.870  12.181  0.0878  0.0212  0.2439
27525W        W43334   8.090   3.107   2.458 -0.0383  0.1291  0.1279
27526W        W43335   2.216  13.613  11.517  0.2343 -0.1361  0.2582
27527W        W43336   4.236  11.008   2.753 -0.0569  0.0012 -0.0824
27528W        W43337  15.737  12.867  15.943  0.0628 -0.1868  0.1905
27529W        W43338  11.622  17.947   0.090 -0.0329 -0.0645 -0.0795
27530W        W43339  16.875   7.978   5.758 -0.0562  0.1652 -0.1327
27531W        W43340  11.445   8.451  10.708 -0.1847 -0.1239 -0.3592
27532W        W43341   4.134  17.138   5.167  0.1982 -0.1649 -0.0295
27533W        W43342  13.667  15.515  12.713 -0.0065 -0.3775 -0.0721
27534W        W43343  13.083  14.615  15.189  0.2465  0.0901 -0.1290
27535W        W43344  12.164   2.432   6.606 -0.0274  0.4828  0.1687
27536W        W43345   2.060   6.362  10.013  0.0934  0.3278 -0.0247
27537W        W43346  16.362  11.724  13.844 -0.1265 -0.2229 -0.1466
27538W        W43347   6.155   4.387   1.499 -0.2002 -0.0150  0.1276
27539W        W43348   0.469  10.609   5.002 -0.0455  0.2374 -0.1063
27540W        W43349   1.132  12.217  12.210  0.0839 -0.0934  0.0088
27541W        W43350  14.150   8.218   1.309  0.3041 -0.1731  0.0158
27542W        W43351  17.259  17.012  11.989  0.3317  0.1047 -0.0745
27543W        W43352   9.942  12.184  11.630 -0.1058  0.1177  0.3813
27544W        W43353   6.427   0.166  15.624  0.0765  0.2177  0.0716
27545W        W43354   4.471  17.711  10.862  0.1645  0.2071  0.0297
27546W        W43355   1.421   2.011   0.249  0.4766 -0.0132  0.3039
27547W        W43356   3.425  13.316   5.307 -0.3326 -0.1281  0.2756
27548W        W43357  10.933   6.993   3.180  0.0813 -0.4801 -0.1275
27549W        W43358  15.042  16.764   0.160 -0.1772  0.2781  0.0703
27550W        W43359  12.324  14.033  16.554  0.2752  0.0697  0.3056
27551W        W43360   2.923   1.157   1.002 -0.0207 -0.2706 -0.0117
27552W        W43361  12.422   7.999   4.180  0.0524  0.0595  0.0603
27553W        W43362   7.951   5.149   2.392  0.4008  0.1414 -0.1019
27554W        W43363   8.878  14.189  14.469 -0.2476  0.1292 -0.0781
27555W        W43364  10.075   7.699   0.012  0.1050 -0.2261 -0.2958
27556W        W43365   5.108  10.120   0.257 -0.2414 -0.1575 -0.0202
27557W        W43366   2.030  15.509  15.346 -0.2576 -0.3000  0.0460
27558W        W43367  14.988  10.526  10.935  0.0765  0.2732  0.3256
27559W        W43368   2.278   5.854  13.288 -0.0263  0.0233 -0.1400
27560W        W43369  15.322   7.468  15.313  0.3806  0.2928  0.0828
27561W        W43370   8.799   4.813  16.362  0.0210 -0.1612  0.0305
27562W        W43371   0.820  13.003  12.664 -0.0459  0.0743  0.0041
27563W        W43372   3.597   4.314   2.928 -0.4525  0.0411 -0.0399
27564W        W43373  12.410   8.703  14.122  0.0638  0.0298  0.1671
27565W        W43374  13.144   6.998   6.326  0.0985  0.0757  0.2273
27566W        W43375   7.913   3.395   5.986 -0.1020 -0.1040 -0.0649
27567W        W43376   0.546   8.238   3.776  0.4649 -0.0602  0.0350
27568W        W43377  10.634  11.455  13.568 -0.1068 -0.0007  0.0117
27569W        W43378  13.469   1.773  11.825  0.1560  0.0148 -0.3243
27570W        W43379   4.155   8.767   4.349  0.0346  0.3851  0.0867
27571W        W43380   2.387   1.988   4.853 -0.2099  0.1037 -0.0086
27572W        W43381   8.316  15.750  13.278 -0.2029  0.1481  0.1469
27573W        W43382  12.671  12.028   0.320 -0.1669  0.0388  0.3414
27574W        W43383  13.016   8.394  13.850  0.2983  0.2448  0.2009
27575W        W43384  16.540  11.041   2.232  0.0572 -0.1920 -0.1564
27576W        W43385  12.025   3.607   2.901  0.4053 -0.1436 -0.1411
27577W        W43386   5.604  13.428   3.661 -0.3952 -0.1188  0.2283
27578W        W43387  15.548   7.360  11.894 -0.0904  0.1408  0.1674
27579W        W43388   5.215  17.374   1.879  0.2531 -0.0321 -0.3504
27580W        W43389  16.271   3.709  11.069 -0.0661  0.1225  0.0184
27581W        W43390   7.948  15.404   4.979  0.0065  0.0834  0.1622
27582W        W43391  10.501   8.202   1.878  0.0630 -0.0671 -0.0118
27583W        W43392   8.511   6.808  12.257  0.0521  0.1498  0.0126
27584W        W43393  11.727   0.166  14.587 -0.1769  0.2805  0.3290
27585W        W43394   6.002  16.963  12.911 -0.0979 -0.1177  0.0346
27586W        W43395   4.328  12.099   3.234 -0.0803  0.1798  0.1674
27587W        W43396  12.860   3.029   4.491 -0.3380 -0.0179 -0.0342
27588W        W43397  11.706   4.188  12.059  0.1947  0.1265  0.1113
27589W        W43398  15.497  11.655   0.376  0.1023 -0.1863  0.1611
27590W        W43399   6.474  13.392   0.083  0.1063 -0.0980 -0.1749
27591W        W43400   1.270   9.354   5.006  0.0657  0.1505  0.0105
27592W        W43401   1.340  10.332   1.532 -0.1337 -0.1826 -0.3146
27593W        W43402   8.731  16.913   4.989 -0.0595 -0.1689  0.1297
27594W        W43403   5.834  17.494  13.323  0.2166 -0.0650 -0.0755
27595W        W43404   5.051   3.496   0.641  0.0879  0.1103 -0.2786
27596W        W43405   7.242  14.047   3.120  0.0190  0.1402 -0.1303
27597W        W43406   9.296   5.467   0.029 -0.1656  0.1054 -0.1003
27598W        W43407   0.014   6.192   3.292  0.0345 -0.2569 -0.1729
27599W        W43408   7.441   2.920   3.356  0.1657  0.0544 -0.1168
27600W        W43409  11.612   7.205   3.826  0.1735 -0.0079 -0.2121
27601W        W43410  11.525   0.568  12.196  0.0703  0.1671  0.1235
27602W        W43411  13.325   5.175  12.982  0.0498  0.1482 -0.5932
27603W        W43412   8.869   9.317  16.584 -0.0630 -0.1141 -0.2504
27604W        W43413   6.546  16.789  13.596  0.0511  0.5867 -0.2292
27605W        W43414   7.653   2.601   6.425 -0.3224 -0.1264  0.1095
27606W        W43415  10.602  15.568  15.679 -0.3982 -0.3263 -0.0849
27607W        W43416  11.548  11.885  12.819  0.1032 -0.0030  0.3487
27608W        W43417  12.229  15.301  13.022  0.3079 -0.3365 -0.0298
27609W        W43418   6.577  13.748  16.416 -0.0080  0.0578 -0.0126
27610W        W43419   7.330  17.553   0.999 -0.1849  0.0916 -0.0265
27611W        W43420  13.420   8.277  15.183  0.2316  0.1612  0.0381
27612W        W43421   1.989   8.472   3.161 -0.0594  0.1845  0.1028
27613W        W43422   6.546   3.058  11.512 -0.0337 -0.2668 -0.0261
27614W        W43423   1.360  11.081   1.522 -0.0972  0.2290  0.1025
27615W        W43424   3.359  16.094  14.064  0.0744 -0.0872 -0.0943
27616W        W43425  14.470   6.501  16.389 -0.2319 -0.0854 -0.0066
27617W        W43426  14.382   3.157  14.126  0.0537  0.0236  0.2050
27618W        W43427   2.715  17.025   5.777  0.0558 -0.2915 -0.0965
27619W        W43428   5.850   5.618  16.395  0.3101 -0.1169 -0.1719
27620W        W43429   5.713   3.370  13.317  0.0672  0.0544 -0.0378
27621W        W43430  10.118  15.395   4.052 -0.3055  0.1825 -0.2907
27622W        W43431   8.084  14.025   2.906  0.1191 -0.1617 -0.2262
27623W        W43432  14.513   1.395  15.583 -0.1279 -0.2989 -0.0193
27624W        W43433  15.493  14.665   5.118  0.1968 -0.0832  0.1077
27625W        W43434   4.806   3.078   3.358  0.2750 -0.3556 -0.0828
27626W        W43435   6.395  10.453   2.149 -0.2365 -0.2189  0.0665
27627W        W43436   2.271  16.540  12.854  0.2558  0.0453  0.3061
27628W        W43437   7.145   6.526   4.548 -0.0055 -0.3504 -0.0034
27629W        W43438   1.148   3.770   2.463 -0.2016 -0.1873  0.0812
27630W        W43439   3.673   2.180  13.853  0.0604 -0.1758 -0.1763
27631W        W43440   1.808   6.168  11.135  0.2969 -0.1440  0.1079
27632W        W43441  17.768   7.715  15.931  0.0192  0.0400 -0.0851
27633W        W43442   7.263  16.766  15.389  0.1859  0.1067 -0.0800
27634W        W43443  10.461   6.323   2.669  0.4366 -0.2159 -0.2164
27635W        W43444  15.760  12.727   6.350 -0.1011 -0.1512  0.2042
27636W        W43445   3.903  16.796   4.558  0.0080 -0.3122 -0.0832
27637W        W43446  14.660  15.912   3.361  0.0553 -0.0014  0.0940
27638W        W43447  17.759   1.766  15.991  0.0071  0.1664 -0.0124
27639W        W43448   9.104   1.010  11.843 -0.0263  0.2369 -0.0748
27640W        W43449  11.224  11.759   0.043 -0.0006 -0.2664  0.1931
27641W        W43450   4.769   0.372   3.317 -0.2914  0.0191 -0.0986
27642W        W43451   4.305  16.055  16.507 -0.1004 -0.1768 -0.2026
27643W        W43452   3.876   7.459   4.807  0.1957  0.1377 -0.0441
27644W        W43453   2.766   6.570   2.379  0.0156 -0.2297  0.1013
27645W        W43454  14.316  11.571   4.584  0.1742 -0.0342 -0.0725
27646W        W43455  14.278  10.871   4.949  0.0173 -0.0240  0.2164
27647W        W43456  17.525   7.574   5.768 -0.0619  0.2162 -0.0036
27648W        W43457   6.768   6.653   1.099  0.2152 -0.0178 -0.0539
27649W        W43458   8.020   8.053   0.838  0.3152 -0.0603  0.1926
27650W        W43459   1.925  17.277  12.992  0.1560  0.0036  0.0804
27651W        W43460   0.499   4.503   5.422 -0.3088 -0.1185 -0.1950
27652W        W43461   3.628   7.039  11.018  0.2224  0.1221 -0.1024
27653W        W43462   1.967   4.509  11.539 -0.1755 -0.1326  0.0937
27654W        W43463   6.828  15.623   4.776  0.0787 -0.1151 -0.1826
27655W        W43464  16.450  14.012   1.921  0.0827  0.1052 -0.2006
27656W        W43465  17.498   1.372   6.228 -0.0247 -0.0227 -0.2917
27657W        W43466   4.196  10.997   5.254  0.0319  0.0208  0.0256
27658W        W43467   8.346  15.979  16.594 -0.1978  0.2021  0.0041
27659W        W43468   0.722  14.797   0.032  0.5537 -0.1069  0.3957
27660W        W43469   2.220  11.928   4.950  0.1515 -0.2011 -0.0428
27661W        W43470   5.875  12.749   5.406 -0.1588  0.2868 -0.1118
27662W        W43471  15.148   6.979  15.087 -0.2152  0.1456 -0.1198
27663W        W43472   7.353   6.819   5.410  0.1617  0.1697 -0.1239
27664W        W43473  16.208  10.462  12.641 -0.3328 -0.0278 -0.1808
27665W        W43474  11.396   3.606   6.021 -0.1707 -0.1336 -0.0158
27666W        W43475   0.578   9.980  11.189 -0.1020  0.0432 -0.0995
27667W        W43476   8.725   5.350   1.158 -0.0299 -0.0397  0.1830
27668W        W43477  10.950  13.192   2.766  0.0382 -0.1228  0.1880
27669W        W43478  15.600  16.513   6.238  0.1430 -0.1686 -0.2733
27670W        W43479   0.800  10.427   1.108 -0.1371  0.2444 -0.2150
27671W        W43480   5.290  13.956  12.261 -0.1103 -0.1267  0.2288
27672W        W43481  13.819  13.927  14.090 -0.1172 -0.3823 -0.2601
27673W        W43482   0.946   5.221  14.854 -0.3241  0.0204 -0.2733
27674W        W43483  14.916  11.592   4.678  0.0248 -0.1516  0.0090
27675W        W43484   8.254  17.541  14.350 -0.1702  0.1248 -0.4956
27676W        W43485   5.346   2.902   6.014  0.1083 -0.2594  0.0592
27677W        W43486   2.389   9.889   0.132  0.1109  0.0193  0.2755
27678W        W43487  13.130  13.750   4.482 -0.1508  0.1585 -0.3549
27679W        W43488  13.240   3.606   5.572  0.1293  0.1235  0.0544
27680W        W43489   0.785   5.249   4.883 -0.2991 -0.3709 -0.0744
27681W        W43490   6.091  13.918   1.354 -0.4158 -0.2528 -0.1172
27682W        W43491   6.124  10.895  14.928 -0.0156  0.4615  0.2786
27683W        W43492  10.487  15.445  13.067 -0.1311  0.3702 -0.1305
27684W        W43493  10.114  15.780   3.720 -0.0520  0.1471 -0.0695
27685W        W43494   7.757  13.773  11.747  0.0689  0.2637  0.1355
27686W        W43495  10.859   4.348   2.872 -0.4719 -0.1702 -0.2561
27687W        W43496   1.145   1.337   3.979  0.0940  0.1418 -0.0569
27688W        W43497  13.664   4.379   1.345 -0.0720  0.0466  0.3295
27689W        W43498   8.010   4.859  15.185 -0.1471  0.2406 -0.1492
27690W        W43499   8.334  11.565   0.632 -0.3387 -0.0286 -0.0568
27691W        W43500  11.722  15.486  11.568  0.3190  0.0658 -0.0785
27692W        W43501   2.328   9.285  13.202  0.2736 -0.1883  0.1042
27693W        W43502  16.612   0.287   4.570 -0.1785  0.1804  0.1765
27694W        W43503  11.118   7.669   0.115  0.0243  0.0533  0.2354
27695W        W43504  16.429  12.627   1.821 -0.1599 -0.1135 -0.0536
27696W        W43505   2.123  11.277   1.950 -0.0890 -0.1411  0.0730
27697W        W43506   5.680   7.469  13.966  0.3917  0.1719 -0.0075
27698W        W43507  11.199  12.258  15.951  0.0689  0.0742 -0.1762
27699W        W43508   3.316  17.756   6.219 -0.0700 -0.0646 -0.0487
27700W        W43509   2.081  15.276   0.381 -0.0440  0.0904 -0.1344
27701W        W43510   2.287   8.290   2.736 -0.0232  0.0401 -0.0831
27702W        W43511  14.567   6.751  12.845 -0.1980  0.2431 -0.1684
27703W        W43512   5.307  16.703  15.544  0.1057 -0.1398 -0.1108
27704W        W43513   5.730  11.431  14.188  0.1138  0.0851  0.0881
27705W        W43514   8.289   2.131   4.720  0.0136 -0.0122 -0.1368
27706W        W43515  16.667   0.036  12.981 -0.2265  0.1596 -0.3757
27707W        W43516  17.287   3.900   4.867  0.1471 -0.1124 -0.1161
27708W        W43517  10.716  17.128  13.002  0.3007  0.0570  0.1653
27709W        W43518   3.215  15.136   1.565 -0.0142  0.2169  0.1263
27710W        W43519  16.369  14.661   0.559 -0.0430 -0.0465 -0.2456
27711W        W43520   9.822   5.375   4.564 -0.1941 -0.2106 -0.1476
27712W        W43521  12.354  16.718   0.098  0.0096  0.0276 -0.1744
27713W        W43522   3.678  14.930  12.553 -0.0235  0.3214  0.0413
27714W        W43523  14.586   3.337  11.848 -0.2123 -0.2923  0.1195
27715W        W43524   5.586   6.729  11.527  0.1821 -0.2085 -0.3117
27716W        W43525   2.125   6.466   2.841 -0.0996  0.1318 -0.2224
27717W        W43526   4.885   3.238   2.017 -0.1077  0.1097  0.0638
27718W        W43527   9.555   2.560   2.538  0.1817 -0.2373 -0.0553
27719W        W43528   9.522  15.073  16.338  0.3563 -0.1834  0.2309
27720W        W43529  11.699  17.071   5.336 -0.0899 -0.0259  0.3421
27721W        W43530  10.667   8.477   0.988 -0.0382  0.0768  0.1403
27722W        W43531   2.728   5.733  15.379  0.2110  0.2575 -0.1116
27723W        W43532  17.797   9.210   5.082  0.0794 -0.0433 -0.0567
27724W        W43533  14.099   6.600   2.420 -0.2488  0.0881  0.1250
27725W        W43534  15.031  13.304   3.200  0.0338 -0.1209  0.2058
27726W        W43535   7.935  12.137  16.677  0.0102 -0.3469  0.0589
27727W        W43536  12.669  11.199  12.308 -0.2656 -0.2003 -0.0584
27728W        W43537   5.801   3.394  15.612 -0.2403 -0.1444  0.1339
27729W        W43538   4.777   4.299   1.760 -0.5460 -0.1956 -0.0076
27730W        W43539   9.447   5.448  14.683 -0.3684 -0.0781  0.0182
27731W        W43540  13.981   7.492  16.390 -0.1132  0.0387 -0.2400
27732W        W43541   9.156   0.507   2.097  0.2324  0.4778 -0.0773
27733W        W43542   2.781   2.351   0.495  0.2067  0.0310  0.0680
27734W        W43543   0.810  14.136  15.045 -0.2105  0.0083  0.1449
27735W        W43544   8.310   6.961  13.345 -0.2984 -0.2173  0.1758
27736W        W43545   3.354  12.515   1.815 -0.0536 -0.1340  0.0899
27737W        W43546  14.428   1.020   4.531  0.2057 -0.0727  0.2128
27738W        W43547  12.012   7.738   4.547  0.0774 -0.1103  0.1170
27739W        W43548   7.677   6.383  13.880 -0.4595 -0.1329  0.0879
27740W        W43549  13.372  12.115   0.360  0.0639  0.0304 -0.2626
27741W        W43550  14.526   2.977   1.023 -0.0149 -0.2441 -0.0934
27742W        W43551   1.639  10.222  11.858 -0.1032 -0.1030 -0.0610
27743W        W43552  14.111  17.282   0.083  0.2068  0.1462 -0.1206
27744W        W43553   9.671   8.595   1.301  0.1928 -0.2615  0.2540
27745W        W43554   9.294   3.300  14.220  0.0845  0.1289 -0.3775
27746W        W43555  12.717  16.546   3.596 -0.1069 -0.2523  0.1174
27747W        W43556   8.382  15.800   0.695  0.2785 -0.1197 -0.4142
27748W        W43557  14.569  10.923   3.873  0.1324  0.0419 -0.1369
27749W        W43558  14.482  15.283   3.683  0.1093 -0.1496  0.1901
27750W        W43559   1.977  11.018   5.978  0.0882  0.2748 -0.2927
27751W        W43560   8.996  17.321  16.610 -0.0447  0.0650  0.0007
27752W        W43561  16.753  13.208  15.871 -0.2114  0.2097  0.2004
27753W        W43562   7.880  13.474   1.948 -0.1470 -0.1092  0.1114
27754W        W43563   2.301  15.463   2.897  0.0501 -0.1709  0.2199
27755W        W43564   2.368   7.646  15.216 -0.2973  0.1665 -0.2395
27756W        W43565   4.247   0.587  14.778 -0.2590 -0.1589  0.0137
27757W        W43566   4.683  12.093   1.148 -0.4119  0.2317  0.1735
27758W        W43567  14.426   5.992   3.932 -0.0686  0.0936  0.2413
27759W        W43568   9.733  15.992   1.763 -0.1192  0.2770  0.2146
27760W        W43569  16.457  13.233   3.162  0.1381  0.1760  0.1425
27761W        W43570  11.522  15.484   4.585  0.0479  0.0115  0.2304
27762W        W43571   3.485   3.955  15.425  0.1192  0.0250  0.2250
27763W        W43572   5.249  15.057  14.825  0.1441  0.0540  0.4070
27764W        W43573   5.502  11.710   2.632  0.1008  0.3434 -0.0822
27765W        W43574   7.763   8.528   2.491  0.1872 -0.1542 -0.1475
27766W        W43575   3.246   3.559   0.139 -0.0711  0.2478 -0.1573
27767W        W43576   5.229  11.976   4.527 -0.1629  0.2149 -0.0820
27768W        W43577   4.396   7.007   3.262  0.2191 -0.0738  0.1325
27769W        W43578   7.995   1.604   0.143 -0.0398 -0.2521 -0.1354
27770W        W43579   5.012   0.685  16.435 -0.1480 -0.1318  0.0261
27771W        W43580   2.116   6.669  16.121 -0.0251  0.3822  0.2707
27772W        W43581  10.737   2.472  14.239  0.0734 -0.1192  0.1377
27773W        W43582   4.215   9.299   4.624 -0.1166 -0.3627  0.1394
27774W        W43583  16.888   8.424   5.596  0.0376 -0.4159  0.0686
27775W        W43584  17.252  14.568  12.969  0.0626 -0.2955  0.0835
27776W        W43585   5.071   1.164  15.141  0.2379 -0.0414 -0.1506
27777W        W43586  13.803  10.343  13.576 -0.1119 -0.1850  0.0668
27778W        W43587   2.336  17.801  12.561 -0.0561 -0.0492 -0.0920
27779W        W43588   3.055  11.761  14.515 -0.1498 -0.1312  0.0535
27780W        W43589   0.120   5.037   2.918 -0.2237  0.0911 -0.0380
27781W        W43590   4.447   4.604  13.128  0.0537 -0.1456  0.1466
27782W        W43591   0.590   1.590  12.855  0.1371 -0.2737 -0.1643
27783W        W43592  17.100  15.671  12.001 -0.3785  0.4733 -0.0231
27784W        W43593  11.710  17.124  15.917 -0.1032 -0.1911  0.0320
27785W        W43594  17.460  12.757  16.217 -0.3751 -0.0111 -0.1491
27786W        W43595   5.872  12.857  15.806  0.1794  0.2540 -0.1865
27787W        W43596  16.006   2.283   3.902  0.1914  0.1685 -0.1670
27788W        W43597  12.931  10.927   4.514  0.0875 -0.0540  0.2859
27789W        W43598   3.859   7.289  11.368 -0.3322 -0.1944  0.3527
27790W        W43599   8.128  12.080  15.860 -0.0311 -0.2655 -0.1862
27791W        W43600   4.599   8.603   1.404  0.1852 -0.1779  0.1086
27792W        W43601  17.565   1.455   3.895 -0.0731  0.3106 -0.0570
27793W        W43602   5.052  16.779   1.769 -0.2677  0.3409 -0.2845
27794W        W43603   9.929   8.504   5.432  0.1181  0.2289 -0.0741
27795W        W43604  11.300  16.834  14.322  0.1727  0.2147  0.1124
27796W        W43605   4.968   2.496  16.515  0.0439  0.0992 -0.1243
27797W        W43606  15.551   1.945  12.326 -0.1661  0.0222  0.3475
27798W        W43607   4.935  14.167   1.761 -0.4067 -0.0073 -0.1077
27799W        W43608   8.307  10.017   4.608 -0.4784  0.1121 -0.1705
27800W        W43609   6.876   2.040   4.765 -0.0391 -0.0635 -0.0309
27801W        W43610   1.130   4.614  11.312  0.1841 -0.3976 -0.0487
27802W        W43611   9.793   3.372   2.358 -0.2474 -0.4099 -0.0770
27803W        W43612   9.422   7.921   5.251  0.1701  0.2595 -0.0648
27804W        W43613   8.711   3.334   3.418  0.0291  0.1125  0.0401
27805W        W43614  10.454   0.413   1.760  0.0419 -0.0110  0.0498
27806W        W43615  10.643   2.260  13.241  0.0955 -0.2572  0.1315
27807W        W43616  16.119  10.234   3.935  0.1061 -0.1751 -0.2821
27808W        W43617  15.129   5.652   4.563 -0.0080 -0.3958 -0.1611
27809W        W43618  16.002   1.515   1.190 -0.1293  0.1493  0.1523
27810W        W43619   5.541  13.999  14.788 -0.1849 -0.3299  0.1192
27811W        W43620  16.925   8.543  11.962  0.1905 -0.1661  0.0299
27812W        W43621   1.057  16.540   0.486  0.1902  0.1085 -0.0911
27813W        W43622  11.916  15.035  15.186  0.2405 -0.0551  0.2892
27814W        W43623   7.502  11.202  16.092 -0.0155  0.2589 -0.2158
27815W        W43624   6.747   8.368  16.054 -0.1313 -0.2448  0.0610
27816W        W43625   0.967   9.394   3.336 -0.1274  0.2050 -0.2567
27817W        W43626   7.899  17.646   4.486 -0.1134 -0.0468 -0.3048
27818W        W43627  14.650   3.572   1.673 -0.2991 -0.4055 -0.2375
27819W        W43628   9.219  10.975   3.590  0.1977  0.2849  0.4030
27820W        W43629   6.921   0.829   5.387 -0.0920 -0.1846 -0.1798
27821W        W43630  12.668  16.874   2.790  0.3571 -0.2876  0.2706
27822W        W43631  17.823  10.036   2.575  0.0003 -0.0810 -0.1096
27823W        W43632   4.560  15.223  11.359  0.2135 -0.0459  0.1300
27824W        W43633  16.872   7.907   1.332  0.0905  0.2341  0.0669
27825W        W43634   4.861   8.272  10.589 -0.0995 -0.0580  0.0570
27826W        W43635   4.390   8.887  11.097  0.1531  0.4651  0.2844
27827W        W43636  14.255   7.210   2.451 -0.1361 -0.2567  0.1656
27828W        W43637  14.231  17.652   2.528 -0.1557  0.1778 -0.1247
27829W        W43638  13.109   6.781  15.778  0.2217 -0.1340 -0.0331
27830W        W43639   4.678   1.401   2.499 -0.1470 -0.3693 -0.1095
27831W        W43640  12.929   5.197   1.397 -0.2996  0.0203  0.0437
27832W        W43641   4.201  17.903  12.476 -0.1330  0.0245  0.0048
27833W        W43642  16.427  11.520   5.962 -0.2399  0.0186 -0.2920
27834W        W43643   7.011  17.641   5.653 -0.1294  0.1337  0.1865
27835W        W43644  17.203  16.681   0.010 -0.1027 -0.0986  0.1028
27836W        W43645  11.860  11.718   5.416  0.3004  0.1496 -0.0049
27837W        W43646   1.918  17.223  14.703  0.2489 -0.0447  0.2807
27838W        W43647   1.738  10.152   5.470  0.1496 -0.1082 -0.0850
27839W        W43648   3.476  10.207   0.484  0.1130 -0.2027 -0.0681
27840W        W43649  15.821   5.390  15.539  0.0976 -0.0222  0.0459
27841W        W43650   6.971   5.717  12.547 -0.0653 -0.0009 -0.0531
27842W        W43651  11.828   9.959   3.148  0.2115 -0.2451 -0.2975
27843W        W43652  11.157  15.976   0.478  0.0071 -0.2934 -0.1307
27844W        W43653   3.780  16.352  11.610 -0.2301 -0.2414  0.1153
27845W        W43654   5.912   7.036   4.806  0.0086  0.0563 -0.0973
27846W        W43655  15.694  12.831  15.455 -0.0307 -0.2408 -0.0516
27847W        W43656  16.650  12.383   3.530  0.0845  0.3086  0.0120
27848W        W43657   2.867   2.915  15.963 -0.0629  0.0249 -0.0320
27849W        W43658   9.668   3.116   0.993 -0.0511  0.0977 -0.2112
27850W        W43659   6.241   5.442   4.871 -0.1082  0.2382  0.0295
27851W        W43660  13.445   6.074  12.290 -0.1134 -0.1277 -0.1111
27852W        W43661   2.246  15.218   1.891  0.1714  0.0110 -0.2035
27853W        W43662  11.257   2.553  11.112  0.1107  0.0738  0.0093
27854W        W43663   4.400   5.337   3.171  0.2005 -0.1141 -0.1318
27855W        W43664  17.636   9.470   0.169 -0.2657 -0.0077  0.0775
27856W        W43665   1.535  16.299   4.902  0.1085 -0.0025  0.1050
27857W        W43666  10.582   3.321  16.163 -0.0196 -0.1464  0.1170
27858W        W43667   8.804   9.017   5.482 -0.0424  0.1445 -0.2061
27859W        W43668  17.632  14.905   5.811 -0.3695  0.1407 -0.1099
27860W        W43669  17.449   1.525  14.076  0.0174  0.1367 -0.3173
27861W        W43670  13.037   1.534   1.760  0.1035  0.0046 -0.0424
27862W        W43671  15.465  14.931   3.797  0.1147  0.0299  0.0733
27863W        W43672   4.005   7.281  10.811  0.0015  0.0547  0.2123
27864W        W43673  12.953   0.013   2.911 -0.0272  0.0742  0.0072
27865W        W43674   8.188  15.887   2.420  0.0793 -0.0629 -0.0777
27866W        W43675   4.372  14.880  12.388  0.3077  0.2206  0.1289
27867W        W43676   0.305  14.389   1.363 -0.1824  0.1178  0.0670
27868W        W43677   8.105   2.291   1.367  0.1632 -0.2331  0.0133
27869W        W43678   1.449  14.690  13.039 -0.0061 -0.0951 -0.0791
27870W        W43679  13.782  10.045   0.089 -0.1436  0.1384 -0.0564
27871W        W43680   5.547   1.274   1.987 -0.1559 -0.0604 -0.1138
27872W        W43681  16.310  11.504   0.207 -0.1800  0.1896 -0.1024
27873W        W43682   7.874   1.248   2.859  0.1973  0.2464  0.2005
27874W        W43683   7.429   0.480   0.780  0.1936  0.1354  0.0873
27875W        W43684  10.633  13.610   6.103 -0.0392 -0.1812 -0.3540
27876W        W43685   9.348  11.970   0.587 -0.2367  0.4816  0.0004
27877W        W43686  14.532   5.235  16.657 -0.1724  0.0573 -0.4122
27878W        W43687   6.891   8.442   2.309  0.2787  0.1591  0.2166
27879W        W43688   3.503  17.391  12.974  0.0436 -0.0306  0.0244
27880W        W43689   5.503   4.170   5.399 -0.3299  0.0296 -0.0409
27881W        W43690   1.936  10.609  11.888  0.1350  0.0308  0.1960
27882W        W43691  13.128  11.163   4.016 -0.1210 -0.0849  0.1079
27883W        W43692   6.862   2.049   0.309 -0.0551 -0.1899  0.1974
27884W        W43693  17.595  14.775   4.399 -0.1136  0.0303 -0.0118
27885W        W43694   6.166  12.869   2.180 -0.2626  0.1191  0.0509
27886W        W43695   8.845  15.990   5.122  0.0616  0.0396 -0.1999
27887W        W43696   3.969   0.686   3.092 -0.0566 -0.0060  0.2157
27888W        W43697  10.109  15.319  12.712 -0.0833 -0.1665 -0.0320
27889W        W43698   5.116  11.420  15.636  0.2485 -0.1013 -0.1189
27890W        W43699   1.137  14.734   1.440  0.0269 -0.2558  0.0320
27891W        W43700   1.804   9.890  12.675 -0.0901  0.2077  0.2385
27892W        W43701  17.307   0.291  12.065  0.0607  0.0649  0.2698
27893W        W43702   0.741   2.669  15.319  0.0715 -0.0672  0.2494
27894W        W43703   6.596  16.349  15.316 -0.0163 -0.4634  0.2176
27895W        W43704   4.007   5.744   3.109  0.1348 -0.2944 -0.0041
27896W        W43705   2.214   4.014   4.003  0.3359  0.1649  0.0883
27897W        W43706   8.879   7.889   3.225 -0.3393  0.2661 -0.5270
27898W        W43707   1.099   8.628   1.654  0.2400  0.0221  0.0089
27899W        W43708   4.474   2.294   3.646  0.1773 -0.1820 -0.2006
27900W        W43709  10.984  15.867   3.917  0.0278  0.1616 -0.0855
27901W        W43710  11.448   1.111   4.299 -0.1035 -0.3097  0.0796
27902W        W43711   3.746  11.968  16.701  0.0908 -0.3137  0.0056
27903W        W43712   1.741   0.770   1.149 -0.1864 -0.1189 -0.2545
27904W        W43713   4.725   8.928   2.032  0.1293  0.2252  0.2321
27905W        W43714   1.075   9.138   2.878  0.0749  0.1039  0.0538
27906W        W43715   7.705  10.838   0.463  0.0165 -0.1870  0.0820
27907W        W43716   4.866  14.158  12.562 -0.0410 -0.2882 -0.1055
27908W        W43717  15.540  12.569  14.632  0.3878 -0.0041 -0.0250
27909W        W43718   9.538  17.068   3.439 -0.0964 -0.1303 -0.1229
27910W        W43719   5.876   5.566  13.442 -0.2185 -0.0118 -0.4575
27911W        W43720  13.984  14.228   0.204 -0.0605  0.0432  0.2633
27912W        W43721   2.837   0.766   4.334 -0.3614  0.2825 -0.2692
27913W        W43722   9.734   9.767  13.479 -0.2791 -0.1285 -0.1221
27914W        W43723  16.990   0.932   2.206  0.0630  0.0624  0.0314
27915W        W43724  11.275   6.516   2.772 -0.0129  0.0874 -0.0941
27916W        W43725   4.749   1.921  11.566  0.0990  0.0233  0.0127
27917W        W43726   8.410   4.470  11.717 -0.0591 -0.0328  0.0681
27918W        W43727   9.164   4.931  12.257 -0.1793 -0.0231  0.0918
27919W        W43728   3.626   3.065   0.081 -0.1676  0.0155  0.2071
27920W        W43729  15.344  16.231   3.165 -0.0368 -0.0182  0.0240
27921W        W43730  14.970   6.555   2.813 -0.2169 -0.1075 -0.0166
27922W        W43731  15.930  16.877   3.577  0.3723 -0.0454 -0.0803
27923W        W43732  16.472   0.113   5.231 -0.1211 -0.0100 -0.1808
27924W        W43733  13.391   1.065  14.768  0.1331  0.1419  0.0583
27925W        W43734   4.313  13.612   4.611 -0.2425 -0.1027  0.2513
27926W        W43735   0.352   0.456   1.470  0.1853  0.1677  0.0416
27927W        W43736  14.985   5.324   3.617  0.1801 -0.0546 -0.0363
27928W        W43737   3.586   2.189   3.807 -0.1570  0.1673 -0.0260
27929W        W43738   0.988  15.286   4.047 -0.2760  0.1786 -0.1599
27930W        W43739   0.943  13.940   0.709  0.1621  0.2072  0.0072
27931W        W43740   8.352  10.162  12.161 -0.0190  0.1233 -0.5871
27932W        W43741   5.504  14.210   0.216  0.0999 -0.3166  0.3659
27933W        W43742  10.913   9.560   6.387 -0.0177 -0.1472  0.1345
27934W        W43743  12.606   4.621   1.466 -0.1041 -0.0442 -0.4944
27935W        W43744   6.017  16.807   5.306 -0.3066  0.2746  0.1518
27936W        W43745  17.859   4.708  12.298  0.2389  0.2292  0.1303
27937W        W43746   0.363   1.136  11.258 -0.1189 -0.0272 -0.1742
27938W        W43747   3.833  16.744  13.594  0.0523  0.0397 -0.0899
27939W        W43748  13.732   3.789   5.596  0.0254 -0.3266 -0.0386
27940W        W43749  11.047   4.789   4.795  0.1292 -0.0873 -0.3604
27941W        W43750  17.773  13.842  12.273  0.0295  0.3013 -0.0036
27942W        W43751   9.534   6.636  16.036  0.0895  0.0579 -0.1179
27943W        W43752  10.716  14.047   1.869  0.1673 -0.1977  0.1558
27944W        W43753   6.982   5.059   2.032 -0.3724  0.1046  0.3866
27945W        W43754  10.094   9.773   4.966 -0.2110  0.0792 -0.1346
27946W        W43755   7.566   2.896  13.109  0.0929  0.0369 -0.0520
27947W        W43756  10.569  11.463  12.535  0.2504  0.1613  0.3246
27948W        W43757  11.756   9.385  14.237 -0.0421  0.0625 -0.0771
27949W        W43758  13.093   9.722  13.861 -0.2102 -0.2473 -0.3099
27950W        W43759   3.087  14.007   1.753  0.3271 -0.0540 -0.0371
27951W        W43760  17.641  17.292  16.117  0.1097 -0.1605  0.1942
27952W        W43761  10.725   6.982  15.047  0.0187 -0.1505 -0.2329
27953W        W43762  15.346  12.478   2.706 -0.0540  0.1718 -0.0764
27954W        W43763   3.816   7.450  14.995  0.1067  0.1269 -0.3554
27955W        W43764   3.952  15.000   6.015 -0.0054 -0.1272  0.0840
27956W        W43765   1.091  10.303   4.525  0.0819 -0.0312 -0.1089
27957W        W43766   7.537   8.545   3.741  0.1655  0.0632  0.1670
27958W        W43767  13.148  17.138  13.570 -0.2084  0.0352  0.2102
27959W        W43768   3.163  11.706  12.543  0.1001  0.0785  0.0339
27960W        W43769   2.827   3.507   5.062  0.1275 -0.0720 -0.1797
27961W        W43770  15.413  13.784  15.224 -0.0118 -0.1474 -0.2698
27962W        W43771  13.244   1.103   1.923 -0.1490  0.0280  0.3757
27963W        W43772   0.648   9.611  10.818 -0.3071 -0.3883  0.1091
27964W        W43773   6.968  12.163  13.111  0.1662 -0.1825 -0.0914
27965W        W43774  16.366  16.703  12.267 -0.0879 -0.1463  0.2022
27966W        W43775  15.720   0.871   5.890  0.0864  0.0624  0.0677
27967W        W43776   9.519  17.035  16.492 -0.0954 -0.2392 -0.1727
27968W        W43777   4.922   3.326  14.845 -0.0066  0.2110 -0.1222
27969W        W43778   7.860  16.343   1.443 -0.0617 -0.0749  0.2470
27970W        W43779  13.415   5.122  12.492  0.0519 -0.4435  0.1070
27971W        W43780  16.173   9.713   5.439 -0.0208 -0.0700 -0.0754
27972W        W43781   3.572  10.422  15.893 -0.0208  0.1474 -0.2467
27973W        W43782  10.047  17.579  11.813  0.1947  0.0743 -0.0239
27974W        W43783   0.690   9.157  13.329  0.0113 -0.0740  0.0109
27975W        W43784   2.922  13.964  12.186 -0.1000  0.1864 -0.0019
27976W        W43785   7.352   9.936   0.262  0.1277  0.1623 -0.0220
27977W        W43786  15.856  11.972   1.199 -0.1405 -0.0893  0.1927
27978W        W43787   0.782   5.180   2.193 -0.3839 -0.0287  0.3168
27979W        W43788  12.429  14.938   1.541  0.0048  0.3981 -0.1606
27980W        W43789   2.721   9.780  13.282  0.1790 -0.1301 -0.3657
27981W        W43790  11.729  16.348   5.667  0.0962  0.1358 -0.1907
27982W        W43791  13.720   4.041  16.383  0.1999 -0.0355 -0.0149
27983W        W43792  10.631   9.582  13.529 -0.1823  0.0702 -0.2254
27984W        W43793   5.267  13.833  12.728  0.1798 -0.0074  0.1209
27985W        W43794   1.232  17.307  14.386 -0.1251  0.2154 -0.0714
27986W        W43795  12.455   6.021   1.117  0.2522 -0.0827 -0.0167
27987W        W43796   9.005  12.265  12.185 -0.0855  0.1977  0.0649
27988W        W43797   2.336   6.362   4.016  0.1773  0.1442 -0.0559
27989W        W43798  12.418  16.667   5.001 -0.1376  0.0135 -0.1949
27990W        W43799   0.584   5.505  16.136 -0.2634 -0.0857 -0.2092
27991W        W43800  11.934  15.798   1.427 -0.2109 -0.1907  0.2092
27992W        W43801  10.231   5.956  13.009  0.0401  0.0902 -0.2438
27993W        W43802  14.269   6.762   3.638 -0.1633 -0.1412 -0.2316
27994W        W43803  11.476   5.133   6.557 -0.3731 -0.2847 -0.1685
27995W        W43804  11.319   1.201  14.686  0.0498 -0.1311  0.1343
27996W        W43805   7.597   9.119  12.439  0.0003 -0.0311  0.1067
27997W        W43806   3.018  12.277  12.688  0.1121 -0.0292 -0.2308
27998W        W43807   2.671  13.293   3.572 -0.1475  0.2021 -0.0071
27999W        W43808   1.184  15.405   5.819 -0.2451  0.0852 -0.1066
28000W        W43809   8.177   0.930  15.741  0.0512  0.3490 -0.0117
28001W        W43810  11.343   1.043  12.756  0.4038 -0.1382  0.0317
28002W        W43811   5.392   3.188  13.703 -0.4680  0.1323  0.0075
28003W        W43812  15.766   1.103  11.850  0.0492 -0.0863 -0.0922
28004W        W43813  11.411  16.671   5.367  0.0270 -0.0337 -0.0817
28005W        W43814  17.558   2.382   1.802  0.1297  0.2649  0.1528
28006W        W43815  17.724   7.922  14.937  0.0029 -0.0664 -0.4536
28007W        W43816  17.635  16.634   3.404  0.1720  0.1331  0.4936
28008W        W43817   7.609   5.144  14.960  0.0732  0.0513 -0.0147
28009W        W43818   6.530   6.710  10.564 -0.0724  0.1593 -0.2202
28010W        W43819  12.144  13.969   3.765 -0.2885  0.0943  0.0734
28011W        W43820  11.886   0.471   3.133  0.0064 -0.3698 -0.2448
28012W        W43821  11.961   5.842  13.477  0.2185  0.0642  0.0674
28013W        W43822   3.615   3.682   3.950  0.1578  0.0485  0.0588
28014W        W43823  17.207   1.198  15.526 -0.1835  0.2968  0.2641
28015W        W43824   9.360  10.593   1.330  0.0446  0.0791 -0.0676
28016W        W43825   4.702   1.057   3.767 -0.2731 -0.0426  0.0821
28017W        W43826   0.273  13.260   1.387  0.5646 -0.1549 -0.2092
28018W        W43827   8.427  12.302   5.562  0.3127 -0.0290 -0.0156
28019W        W43828   0.822  15.654  14.626 -0.0841  0.1539  0.1165
28020W        W43829   3.252  10.380   3.098  0.0265 -0.4023  0.0170
28021W        W43830   6.035   7.134  11.237 -0.1584  0.0903 -0.1854
28022W        W43831  14.210  12.047  14.290 -0.1108 -0.2689  0.0430
28023W        W43832   9.674  15.595  14.067 -0.1581 -0.1660  0.1045
28024W        W43833  13.406   4.687  11.650 -0.3375  0.1660  0.0120
28025W        W43834   2.002   5.450   1.105 -0.1502  0.0768  0.1811
28026W        W43835   6.563  12.743   1.889 -0.1839  0.3384  0.0478
28027W        W43836   3.609  12.451  11.283 -0.0210 -0.1840 -0.0544
28028W        W43837  17.796   6.985  15.284  0.0960  0.1013 -0.1875
28029W        W43838   4.720  17.806  12.544  0.2579 -0.1909  0.0233
28030W        W43839  15.533  17.509  13.562  0.0074  0.1103  0.0900
28031W        W43840   5.251   7.341  10.716  0.0818  0.1553  0.1104
28032W        W43841   3.543   4.750  12.576 -0.1128 -0.1737  0.0669
28033W        W43842   1.315  15.963  15.360 -0.1850 -0.3215  0.2364
28034W        W43843   5.708  15.272  14.255 -0.0409 -0.0033 -0.0811
28035W        W43844   4.129  13.127   2.045 -0.2087  0.2541 -0.0292
28036W        W43845   8.523   6.381   2.945 -0.0651  0.0327 -0.0710
28037W        W43846   7.311   6.686  11.069  0.1413 -0.3271  0.1293
28038W        W43847  11.983  15.594   0.676 -0.0599 -0.1747 -0.1356
28039W        W43848  14.620  10.424  12.192  0.1207  0.0910  0.0498
28040W        W43849  16.986   7.608   2.391  0.0920 -0.0818  0.2567
28041W        W43850   8.110   7.309  14.777 -0.1760 -0.3965  0.1707
28042W        W43851  16.241   1.326   3.712  0.0843  0.2505 -0.0399
28043W        W43852  17.797   2.328  11.892  0.0064  0.3118 -0.0020
28044W        W43853   9.260   3.363  11.735 -0.1733  0.3907  0.3714
28045W        W43854  11.419   6.024  16.261 -0.1367  0.1771  0.2839
28046W        W43855   2.061  12.888   0.458  0.0920 -0.0066  0.2408
28047W        W43856   4.305  14.680   0.270 -0.1995  0.0327 -0.2635
28048W        W43857   9.717   6.817   4.029  0.2046  0.1394 -0.1634
28049W        W43858  12.031  14.733   2.683 -0.0428 -0.2244 -0.0841
28050W        W43859  10.306  16.323  14.129  0.3674 -0.2789 -0.2724
28051W        W43860  13.765   8.946  13.212  0.1468  0.2911 -0.1861
28052W        W43861  11.027   4.474   1.528 -0.2852 -0.1265 -0.0263
28053W        W43862  17.832  10.469   2.870  0.1821 -0.3375  0.5163
28054W        W43863  15.376  13.076  16.485  0.0062  0.0420 -0.0688
28055W        W43864   4.250   7.457   5.121 -0.1752  0.2274  0.0411
28056W        W43865   3.393   1.720  14.008 -0.1502  0.1472  0.2495
28057W        W43866  15.161  14.442   3.130 -0.0704 -0.0587 -0.1915
28058W        W43867   5.803   9.703   2.642  0.3562 -0.2272  0.0280
28059W        W43868   4.516   5.806   2.845  0.1297  0.0381  0.0188
28060W        W43869  15.591   5.284  11.669 -0.0952 -0.1675  0.0198
28061W        W43870  11.944  17.030   3.603  0.1600 -0.2474  0.0791
28062W        W43871  14.401  16.407  13.640  0.1036  0.0776  0.1082
28063W        W43872   8.243   9.933  12.681 -0.0826  0.0575  0.1753
28064W        W43873  14.464   3.704   2.341 -0.2963 -0.0378 -0.1161
28065W        W43874  14.005  12.049  11.628 -0.0759  0.0811  0.0050
28066W        W43875  13.805   4.625  16.704  0.1957 -0.1074 -0.0081
28067W        W43876  11.153  17.317   2.289 -0.1585 -0.0250  0.1803
28068W        W43877  10.759   3.760   3.521  0.0488  0.1326 -0.1882
28069W        W43878   5.058  11.632   4.094 -0.0519  0.0685  0.0297
28070W        W43879  12.100  16.145  13.436  0.1836  0.5011  0.0847
28071W        W43880   1.383  12.474  16.373  0.3866  0.3295  0.0006
28072W        W43881  13.084   7.302  15.615  0.0617 -0.0600 -0.3039
28073W        W43882   1.972  14.881   0.129  0.1432 -0.2001  0.0597
28074W        W43883  12.471   8.881  12.773  0.2620  0.0912  0.0776
28075W        W43884  16.757  11.711   0.397 -0.1998 -0.0160  0.0035
28076W        W43885   0.632  14.165  12.812  0.1649  0.0713 -0.0708
28077W        W43886   5.901   4.746   1.839 -0.1387  0.0633 -0.0043
28078W        W43887  12.371   5.686  15.034 -0.2657 -0.0690  0.2481
28079W        W43888   0.543   6.054  16.208 -0.2715 -0.2848 -0.1574
28080W        W43889   2.318  16.809  12.118  0.0952  0.1408 -0.1315
28081W        W43890   7.888   5.871  14.146 -0.1924 -0.0579  0.1373
28082W        W43891   1.096  10.878   5.659  0.0218 -0.1509  0.1481
28083W        W43892   4.464  14.579   4.513  0.1810 -0.0488  0.1366
28084W        W43893  13.272  14.399   0.183 -0.1882  0.0433 -0.0449
28085W        W43894  17.236   3.061  14.223 -0.2302  0.0236  0.0254
28086W        W43895   2.577  11.706   2.487 -0.1276 -0.2396  0.3330
28087W        W43896  12.963   9.789   2.046 -0.3159 -0.0250 -0.1413
28088W        W43897  12.401   0.477   1.031 -0.0923  0.0645  0.2716
28089W        W43898  12.035   1.297  13.307 -0.3246  0.3268 -0.1733
28090W        W43899   2.187  13.269   6.205  0.1057 -0.0164 -0.1277
28091W        W43900  11.508   2.939   4.680  0.0886  0.0428  0.0467
28092W        W43901   7.992   7.717  13.763 -0.0670 -0.0544  0.2351
28093W        W43902  15.558  15.468   2.790  0.1145  0.2924  0.1337
28094W        W43903  13.575  13.632   5.539  0.2383  0.1464  0.2538
28095W        W43904   4.599   8.710  12.684 -0.0010 -0.0936 -0.0330
28096W        W43905   7.328  16.387   5.420 -0.0811 -0.0038  0.0623
28097W        W43906   0.811   4.581  10.201 -0.2947  0.3122  0.1487
28098W        W43907   8.193   6.242  14.046  0.0448 -0.2788 -0.2322
28099W        W43908  15.316   6.739   1.590  0.0673  0.0565 -0.2160
28100W        W43909   1.612   8.921  12.217 -0.2051  0.2604  0.0184
28101W        W43910   6.430  10.326   4.060 -0.1253  0.2169  0.0291
28102W        W43911  17.128   3.326  15.559  0.0413 -0.0424 -0.1999
28103W        W43912  11.308  14.544   0.124  0.1412  0.1450  0.0240
28104W        W43913   1.779   7.746  16.095  0.1666 -0.0143  0.0162
28105W        W43914  16.382  16.867   2.684 -0.2392 -0.0892 -0.0256
28106W        W43915   8.844   6.233  14.855 -0.0064  0.0158 -0.4297
28107W        W43916  12.596   3.901  15.059  0.1331 -0.0735 -0.0888
28108W        W43917   8.806   0.628   2.533  0.1293  0.0386 -0.0047
28109W        W43918  13.558   5.062  16.581  0.2223  0.2645  0.2651
28110W        W43919   2.061  16.907   3.106  0.0994 -0.1433  0.1541
28111W        W43920  13.042   0.139  16.685  0.2251  0.1574  0.1422
28112W        W43921   9.948  10.033  16.437 -0.2774 -0.0563 -0.1432
28113W        W43922   6.342   9.342   1.932  0.1777 -0.3424 -0.1932
28114W        W43923   0.852   7.802   3.770  0.0366  0.1181 -0.1853
28115W        W43924  12.657  16.165  16.255 -0.1719 -0.2525  0.2368
28116W        W43925  12.327   5.718   2.793 -0.2973  0.1885  0.0384
28117W        W43926   2.497  12.919   5.607  0.1158 -0.1538  0.0899
28118W        W43927   1.274   8.060  15.981 -0.0805 -0.0038 -0.0834
28119W        W43928   5.204  15.364   2.594  0.2493 -0.2898  0.3749
28120W        W43929  12.056  11.611  13.231 -0.0650 -0.0719  0.2423
28121W        W43930  16.309  12.793   0.603  0.4049  0.0964  0.0515
28122W        W43931  14.941  16.170  15.481 -0.1016  0.0233 -0.0889
28123W        W43932  10.850  16.327  12.156 -0.0943  0.2106 -0.1430
28124W        W43933  15.472  15.754   4.465 -0.0418 -0.0533 -0.2304
28125W        W43934  11.408   2.888  14.836 -0.3515  0.0970  0.0035
28126W        W43935  12.120   3.496   1.736 -0.0609  0.1301  0.0499
28127W        W43936  10.493   9.431   3.126  0.0036  0.1109  0.2321
28128W        W43937  12.841  10.410   1.037 -0.3263 -0.0808 -0.0346
28129W        W43938  10.084  12.957  14.626  0.1623 -0.2801 -0.1380
28130W        W43939  17.556   7.918   3.226  0.0202  0.0660 -0.2682
28131W        W43940  10.870   5.957   0.875 -0.0039 -0.1905  0.1981
28132W        W43941   5.484   3.340   3.965 -0.1776 -0.0907 -0.0970
28133W        W43942   5.627   4.182   1.142  0.2562 -0.1578  0.4441
28134W        W43943  17.358  11.767   3.722 -0.1173 -0.1635 -0.0006
28135W        W43944  15.421   8.429   0.219 -0.2677 -0.1746  0.0638
28136W        W43945   9.520   3.945  12.387  0.0393 -0.0155  0.1122
28137W        W43946  16.524   1.810  14.483 -0.0096  0.1756  0.3120
28138W        W43947   2.242   4.286   0.294  0.0173 -0.2667 -0.0517
28139W        W43948  15.903   0.731  11.446 -0.0482  0.1397 -0.2807
28140W        W43949  17.060  12.950   4.225  0.1650 -0.0353  0.3847
28141W        W43950  11.462  12.192   3.946  0.0800  0.0721 -0.1038
28142W        W43951  12.324   2.699   2.294  0.0585  0.0849 -0.2551
28143W        W43952   0.259   1.501   2.610  0.1180  0.0564  0.1983
28144W        W43953  14.745  11.856  16.375 -0.0526  0.1231 -0.5650
28145W        W43954   5.922  15.526  13.335  0.0242 -0.0768 -0.2903
28146W        W43955  14.731   3.278   5.558  0.1953  0.2851 -0.0120
28147W        W43956  14.414  13.811   5.155 -0.1734 -0.0293  0.3172
28148W        W43957  10.847   0.927   4.590 -0.1452 -0.1707  0.1117
28149W        W43958   5.811   5.396   3.628  0.0458 -0.0151  0.0473
28150W        W43959  17.512  16.038   4.919  0.2229  0.0379  0.0479
28151W        W43960  17.544  14.087   0.733 -0.0267 -0.3072  0.0187
28152W        W43961  15.458   6.228   3.855  0.1357 -0.0426 -0.2188
28153W        W43962  14.867   0.187   1.470  0.0474  0.1521  0.0570
28154W        W43963  12.230   3.745  13.359  0.0715  0.0376  0.0075
28155W        W43964   1.035   6.308  11.346 -0.2069  0.1058 -0.0436
28156W        W43965   6.958  11.979  12.176 -0.1893 -0.3103 -0.1565
28157W        W43966  17.298   9.754   2.675 -0.0592 -0.1296 -0.1984
28158W        W43967   0.404   7.892  11.788 -0.0161 -0.0455 -0.0386
28159W        W43968  13.033   1.579  11.701  0.0468 -0.3923 -0.0091
28160W        W43969   4.151   3.436   5.197 -0.1699 -0.2454  0.1342
28161W        W43970   0.151  13.867  16.683  0.0194 -0.1729  0.0935
28162W        W43971  17.060  10.262   5.732  0.2322  0.1311  0.1084
28163W        W43972  10.568  13.030  16.133 -0.0289 -0.1562  0.2446
28164W        W43973   6.648  10.816  13.952 -0.2580 -0.0377  0.0356
28165W        W43974   5.383  14.683  15.444 -0.1098 -0.1120  0.2606
28166W        W43975   9.175   6.543  15.059  0.1373  0.1711 -0.0231
28167W        W43976  17.635   8.461   2.584 -0.0585 -0.0108 -0.0958
28168W        W43977   6.661  13.470  14.951  0.0723  0.0930  0.0904
28169W        W43978   5.667  13.342   4.181 -0.3064  0.2657  0.0425
28170W        W43979   1.312   5.191   4.613  0.0896 -0.0368 -0.2213
28171W        W43980  11.963  14.480  14.064 -0.2309  0.2105 -0.0443
28172W        W43981   0.778   2.221  15.134  0.0307 -0.2047  0.2501
28173W        W43982  17.261  15.545  15.841  0.0606  0.1214  0.1433
28174W        W43983  16.926  15.031   4.032  0.2734 -0.1996  0.2528
28175W        W43984   1.280   2.737  15.150  0.3079  0.0003 -0.1714
28176W        W43985   1.733   0.414  11.447  0.0410  0.1824 -0.0151
28177W        W43986   6.341  15.620  13.672 -0.1681 -0.0229 -0.5098
28178W        W43987   2.285  11.121  16.086  0.1682 -0.0122  0.0062
28179W        W43988   7.758  10.726   3.142  0.2741  0.1776  0.2811
28180W        W43989  11.969  14.510   5.295  0.2212 -0.3075  0.1101
28181W        W43990  15.934   7.109   0.355 -0.1223  0.3448 -0.0811
28182W        W43991  12.300  10.831   3.286  0.1272  0.1939  0.0117
28183W        W43992  10.653   4.126  15.370  0.0607 -0.1236  0.3489
28184W        W43993  16.728   4.831  13.165 -0.2441  0.1363  0.0715
28185W        W43994  15.276   4.372  11.594  0.2078 -0.1358  0.0129
28186W        W43995  16.094  13.851   0.217 -0.1140 -0.3128  0.1647
28187W        W43996   9.812  12.203   3.020 -0.1913  0.0008  0.1705
28188W        W43997   5.820  16.446   2.526 -0.3122  0.1822 -0.1778
28189W        W43998  17.564   3.490   1.365 -0.2589 -0.1175  0.1725
28190W        W43999  13.338  17.688   3.058  0.2249 -0.0443  0.1344
28191W        W44000   9.043   3.810   1.125  0.2556 -0.0814  0.3103
28192W        W44001  16.073  12.095  16.280 -0.0355  0.3108 -0.0652
28193W        W44002  17.486   5.358  12.182 -0.2741 -0.3153  0.3865
28194W        W44003  17.291   7.580   1.542  0.0428  0.0172  0.0461
28195W        W44004   4.192  10.752   3.406  0.1342 -0.1055 -0.1858
28196W        W44005  11.581   9.495   2.144 -0.3939 -0.2735 -0.1911
28197W        W44006  13.779  16.385   5.395 -0.0235  0.1567 -0.1382
28198W        W44007  15.746   2.505   0.381 -0.0988  0.1925  0.0893
28199W        W44008   3.649   5.644   5.051 -0.3802 -0.0693 -0.1936
28200W        W44009  12.341   8.581   5.873 -0.2367  0.0485 -0.3607
28201W        W44010  13.215   0.421   5.589 -0.3614 -0.0595 -0.1551
28202W        W44011   4.761  12.743  11.598  0.0000  0.2685  0.2440
28203W        W44012  16.587  15.893   4.421 -0.0709 -0.0913  0.1243
28204W        W44013  14.734   4.250   1.025  0.1277 -0.3052  0.2407
28205W        W44014  17.235  15.786   2.087  0.0262 -0.0210  0.0133
28206W        W44015   7.668   8.719  11.430  0.2337  0.1641 -0.1206
28207W        W44016  12.050  10.233   0.610  0.0313 -0.0896  0.2288
28208W        W44017   0.978   9.612  12.145  0.2201  0.0039  0.0580
28209W        W44018   4.514   9.702  12.968 -0.1667  0.1939 -0.1100
28210W        W44019   2.448  16.537  15.884  0.0530 -0.0421  0.3089
28211W        W44020   3.366  10.500  13.562  0.3084 -0.2383  0.1117
28212W        W44021   4.986   1.231   5.300 -0.0093 -0.0665  0.0656
28213W        W44022  15.257   5.464  12.271  0.3367 -0.0974 -0.0660
28214W        W44023   1.806   9.081  13.182  0.0331 -0.2088 -0.0915
28215W        W44024   0.356   9.116   1.432 -0.0959 -0.0580 -0.0451
28216W        W44025   3.530  12.041  13.723  0.1325 -0.0382 -0.1329
28217W        W44026   0.528   7.018  14.311 -0.1317  0.1659 -0.1014
28218W        W44027  16.647  16.256   3.926 -0.0146 -0.1629  0.0079
28219W        W44028   4.622   3.353  11.341  0.3613  0.3016  0.1525
28220W        W44029   8.028   6.827  16.339 -0.0675  0.0482  0.0541
28221W        W44030  13.447  11.302  13.859  0.0851  0.1326  0.2299
28222W        W44031   0.912   9.219  12.826  0.0808  0.4979 -0.0727
28223W        W44032   8.183   0.267  15.219  0.3323  0.0523  0.2120
28224W        W44033   7.369  12.151   1.762  0.0351 -0.1451 -0.1380
28225W        W44034   1.527   8.487   5.422  0.0914  0.0442  0.1103
28226W        W44035  15.332  10.436  13.459  0.1966 -0.0758 -0.2392
28227W        W44036   4.882   8.921  14.395 -0.1079  0.2610  0.3601
28228W        W44037   6.785  16.850  12.412 -0.0775 -0.1176  0.0301
28229W        W44038   2.722   4.104   5.280  0.0328  0.0988 -0.2915
28230W        W44039   8.607  11.529  15.050 -0.0680 -0.2620  0.0436
28231W        W44040  13.787  16.215   5.874 -0.0011 -0.0235 -0.4971
28232W        W44041   1.903  16.437  14.016  0.0215  0.0210  0.0102
28233W        W44042  15.651   2.274   2.349  0.0449 -0.0210  0.0178
28234W        W44043   8.152   7.022   0.578  0.1812  0.2782  0.1698
28235W        W44044   6.840  11.313   1.377  0.1139 -0.2796  0.3326
28236W        W44045   3.230   5.305  10.768 -0.1386 -0.0891 -0.2632
28237W        W44046  14.776   2.744   1.852  0.2006  0.1443 -0.1385
28238W        W44047   4.066   1.289   0.307  0.0366  0.0974 -0.2234
28239W        W44048   2.416   7.130   2.305 -0.1369 -0.2697  0.3696
28240W        W44049   2.878  10.668   2.858 -0.1837 -0.0019 -0.0602
28241W        W44050  12.192   1.266  16.137  0.2796  0.0005 -0.2412
28242W        W44051   3.636  11.638   2.328  0.1339 -0.2778 -0.0687
28243W        W44052  13.126  11.512  16.515  0.0133 -0.1142 -0.4181
28244W        W44053   4.694  15.186  14.932 -0.3952  0.0231 -0.1690
28245W        W44054  16.110  17.908  14.472  0.0425  0.2425 -0.0771
28246W        W44055   1.831  14.991  13.385 -0.0078 -0.2890  0.2071
28247W        W44056   2.946   5.327   3.982  0.1181 -0.2618  0.1690
28248W        W44057  11.007  16.275   4.838  0.1581  0.0373  0.0624
28249W        W44058   3.570   3.221  12.666 -0.2754 -0.0024 -0.0905
28250W        W44059   8.469   7.792   3.930  0.3653 -0.0564  0.2306
28251W        W44060  15.418  13.580   3.524 -0.1876 -0.0336 -0.1400
28252W        W44061   2.267  13.661  16.650  0.0270 -0.0481  0.0343
28253W        W44062   6.484   1.124   3.061  0.1581  0.0175  0.1162
28254W        W44063   4.872  14.482  13.536 -0.1472 -0.3523  0.0207
28255W        W44064   6.350  16.927   4.157 -0.0505 -0.0693 -0.0286
28256W        W44065  15.178   3.979  12.454 -0.1210 -0.0704 -0.0676
28257W        W44066  17.278   6.144   0.203 -0.0029  0.1251 -0.3770
28258W        W44067   8.931  14.574  11.714  0.1836 -0.0508 -0.0199
28259W        W44068   6.132   8.317   4.439 -0.1573  0.2266  0.2431
28260W        W44069  12.991  13.851   3.152 -0.0588 -0.1031  0.0605
28261W        W44070   0.906   0.904   5.221 -0.1242 -0.0255  0.1009
28262W        W44071  10.365  14.484  11.588 -0.1633 -0.1055 -0.1886
28263W        W44072   0.934   5.034   3.659 -0.1046 -0.0752  0.0194
28264W        W44073   0.915  10.669  15.551  0.3696 -0.0322 -0.1719
28265W        W44074  12.816   3.855   0.426 -0.0337  0.1936 -0.1110
28266W        W44075   8.457   6.414  11.457 -0.1636  0.1085  0.0669
28267W        W44076   9.384  15.196  13.950 -0.1405  0.1288 -0.1184
28268W        W44077   2.612  10.617  15.460  0.1224 -0.1276 -0.2408
28269W        W44078  13.028   7.633   1.316  0.1705 -0.3264 -0.0912
28270W        W44079   1.539   1.230  14.934 -0.1823 -0.1807  0.2116
28271W        W44080  14.787  11.016   1.240 -0.2907 -0.0753  0.1381
28272W        W44081   8.495   6.715   2.555 -0.1360  0.1063  0.4004
28273W        W44082   8.726   9.975   0.918  0.2717 -0.1077 -0.1168
28274W        W44083  15.698   9.435   3.022  0.1457 -0.2337 -0.2713
28275W        W44084  16.725  17.348  12.152  0.3616 -0.1882  0.0285
28276W        W44085   3.174  10.643   1.450  0.2455  0.0505  0.0272
28277W        W44086  10.640  12.464   4.112 -0.0908  0.4365  0.0116
28278W        W44087   1.320  17.861  13.115 -0.1999 -0.2023 -0.0298
28279W        W44088  13.641   8.211   3.886  0.1429 -0.1944 -0.1278
28280W        W44089  14.255   1.266  12.460 -0.0426  0.0434 -0.0714
28281W        W44090   5.681  14.962   0.296 -0.0092 -0.3233 -0.1057
28282W        W44091   9.797  15.140   4.384  0.2769 -0.1651  0.0073
28283W        W44092   6.078  13.431   3.639  0.1479 -0.2758  0.0441
28284W        W44093   4.627  11.954  16.514  0.1684 -0.0614 -0.2476
28285W        W44094  12.820  12.879   4.955  0.0528  0.1198 -0.0888
28286W        W44095   5.350  10.653   0.847  0.1819  0.1211 -0.0723
28287W        W44096   9.509   4.023   0.016  0.1050  0.2075  0.0003
28288W        W44097  16.992  12.216   3.104 -0.0888 -0.1317  0.1343
28289W        W44098   3.666   1.019   0.014  0.2554 -0.4339  0.0840
28290W        W44099  16.526   3.005  12.944  0.3550  0.0535 -0.2805
28291W        W44100  14.622  11.456  12.282 -0.2860  0.0410 -0.0640
28292W        W44101  15.754  12.645  12.659  0.1908  0.2491  0.2110
28293W        W44102  13.168   4.944  12.061 -0.1384 -0.0503 -0.2558
28294W        W44103   9.594   7.060  13.950  0.3053  0.2321 -0.0031
28295W        W44104   1.445   4.596   2.660  0.1238 -0.0021 -0.1738
28296W        W44105  14.533  12.589  14.444  0.1925 -0.0368  0.0900
28297W        W44106   5.173   9.210  13.049 -0.2409  0.0933 -0.0994
28298W        W44107  15.440  15.697  13.478 -0.4552  0.1489  0.0302
28299W        W44108   9.341  10.705  13.471 -0.2116  0.0083 -0.1294
28300W        W44109   5.280  14.552   3.045  0.1303  0.0024 -0.2619
28301W        W44110   1.940   3.713   4.660 -0.0112  0.1929  0.0344
28302W        W44111   2.072   4.492  16.100  0.3015  0.0394 -0.1795
28303W        W44112   5.214   2.234  13.963 -0.0105  0.0229 -0.0745
28304W        W44113   9.293   7.381  12.801  0.1170 -0.1343  0.0622
28305W        W44114  15.077   7.169  14.563  0.2700  0.1633  0.0536
28306W        W44115  11.006   5.514   0.623 -0.0266 -0.0561 -0.0119
28307W        W44116  14.871   3.701   6.373 -0.0009 -0.3967  0.0255
28308W        W44117  12.523   8.144  14.910  0.0202  0.1954 -0.0843
28309W        W44118  17.151   9.623  14.999  0.0085  0.3386 -0.1967
28310W        W44119  11.674  10.930   3.806  0.3734  0.2562 -0.3291
28311W        W44120  14.538   7.622   2.949  0.1261  0.3493 -0.0180
28312W        W44121  14.542  11.967  12.443  0.0395 -0.1507  0.0858
28313W        W44122   2.097  16.909   2.581 -0.2201 -0.0362  0.0800
28314W        W44123  15.511   2.100  14.779 -0.1816 -0.0062 -0.0711
28315W        W44124  15.941  10.425  16.114 -0.0482  0.1170 -0.0166
28316W        W44125   7.735   6.614   2.601 -0.0009  0.2111 -0.1712
28317W        W44126   7.638   2.028   2.970  0.2473 -0.2319 -0.2125
28318W        W44127  12.899   4.286  15.326  0.0907  0.3028 -0.1784
28319W        W44128   0.017   7.296   4.776  0.0214  0.1284  0.2742
28320W        W44129  10.674  16.159  14.472  0.0293 -0.3642  0.0755
28321W        W44130   4.186   2.687   4.391  0.0066  0.4641 -0.1587
28322W        W44131  15.498   2.011   3.323  0.1696 -0.1840  0.4380
28323W        W44132   9.849  17.284  10.880 -0.0496  0.1348  0.4469
28324W        W44133   6.342  15.264   3.405 -0.0640  0.0430 -0.0253
28325W        W44134  15.241   9.889  16.281 -0.0338  0.0650  0.1769
28326W        W44135  15.759   7.961  13.750 -0.1782  0.1000  0.0100
28327W        W44136  14.548   0.774   3.225  0.5399  0.1517 -0.1879
28328W        W44137  16.830  10.832   1.399  0.0719 -0.1412  0.2020
28329W        W44138   7.271   6.084   0.869  0.0657  0.1996  0.0066
28330W        W44139   0.342   3.243  12.737 -0.0348  0.1179 -0.0736
28331W        W44140  12.310   6.791   5.823  0.2839 -0.1047 -0.1960
28332W        W44141   0.277   2.660  12.853  0.3048 -0.2473  0.1629
28333W        W44142   5.561  13.647   5.514  0.1192 -0.1335  0.0872
28334W        W44143  12.773   9.816   0.272 -0.0292  0.2662 -0.0338
28335W        W44144  16.342   2.996   3.789  0.0480  0.0062 -0.2292
28336W        W44145  10.425  13.250  12.469 -0.1629 -0.1436  0.3910
28337W        W44146  10.190  12.068  11.155 -0.0167  0.3999  0.1939
28338W        W44147   7.773  12.261  16.156  0.0688  0.0372 -0.1471
28339W        W44148  17.947   8.813  14.518  0.0513 -0.1955 -0.2385
28340W        W44149  15.621   3.622   2.953  0.4891 -0.0040 -0.0359
28341W        W44150   4.105  16.397  15.027 -0.1502  0.3358 -0.0964
28342W        W44151   3.735   4.307  12.694 -0.1431 -0.2443  0.0470
28343W        W44152  15.184  16.186   5.341  0.2235  0.0647 -0.1907
28344W        W44153   8.214  13.933  13.297 -0.0880 -0.1789  0.1304
28345W        W44154  13.818   2.315  10.562 -0.1667  0.3015  0.1540
28346W        W44155   3.805  14.553   2.231  0.0280  0.1307 -0.0954
28347W        W44156  15.544   1.546  14.480  0.1048  0.0751  0.1517
28348W        W44157   0.322   4.030   2.939  0.1320  0.0185 -0.2083
28349W        W44158   1.936   7.723   0.668 -0.0669 -0.0306 -0.1531
28350W        W44159  15.979  16.778   2.338  0.0037 -0.1823 -0.1099
28351W        W44160   6.263  16.307  10.805  0.0947 -0.0952  0.0301
28352W        W44161   8.677   3.640   4.405  0.1439 -0.2150 -0.0376
28353W        W44162  17.584  16.342  15.576 -0.0567 -0.0544  0.0753
28354W        W44163  16.141  11.115  15.087  0.1681 -0.0629  0.2805
28355W        W44164   2.615   3.230   1.777  0.3268  0.0478 -0.3426
28356W        W44165   3.907   8.494  15.745  0.3016 -0.2886  0.1128
28357W        W44166  17.084  12.404  13.941 -0.2060  0.3142  0.1149
28358W        W44167   6.518   7.003   5.273 -0.1959 -0.0411  0.1222
28359W        W44168  14.391   4.909   5.662  0.2692 -0.0897 -0.1181
28360W        W44169   3.344  14.297   3.839 -0.1573  0.0863  0.3882
28361W        W44170  16.473   9.813   2.814  0.0994  0.1901 -0.0450
28362W        W44171  15.083   5.062   1.177 -0.0406  0.1052  0.0948
28363W        W44172  15.838  16.154  13.374  0.0429  0.0713 -0.0046
28364W        W44173  12.134   3.659   4.078  0.1434 -0.1519 -0.1564
28365W        W44174   1.334  11.717   3.327  0.0406  0.2310  0.0823
28366W        W44175  12.932   6.012   5.659 -0.1593 -0.1057  0.2265
28367W        W44176   0.312  15.038   2.686  0.1591 -0.0600 -0.2270
28368W        W44177   2.281  11.243  14.094 -0.0240 -0.2716  0.3171
28369W        W44178  16.547   1.968  10.750 -0.2006  0.0314  0.1265
28370W        W44179   8.719   7.672  12.691  0.1218  0.1319  0.0281
28371W        W44180  16.770   6.895   3.708 -0.0424 -0.0792  0.0887
28372W        W44181  16.887  12.843  14.390 -0.0156  0.1353 -0.2011
28373W        W44182  12.234  13.619   4.108 -0.3574  0.1372  0.3137
28374W        W44183  17.345  12.179  15.223  0.1517  0.0989  0.0888
28375W        W44184   0.495   6.370   3.506  0.3818  0.1221 -0.1630
28376W        W44185   8.705   9.216   0.294 -0.1154 -0.2697 -0.1072
28377W        W44186  15.723   7.875  15.262  0.1543 -0.1471  0.0409
28378W        W44187  15.765   2.769   5.149  0.1563 -0.4034 -0.3107
28379W        W44188   0.975   2.057  16.150  0.0162  0.3459 -0.4393
28380W        W44189   1.521  12.199  14.913 -0.0200  0.1650  0.0200
28381W        W44190  11.239  15.234   1.617  0.2786 -0.1010  0.0443
28382W        W44191   7.910  10.507  15.217  0.0593 -0.2201  0.1541
28383W        W44192   5.618   8.402  12.620  0.2229 -0.1576  0.0205
28384W        W44193   5.789   7.979  14.019 -0.1185 -0.1340 -0.2767
28385W        W44194  17.811  17.581  15.407 -0.4312  0.0842 -0.0956
28386W        W44195  10.125   3.691  13.288  0.0384 -0.0915 -0.3546
28387W        W44196  11.413   9.775   2.959 -0.1274  0.0949 -0.2835
28388W        W44197   8.111   1.014  11.793  0.1206  0.1258  0.1193
28389W        W44198  10.977  13.751   2.957 -0.0075 -0.1014 -0.1578
28390W        W44199   5.749  13.252   2.207 -0.0591  0.3093 -0.0052
28391W        W44200   2.046   7.985  12.307  0.2228 -0.1436  0.4213
28392W        W44201   6.871  10.621  16.115  0.1737 -0.0011 -0.0172
28393W        W44202   1.995   7.765   5.050 -0.3230  0.1253 -0.0321
28394W        W44203   1.512  11.863  15.306  0.3048  0.2635  0.1529
28395W        W44204  13.846  10.368   4.894 -0.3273  0.0399 -0.1730
28396W        W44205  15.329  13.528   0.188 -0.2933 -0.0559  0.1101
28397W        W44206   1.538   8.380   2.133  0.0734  0.0091  0.2868
28398W        W44207   1.589   4.390  14.124  0.0095 -0.1672 -0.2724
28399W        W44208  17.375   5.453  15.366  0.3110  0.2004 -0.0850
28400W        W44209  12.464   7.210   2.040  0.0816 -0.2769  0.1384
28401W        W44210   8.331  13.702  16.266 -0.2579 -0.2944 -0.0732
28402W        W44211   5.822   3.857   3.110 -0.2243  0.2779  0.0027
28403W        W44212   9.382   6.918  12.563  0.1040 -0.3917  0.2644
28404W        W44213  11.713   2.344   3.177 -0.4872 -0.1037  0.0372
28405W        W44214   2.052  15.677  14.576  0.0214 -0.0724  0.0636
28406W        W44215   5.160  16.882  11.748 -0.2071 -0.0549 -0.5625
28407W        W44216   7.008  11.510  11.161  0.2646  0.3681 -0.0865
28408W        W44217  16.515  13.910  15.330  0.1339  0.1689  0.0600
28409W        W44218   1.278  13.216  15.708  0.0749  0.1162 -0.0100
28410W        W44219  12.991   1.055  15.612 -0.0416  0.0696 -0.3922
28411W        W44220   7.515   9.754  11.897 -0.1317  0.0709  0.1776
28412W        W44221   9.825  14.587   5.958  0.0816  0.0470 -0.0760
28413W        W44222  14.594  17.381  15.648 -0.1434  0.2706 -0.2998
28414W        W44223  11.711   4.487   0.214  0.1878 -0.2831 -0.0366
28415W        W44224   6.435   1.523   2.041  0.1894  0.3231  0.1544
28416W        W44225   1.417  13.143   2.872 -0.0652 -0.1135  0.0985
28417W        W44226   3.114  13.523  12.553  0.1811 -0.2722 -0.0291
28418W        W44227  16.175   0.324   5.604 -0.3250  0.0067  0.4706
28419W        W44228   3.211  16.668  11.673  0.0411 -0.1060 -0.1886
28420W        W44229   0.968  16.865  13.986  0.0337 -0.2589  0.2548
28421W        W44230  10.628  10.977  15.771  0.0214 -0.0338  0.1612
28422W        W44231   4.547   3.816   0.749 -0.1756  0.2838  0.4124
28423W        W44232   0.445  17.765   5.583  0.1669  0.1268 -0.1881
28424W        W44233   0.459  17.035   5.125 -0.1471 -0.0810 -0.1568
28425W        W44234  16.291   8.988   2.298  0.1254 -0.0559 -0.0582
28426W        W44235   4.613   8.548  14.184 -0.2358  0.1311  0.1808
28427W        W44236  10.587   5.033   3.890 -0.5821 -0.0505 -0.2128
28428W        W44237  17.952   9.843   5.415 -0.1310  0.0464  0.1085
28429W        W44238   7.932  17.915  14.447 -0.2991  0.0154 -0.1438
28430W        W44239  16.277  11.921   0.613 -0.1092  0.2607  0.1706
28431W        W44240   8.183  10.528   2.866 -0.3262 -0.2148  0.0764
28432W        W44241  11.100   9.464   5.556  0.2427  0.0931 -0.1286
28433W        W44242  16.296   9.072  15.404  0.0525 -0.0768  0.3251
28434W        W44243   8.379  13.659   1.330 -0.0063 -0.0471 -0.0252
28435W        W44244   9.837   1.297  15.648 -0.1747 -0.3334 -0.1717
28436W        W44245  14.685  15.840  15.811  0.1983  0.2234 -0.1218
28437W        W44246   8.078   6.685   6.105  0.1669 -0.0822 -0.2807
28438W        W44247   1.538   9.456   0.055 -0.1779  0.1352 -0.0664
28439W        W44248  15.750   4.467   4.325 -0.1659  0.2182  0.3126
28440W        W44249   0.054   4.782   2.092  0.1993  0.1352  0.0300
28441W        W44250  17.328  14.539   0.948 -0.0482 -0.0778  0.0823
28442W        W44251   5.030   9.669   9.983  0.0888 -0.1010  0.0546
28443W        W44252  12.828   5.582  15.887 -0.1100  0.2013 -0.0043
28444W        W44253  17.388   7.630  15.155 -0.2966  0.1288  0.2338
28445W        W44254  10.538  10.123   0.387 -0.0661  0.0671  0.1814
28446W        W44255  12.671   0.342   5.301  0.4532  0.0916 -0.2189
28447W        W44256  13.795  10.174   1.563  0.2977  0.3120 -0.2020
28448W        W44257   6.629  17.743   2.191  0.1056 -0.2627  0.0022
28449W        W44258   1.573   4.849  16.094  0.0470 -0.0517 -0.0347
28450W        W44259   9.696   0.457   3.355  0.0475 -0.0281 -0.1342
28451W        W44260  17.816   3.577  11.844  0.0434  0.1835 -0.0416
28452W        W44261   6.398  10.064  16.112  0.0455 -0.2919 -0.1753
28453W        W44262   8.164   5.864  13.729 -0.1211  0.1693 -0.1876
28454W        W44263  11.941   5.373   5.673 -0.0935  0.1101  0.0165
28455W        W44264   4.399  13.518   2.969 -0.2917  0.1014  0.1491
28456W        W44265   1.467  14.133   1.098  0.3700 -0.0104  0.2018
28457W        W44266  14.348  14.326   5.492 -0.1755  0.0339  0.0775
28458W        W44267   0.864   8.499  16.414  0.2218 -0.0366 -0.0389
28459W        W44268   6.347  14.701  16.578 -0.1129 -0.3353 -0.0184
28460W        W44269   5.803   0.347  13.910 -0.2337 -0.0765  0.0904
28461W        W44270   5.187   1.590   2.630 -0.2583 -0.0297 -0.2777
28462W        W44271   7.908  11.578  11.380  0.0271  0.3904  0.2248
28463W        W44272  11.461  17.111  16.493  0.0271 -0.1552 -0.0312
28464W        W44273   3.650  11.619  14.014  0.0881 -0.2190  0.2206
28465W        W44274  17.478   5.984   2.231  0.1385  0.2403  0.0580
28466W        W44275  15.071   3.913  15.120  0.0045 -0.1509  0.3558
28467W        W44276  15.191  15.730   2.538  0.0865  0.1861  0.0751
28468W        W44277   2.669  12.112  14.374  0.0492  0.1331  0.0751
28469W        W44278   3.169  13.342   3.696 -0.3829 -0.2481 -0.1882
28470W        W44279   2.457  12.361   2.284 -0.0422  0.1460  0.0960
28471W        W44280   3.040   1.765  11.970  0.2569  0.0951 -0.2524
28472W        W44281  10.219  10.415   2.430 -0.0800  0.3050  0.1033
28473W        W44282  12.609  13.606   4.428  0.1035  0.4182 -0.1302
28474W        W44283   1.704  13.754  15.541 -0.0180  0.0337  0.2550
28475W        W44284   6.575  15.018  15.720  0.2050 -0.2645 -0.0124
28476W        W44285  10.691  11.208   2.730 -0.1010  0.1007  0.2521
28477W        W44286   5.019   3.455   5.002 -0.2147  0.0700 -0.2575
28478W        W44287  15.627   2.496  12.309  0.2847  0.0045  0.1824
28479W        W44288  11.255  11.835   3.381 -0.0158  0.0107  0.0192
28480W        W44289   2.513   1.180   3.246 -0.1329  0.1246  0.1042
28481W        W44290  15.134  12.444   1.333 -0.4235 -0.1462 -0.1670
28482W        W44291   4.012  13.600  12.225 -0.0471 -0.2462  0.1355
28483W        W44292  17.801  11.726   2.258 -0.0199  0.1436 -0.1226
28484W        W44293   9.724   8.261   3.650  0.1841 -0.3884 -0.0565
28485W        W44294  15.814  14.536  16.170 -0.0939  0.0384 -0.2708
28486W        W44295   8.083   4.540  16.373 -0.0377 -0.1904  0.0605
28487W        W44296  10.474   7.563   1.129 -0.1263  0.1073  0.0087
28488W        W44297   9.455  12.467  13.770  0.2035  0.0446  0.0096
28489W        W44298   7.308  17.766   3.799 -0.0464 -0.0000  0.0680
28490W        W44299   4.346   7.410   1.710  0.2283  0.0454 -0.1359
28491W        W44300   5.672   8.496  13.265 -0.0056 -0.0799  0.0150
28492W        W44301   3.093  12.362  14.283  0.3253  0.0159  0.0163
28493W        W44302   0.958   4.626  13.403  0.0464  0.0920  0.2124
28494W        W44303  11.056   4.334   3.515 -0.0173  0.0228  0.0124
28495W        W44304   0.726   6.693   1.148  0.0854 -0.3995  0.1230
28496W        W44305   3.977   5.754   0.172  0.0202  0.1348 -0.3269
28497W        W44306   0.016  13.692  11.803  0.0606 -0.0489 -0.0261
28498W        W44307  12.054   7.715  11.383 -0.1043 -0.0623 -0.1086
28499W        W44308   5.509  16.952  12.838  0.0704 -0.2622 -0.2264
28500W        W44309   3.711  12.828   4.504  0.0895 -0.3725 -0.1320
28501W        W44310   5.887   6.217   2.201  0.3331  0.0317 -0.1674
28502W        W44311  15.736  13.025   4.550  0.1104 -0.2273  0.2059
28503W        W44312   4.293  12.016   0.230 -0.0503  0.2498  0.1970
28504W        W44313  12.820  12.900   0.102  0.2767 -0.0960  0.0334
28505W        W44314  11.576   0.054  16.254 -0.0599  0.1098 -0.0174
28506W        W44315   1.872   5.765  16.452 -0.3658  0.1025 -0.0644
28507W        W44316   5.483   7.166  15.825 -0.0603  0.3382  0.3139
28508W        W44317   5.401   2.140  13.507 -0.0638  0.2581  0.1992
28509W        W44318   9.387  12.783  11.782 -0.0256  0.2061 -0.2022
28510W        W44319  14.819   7.643   1.793  0.2162  0.1767 -0.2998
28511W        W44320  11.686  14.914  14.175 -0.0377 -0.0390  0.2500
28512W        W44321   7.434   0.158  15.256 -0.0394 -0.0649 -0.1711
28513W        W44322  14.638   8.351  16.310  0.0320 -0.4822  0.2712
28514W        W44323  14.034   3.659   4.944  0.0647 -0.1219 -0.0545
28515W        W44324  15.119   7.008   5.990  0.0017 -0.2931  0.0958
28516W        W44325   7.616  13.015   3.867 -0.0508  0.0073  0.0666
28517W        W44326  17.746   0.153  15.249  0.3040  0.1755  0.1485
28518W        W44327   3.306   5.462  16.085 -0.0975  0.1064  0.0695
28519W        W44328   2.847  12.669   2.414 -0.1018  0.1901  0.1029
28520W        W44329   0.119   4.616   5.082  0.0773 -0.2104 -0.1339
28521W        W44330   4.748   7.407  11.217 -0.3638 -0.0303  0.1862
28522W        W44331   5.515  17.870   3.456  0.2192 -0.2671 -0.0377
28523W        W44332   2.980   3.539   5.515 -0.0812 -0.0285  0.1211
28524W        W44333   2.694   7.357  12.046  0.0456  0.1770  0.1395
28525W        W44334   0.234   6.614  14.433 -0.1943  0.1073 -0.0671
28526W        W44335  15.525   2.839   0.725 -0.0271  0.2275  0.0746
28527W        W44336   4.258  11.310  15.243  0.0553 -0.0654 -0.1937
28528W        W44337  14.137   6.314  13.221 -0.1298  0.0837  0.0536
28529W        W44338   7.790  17.432   3.537  0.3796 -0.5032  0.1450
28530W        W44339   6.521  15.069   4.778 -0.0015  0.2722  0.1882
28531W        W44340  15.426  12.314   4.989 -0.2308 -0.0205 -0.2578
28532W        W44341   6.838  16.602  14.600 -0.1500  0.2109  0.0051
28533W        W44342  12.636   7.184  12.046 -0.2867  0.1892  0.0126
28534W        W44343   8.254   7.248   0.082 -0.0159 -0.1235  0.1311
28535W        W44344   6.150  14.728  12.939  0.2858 -0.0410  0.1396
28536W        W44345   8.995  10.456   2.214 -0.4488  0.0395 -0.1381
28537W        W44346  11.860   4.516  16.439 -0.0688  0.1306  0.0774
28538W        W44347  13.894   0.846   3.560  0.0748 -0.0741  0.1481
28539W        W44348  16.462   3.389   2.481  0.1362 -0.3519 -0.0196
28540W        W44349   5.549   3.389   3.166 -0.0712 -0.1681  0.0152
28541W        W44350  11.233   5.746  11.839 -0.1879 -0.0501  0.2162
28542W        W44351   2.564   0.032   0.128 -0.1400  0.0170  0.0390
28543W        W44352  11.992  14.204   1.913 -0.2163  0.0777 -0.3163
28544W        W44353  10.070   9.471   3.665  0.0838  0.0255 -0.1049
28545W        W44354  15.449  15.331   5.176  0.0108 -0.0467 -0.1093
28546W        W44355  15.818   5.799   3.946 -0.0674  0.1520 -0.1098
28547W        W44356   0.423  13.623  12.551  0.2692  0.2244  0.3994
28548W        W44357  15.070   0.368  15.171  0.0989 -0.1350  0.0664
28549W        W44358  12.921   1.451  14.107  0.1817  0.0562 -0.0737
28550W        W44359   1.496  10.567  15.732 -0.1383 -0.0692  0.0494
28551W        W44360   4.715  11.360   4.387 -0.0719 -0.2993  0.3818
28552W        W44361  14.752   0.390  15.583 -0.1027  0.2565  0.3555
28553W        W44362  16.593   0.641   5.338 -0.0714  0.3316 -0.0173
28554W        W44363  14.233   5.956  12.585  0.0384 -0.1734  0.2665
28555W        W44364  15.774   6.575   1.611  0.3647 -0.2104 -0.2257
28556W        W44365   9.813   2.218   1.263 -0.1407 -0.1539 -0.0487
28557W        W44366  13.568   8.489  16.287 -0.3938 -0.1599 -0.0326
28558W        W44367   2.971   6.389   1.349  0.0432 -0.0440 -0.1257
28559W        W44368  12.896   0.985  13.823 -0.2877  0.0719 -0.1877
28560W        W44369   8.493   5.026   3.030 -0.1504 -0.1837  0.0450
28561W        W44370  15.570  15.290   1.166 -0.0749 -0.0829 -0.0452
28562W        W44371  13.978  13.858   0.747 -0.0794 -0.2040  0.2309
28563W        W44372  15.011   0.421   4.077 -0.2860 -0.1294  0.2792
28564W        W44373   6.234  12.019  13.556  0.0393  0.2190 -0.0481
28565W        W44374   8.328  11.301  11.337 -0.1364 -0.2513 -0.0261
28566W        W44375   7.241  12.250  16.049 -0.1894  0.1802  0.1832
28567W        W44376   6.293   8.101   3.417 -0.2762  0.0640 -0.3682
28568W        W44377   5.334   9.701   5.304  0.0416  0.0239 -0.2442
28569W        W44378  10.421  17.227   0.395 -0.1405  0.2589 -0.0583
28570W        W44379  13.144   2.521  13.921 -0.1590 -0.1355 -0.1437
28571W        W44380  11.388   6.443  12.189 -0.2653  0.1005  0.0478
28572W        W44381   2.597  13.089  14.318 -0.0167 -0.3267  0.1582
28573W        W44382  15.564  17.944  16.415  0.0503 -0.0132  0.3753
28574W        W44383   3.728  17.473   1.474  0.1766 -0.0384 -0.0448
28575W        W44384   7.875  15.481  13.247 -0.2507  0.0880  0.0723
28576W        W44385   9.671  10.010  12.095 -0.2464  0.1819  0.2213
28577W        W44386   9.724  16.727  11.768 -0.0120  0.0242  0.0204
28578W        W44387   1.326  16.167  12.418  0.2062  0.3104  0.1276
28579W        W44388  14.147   2.142  14.365  0.0918  0.1273  0.4815
28580W        W44389  16.050   3.247  13.905 -0.0967  0.1852  0.1364
28581W        W44390  10.285   9.342   4.509 -0.0175 -0.1690  0.0525
28582W        W44391  15.106  12.720   5.350 -0.0348  0.1680 -0.1652
28583W        W44392  16.461   0.345   0.311 -0.0438 -0.2255 -0.1297
28584W        W44393  10.610  15.819   4.621  0.0986 -0.1040 -0.5413
28585W        W44394   1.124   5.039   5.847 -0.0364 -0.1014 -0.2217
28586W        W44395   2.934  11.280   4.678  0.2150 -0.2417  0.1631
28587W        W44396   5.018   3.282   2.998  0.0646 -0.1224  0.2133
28588W        W44397  17.266   4.465   0.827 -0.0624  0.1341  0.3834
28589W        W44398   3.340  12.527   2.354 -0.2096  0.0507  0.1207
28590W        W44399  14.480  11.251  12.784  0.3299 -0.3519  0.0073
28591W        W44400   5.026  17.515   3.783 -0.1305  0.1385 -0.3875
28592W        W44401   7.467   1.748  15.840 -0.0113 -0.1060 -0.3151
28593W        W44402   6.172  14.538   3.025 -0.0370 -0.1323  0.2495
28594W        W44403  15.654  14.337   1.439  0.0215 -0.0007  0.1485
28595W        W44404  17.611   7.428  12.387 -0.0133  0.1652  0.0035
28596W        W44405  14.786   7.885  13.323  0.0354 -0.0736  0.2893
28597W        W44406   2.851  14.613   4.340  0.0366 -0.1750 -0.1179
28598W        W44407   6.252   2.917   3.030  0.2267  0.1221  0.2393
28599W        W44408  14.088   6.617   0.035 -0.0465 -0.0855  0.1896
28600W        W44409   7.407   5.392  14.472 -0.2489  0.0352 -0.3239
28601W        W44410  15.951  17.203  14.171 -0.1256  0.1202  0.2057
28602W        W44411   7.795  17.949   3.653  0.1289  0.0229  0.0455
28603W        W44412   4.751  12.758   0.224 -0.1858 -0.0774  0.2799
28604W        W44413   8.537   6.396  15.796 -0.0838  0.0723  0.2222
28605W        W44414   8.484   8.710  15.160 -0.3284  0.0694  0.0788
28606W        W44415  16.450  14.854   5.726  0.0631  0.2632  0.0773
28607W        W44416   7.027   8.493  13.747 -0.0420 -0.1077  0.0290
28608W        W44417   5.772  11.358  15.188 -0.0472  0.2305  0.0211
28609W        W44418   8.023  11.412   3.450 -0.0300 -0.0096 -0.2360
28610W        W44419   8.152  15.247  14.017 -0.0830 -0.0427  0.3564
28611W        W44420  13.927   2.400   3.063 -0.1717 -0.2594 -0.3216
28612W        W44421  17.044  15.674   1.480 -0.1267  0.0042 -0.0021
28613W        W44422  16.583   6.538  15.838  0.0215 -0.0925  0.1157
28614W        W44423  14.706   9.650   0.430  0.1631 -0.1254  0.2161
28615W        W44424   5.453   3.959  14.157  0.3229 -0.1962  0.0418
28616W        W44425   5.178  11.140   4.192 -0.0028  0.0362  0.2016
28617W        W44426  16.780  16.341   3.319 -0.0373 -0.1908  0.1846
28618W        W44427   9.143  13.236   1.670  0.1272 -0.1555 -0.3704
28619W        W44428   3.570   4.462  14.342  0.0562  0.0260  0.1014
28620W        W44429   2.051   6.036   0.510  0.1929 -0.0881  0.1954
28621W        W44430  17.103  17.138   5.597 -0.3144 -0.2298 -0.0930
28622W        W44431  11.772  14.959   3.580  0.0282  0.1447 -0.0956
28623W        W44432   3.235   7.090  13.337 -0.0705  0.1522  0.1416
28624W        W44433  15.821  10.392  14.066  0.0125 -0.2446 -0.0598
28625W        W44434   3.845   5.452  11.440  0.2339 -0.0765 -0.2844
28626W        W44435   5.583   8.894   5.560  0.1561 -0.0410  0.0286
28627W        W44436  13.712  17.513  16.624 -0.1278 -0.0700  0.0007
28628W        W44437   4.285   8.120   3.073 -0.0578  0.1544 -0.2549
28629W        W44438   5.264   0.758   4.531  0.0458  0.0104 -0.0264
28630W        W44439  11.011  17.802  13.020 -0.0537 -0.2692 -0.0989
28631W        W44440   6.337   6.525  13.013  0.1465 -0.0857 -0.0007
28632W        W44441   1.892   3.596   5.357  0.0613 -0.0981  0.0559
28633W        W44442  13.449   8.113  13.700  0.2592 -0.0364 -0.0926
28634W        W44443  15.172  12.154   2.346 -0.0944 -0.0154 -0.1181
28635W        W44444   3.484   4.491   0.391 -0.1670 -0.1350  0.0083
28636W        W44445   2.288   0.944   0.161 -0.2468 -0.2077 -0.1390
28637W        W44446   7.092  17.025  15.840 -0.2458  0.2133 -0.1599
28638W        W44447   6.500   0.237   2.500 -0.0609  0.2611  0.1298
28639W        W44448  15.360  13.311   0.688 -0.2364  0.2309 -0.0896
28640W        W44449   7.170  15.161  13.886  0.0468  0.1831  0.0656
28641W        W44450   0.137  16.771  14.278 -0.0244 -0.0629  0.2952
28642W        W44451  12.800  14.468   4.979  0.1215  0.1992 -0.1302
28643W        W44452   3.336   3.788   0.601  0.0269  0.4081  0.0909
28644W        W44453  10.996  10.777   1.934  0.2621 -0.0608 -0.0806
28645W        W44454  11.825  16.818  14.161 -0.1222 -0.0681 -0.0078
28646W        W44455  13.915   8.625  11.882  0.2336  0.2614 -0.0455
28647W        W44456   8.114  13.905  15.847  0.2078  0.1067 -0.0027
28648W        W44457   7.267  13.521   0.582  0.0371  0.0557  0.2918
28649W        W44458   4.943   2.291  11.903  0.2208  0.2017  0.0297
28650W        W44459  14.947   1.330   4.067  0.2961  0.2557  0.1882
28651W        W44460   5.972  17.172   0.887  0.0784 -0.0554 -0.3467
28652W        W44461  13.134  15.855  13.161 -0.1052 -0.1505 -0.1571
28653W        W44462  17.338  15.917  15.525  0.2891  0.2365 -0.0438
28654W        W44463   0.620   2.551  11.068  0.5071 -0.0841  0.3711
28655W        W44464   4.772   4.378   0.170  0.0712  0.0278 -0.0668
28656W        W44465  10.310  11.880   1.644  0.0296  0.1436 -0.2736
28657W        W44466   9.501   1.831  14.632  0.0494  0.2445 -0.1660
28658W        W44467   9.139  13.652  11.786 -0.1837  0.2055 -0.0199
28659W        W44468  17.773   8.570  14.934 -0.0471  0.0859  0.1193
28660W        W44469   3.905  12.798  12.810  0.2279 -0.0129  0.1339
28661W        W44470  12.331  13.958  12.963  0.0088 -0.2837 -0.0575
28662W        W44471  15.159  12.266  12.258  0.0530 -0.1359 -0.0281
28663W        W44472  11.124  13.002   5.402  0.0774 -0.0664 -0.1615
28664W        W44473  14.944  13.722  12.894 -0.1007  0.0891 -0.2565
28665W        W44474   4.643   1.775  15.698 -0.1356  0.0628  0.2857
28666W        W44475   7.354  16.988  14.984  0.2501  0.0928 -0.0554
28667W        W44476   7.018  11.285   1.964  0.2140  0.3111 -0.0827
28668W        W44477  13.876  11.178   3.186  0.0205  0.2097 -0.0086
28669W        W44478  11.236   3.790   3.753 -0.1279  0.0507  0.2039
28670W        W44479   3.132  13.622   2.726  0.0550 -0.0023 -0.1850
28671W        W44480   1.301   3.188  11.286  0.3546  0.2106  0.1948
28672W        W44481   1.843  15.561  12.084 -0.0130  0.0604 -0.0190
28673W        W44482   0.817  11.337  11.209  0.1755 -0.1775 -0.1661
28674W        W44483  14.047  15.200   0.259  0.1115 -0.0304  0.0731
28675W        W44484   9.995  13.099   3.572  0.0910 -0.1031 -0.1997
28676W        W44485  11.565  16.998  13.332 -0.1500 -0.1341  0.2166
28677W        W44486  10.865  14.672  12.979 -0.1399 -0.2732 -0.3068
28678W        W44487  10.202  13.204   2.535  0.1192  0.1588 -0.0735
28679W        W44488  17.944   1.325  16.463 -0.2428  0.2043 -0.0827
28680W        W44489   1.458   8.238  10.954  0.0072  0.1115 -0.1044
28681W        W44490   6.207  15.730   4.133 -0.0933 -0.1320  0.1550
28682W        W44491  13.947   6.484  16.294  0.3136 -0.4119  0.1214
28683W        W44492  13.952   3.608   4.205 -0.1518  0.1837 -0.0586
28684W        W44493   5.730   2.176   2.561 -0.1249  0.0664 -0.1420
28685W        W44494   8.072  12.538   2.191  0.2536  0.1919 -0.0164
28686W        W44495  15.576  17.857   2.395  0.0652  0.1955 -0.1049
28687W        W44496   8.028  12.467  13.137 -0.2079 -0.2137  0.1315
28688W        W44497  13.271   4.618   3.827  0.0356  0.1900 -0.0663
28689W        W44498  16.365   7.607   1.674  0.1911 -0.0627  0.1507
28690W        W44499   4.798   5.825   2.388 -0.1389 -0.0979  0.2117
28691W        W44500  11.207   5.725   3.395 -0.0574  0.1549 -0.2617
28692W        W44501  15.273   0.715   3.229  0.1312  0.1405 -0.2039
28693W        W44502  17.017   0.257   2.929  0.0032  0.0924 -0.1037
28694W        W44503  16.930  15.804   5.389 -0.1407  0.0465  0.1373
28695W        W44504   4.998  16.350  15.249 -0.0110  0.2004 -0.2001
28696W        W44505  10.503  12.562  14.367  0.0024 -0.1359  0.1427
28697W        W44506  11.255   0.218  15.430  0.3549  0.1114  0.2911
28698W        W44507  13.851  17.724  15.276  0.1637 -0.0187 -0.1133
28699W        W44508   3.565   1.858   0.684 -0.1186 -0.0018 -0.2263
28700W        W44509   2.944   0.131   1.348 -0.3820 -0.0129 -0.1078
28701W        W44510   9.451   6.447   3.593  0.0700 -0.2045  0.1388
28702W        W44511   2.985   1.962  15.784 -0.2569  0.2312 -0.1157
28703W        W44512  10.433   8.237  13.598 -0.0301 -0.0561  0.1598
28704W        W44513   9.579   9.935  12.697  0.2245 -0.1349 -0.1951
28705W        W44514  11.779  13.082  14.283 -0.3425  0.1559  0.1434
28706W        W44515  13.814  11.588   4.528  0.1144 -0.0267  0.0083
28707W        W44516  16.038   2.913   0.542 -0.0948 -0.0322 -0.0347
28708W        W44517  14.907  12.433   6.139 -0.3515 -0.2285 -0.0295
28709W        W44518   5.386   9.388  15.130 -0.2980 -0.2924 -0.0866
28710W        W44519   2.601  13.045  14.820 -0.1903 -0.1215 -0.2106
28711W        W44520  13.740  16.919  16.638 -0.1549 -0.2415 -0.3517
28712W        W44521   2.506   2.425   4.549  0.0449 -0.0005  0.0497
28713W        W44522  14.995   4.082  11.311  0.0326 -0.4225 -0.2255
28714W        W44523   5.509  15.625   6.169  0.0022 -0.2423  0.0511
28715W        W44524  12.035   4.696   4.720  0.1113  0.0003  0.2287
28716W        W44525   4.864   0.271   4.317 -0.1330 -0.2591  0.0851
28717W        W44526   4.756   4.812   1.376 -0.2534  0.0313 -0.1251
28718W        W44527   2.119   0.152  13.759 -0.1528 -0.1159  0.2167
28719W        W44528   0.345   4.218   3.490  0.2237  0.0745 -0.1232
28720W        W44529   4.412   9.839  12.512 -0.0587  0.0370  0.0209
28721W        W44530   3.613  13.829   1.392 -0.0932  0.1631 -0.0604
28722W        W44531   6.129   9.820  14.625  0.0439 -0.3161  0.0047
28723W        W44532  12.687  14.106   1.339  0.1454 -0.5244  0.0530
28724W        W44533   1.156  16.887   2.985 -0.1243  0.3863 -0.0350
28725W        W44534  10.229   6.707   0.077  0.2500  0.1602 -0.3181
28726W        W44535  17.219   3.190   0.074  0.0311  0.3168  0.4357
28727W        W44536   1.325  11.376  12.833 -0.3898  0.2026 -0.0249
28728W        W44537   5.834   5.849   3.287 -0.0535 -0.0816  0.3446
28729W        W44538  13.068  14.657   4.251  0.0978  0.5067  0.1065
28730W        W44539   8.941  16.229   2.587 -0.3943  0.0370  0.0333
28731W        W44540  13.752  14.855   2.615  0.3069 -0.0503  0.0088
28732W        W44541   8.286  17.220   1.801  0.0323  0.1433 -0.2175
28733W        W44542   1.071   8.298  15.352  0.1816 -0.3168  0.1514
28734W        W44543   8.689   1.008   0.818 -0.3217  0.2491  0.1003
28735W        W44544   4.927   9.620   0.282 -0.0694  0.0000  0.0930
28736W        W44545  14.530  15.008   4.133  0.0708  0.0475 -0.2888
28737W        W44546   0.882  13.465  12.415 -0.2049  0.1539 -0.1929
28738W        W44547  11.185   3.590   4.291  0.0381  0.1357  0.0793
28739W        W44548  15.230  13.695  13.753 -0.1699  0.0423 -0.1976
28740W        W44549   6.740  15.926   3.413 -0.1226 -0.5068 -0.0359
28741W        W44550  12.782  14.972   0.993  0.5820 -0.0341 -0.2624
28742W        W44551  11.543   4.667  13.608  0.0160 -0.0173  0.0929
28743W        W44552  16.807   3.575   0.061 -0.0439 -0.0623 -0.1146
28744W        W44553  16.152  17.705  12.633 -0.0179  0.2035  0.2897
28745W        W44554   9.942  12.643   5.702 -0.1433 -0.3856 -0.1015
28746W        W44555   9.185  13.346   2.866  0.0092 -0.1575 -0.0202
28747W        W44556   7.588   3.962  11.857 -0.0154  0.4959  0.2650
28748W        W44557  12.351   8.949   3.596 -0.1784 -0.1226  0.5256
28749W        W44558  16.963  11.932   4.311 -0.0289 -0.0439  0.3009
28750W        W44559   4.373  10.042  15.052 -0.2069 -0.0100  0.2427
28751W        W44560  14.771   5.271  14.066 -0.0683  0.0790 -0.0930
28752W        W44561   3.927   0.501   4.375 -0.1254  0.2220 -0.0064
28753W        W44562  15.145   7.720  11.504  0.1665  0.2447  0.1882
28754W        W44563   7.945  13.192  12.880 -0.1053  0.0462  0.2049
28755W        W44564   5.554   6.749   5.104  0.0858  0.0651 -0.1242
28756W        W44565   9.447   6.167  16.319  0.0077  0.1329 -0.1069
28757W        W44566   2.265  13.311  11.959 -0.1578  0.1761 -0.0925
28758W        W44567   4.472   3.085   4.297 -0.0157 -0.0911  0.0640
28759W        W44568  10.602  10.589   0.607 -0.1691 -0.4406  0.1485
28760W        W44569   0.284   5.139   0.920  0.2294  0.1340  0.1490
28761W        W44570  11.982   4.285   5.151  0.1423  0.2744 -0.1698
28762W        W44571  14.287   0.411  14.724  0.1298  0.0145  0.1577
28763W        W44572  12.098   9.290   4.973 -0.2678 -0.3879 -0.0115
28764W        W44573  15.972   4.250   5.244  0.0075  0.0448  0.1853
28765W        W44574  11.411   0.058  11.820  0.4677 -0.0011 -0.1049
28766W        W44575   8.496  10.707   0.129 -0.0752 -0.1588  0.2699
28767W        W44576   0.389   1.992   4.086  0.0605 -0.1605  0.1045
28768W        W44577   8.077   6.714  11.621  0.1806  0.0467 -0.0509
28769W        W44578  12.615   6.501  16.403 -0.1943  0.1001 -0.4015
28770W        W44579  11.771   9.684  15.642  0.0809 -0.2099  0.0494
28771W        W44580  10.209   0.362   4.575  0.0446  0.2273 -0.0231
28772W        W44581  12.455  15.162   4.592  0.2330 -0.0469 -0.0585
28773W        W44582   8.346   9.004   4.444 -0.1414 -0.3509 -0.1375
28774W        W44583  10.777   2.491  15.849 -0.3684  0.1687  0.2064
28775W        W44584   0.757   3.002   0.799 -0.2706  0.0597  0.0808
28776W        W44585   3.205   8.622   3.680 -0.0416 -0.1759  0.2919
28777W        W44586   3.295   0.848  13.034 -0.1177 -0.0411 -0.0087
28778W        W44587   5.361   2.717  14.153 -0.0574  0.1693  0.2846
28779W        W44588   7.418   4.552  13.127  0.0283 -0.2672  0.2135
28780W        W44589   9.241   2.327   4.850 -0.1591 -0.2306 -0.2510
28781W        W44590  12.114   3.934  12.900  0.1026 -0.0376  0.1379
28782W        W44591  17.751   9.828   3.590 -0.0064  0.1979 -0.1191
28783W        W44592   7.974   8.253  15.709  0.1611 -0.1085  0.0479
28784W        W44593   0.638   7.398  12.733  0.1581  0.0517  0.1526
28785W        W44594  15.804   9.728   0.201 -0.3405  0.2599 -0.4667
28786W        W44595   1.794   5.989   2.954  0.0551 -0.0308 -0.2911
28787W        W44596   6.319   4.391   0.081 -0.1482 -0.0385 -0.0532
28788W        W44597  14.551  10.244  13.190 -0.0532  0.0820  0.0431
28789W        W44598  10.504  12.472  12.930 -0.2521  0.3465 -0.2205
28790W        W44599   9.101   5.400  15.044 -0.4110  0.1618 -0.0156
28791W        W44600   8.487   0.486  15.577  0.1254 -0.2157  0.2097
28792W        W44601   6.809  10.204   5.704  0.2489  0.2800 -0.2623
28793W        W44602  15.483  14.727  13.079  0.0544  0.0917  0.1144
28794W        W44603  14.550   5.887  12.947 -0.0240 -0.0764 -0.3886
28795W        W44604  14.036   5.416   1.663 -0.1051  0.7543 -0.1917
28796W        W44605   2.125   4.114   0.760  0.3091 -0.0144  0.0523
28797W        W44606   2.766   6.919  16.552 -0.1603  0.3337  0.3746
28798W        W44607  13.031  13.001  12.384  0.1586 -0.4483 -0.0294
28799W        W44608  14.840   9.891   6.351 -0.0403  0.1349  0.0426
28800W        W44609   2.401   6.356  15.845  0.0174 -0.2565  0.1143
28801W        W44610  17.558   4.667  13.200 -0.1982 -0.0209  0.1150
28802W        W44611  13.665   2.246  11.838 -0.1124  0.2890  0.0240
28803W        W44612   3.162  14.648   1.672 -0.0702 -0.0814 -0.0301
28804W        W44613  10.653  13.005  12.858 -0.0028  0.0302 -0.0621
28805W        W44614   8.787   4.127   0.146  0.1344 -0.1235 -0.0942
28806W        W44615  12.007  16.176  15.944  0.2671 -0.2260 -0.1192
28807W        W44616   5.755  17.012   1.340 -0.0594 -0.3189  0.2015
28808W        W44617  11.909  17.052   6.258  0.3696 -0.4899  0.0418
28809W        W44618   7.744  15.968  15.703  0.1575  0.0668  0.1503
28810W        W44619   2.921  10.656   0.439 -0.1958 -0.0178 -0.1584
28811W        W44620   9.930   5.336   3.518  0.1504 -0.3727 -0.2014
28812W        W44621   8.445  14.399  14.272  0.1496 -0.3487  0.3549
28813W        W44622   2.570   5.264   0.433 -0.0637 -0.2058  0.0615
28814W        W44623  14.998  16.791   3.796 -0.1988  0.0193  0.0759
28815W        W44624   0.033  16.894   1.975  0.1276  0.0481  0.1992
28816W        W44625   0.395   9.780  11.595 -0.2401 -0.0489 -0.3892
28817W        W44626   5.897   0.648   5.615  0.1967 -0.1432  0.3444
28818W        W44627   0.269  12.637  13.019 -0.1123 -0.3599  0.0300
28819W        W44628  11.840   7.521  15.927 -0.4243 -0.1274  0.0638
28820W        W44629  16.736   6.836   1.655  0.2023  0.0718  0.1590
28821W        W44630   3.864   0.057   3.205  0.2500 -0.1515  0.1346
28822W        W44631   4.883  15.105   4.695 -0.0792 -0.2687 -0.0334
28823W        W44632   3.682  11.383  15.008  0.2292  0.2352  0.0888
28824W        W44633  14.189   5.867   1.248  0.1462 -0.0522  0.0536
28825W        W44634   8.939  12.484   3.479 -0.0624 -0.0699  0.2304
28826W        W44635   8.476   0.210   0.793  0.0564 -0.0970 -0.0482
28827W        W44636  10.455   6.618  15.699 -0.2809 -0.0035  0.1288
28828W        W44637  15.196   2.750  12.051 -0.3133 -0.0334  0.1715
28829W        W44638   8.306   6.654   5.164  0.0539  0.0759  0.1668
28830W        W44639   5.085  12.712   3.061  0.0566 -0.2740  0.0508
28831W        W44640   1.733   9.860   0.289 -0.0844 -0.1630 -0.0532
28832W        W44641  11.266   8.699   2.393 -0.2237 -0.1024  0.0146
28833W        W44642   0.667   6.852  16.638 -0.0847  0.0372 -0.1827
28834W        W44643  17.057  14.176   4.467 -0.0851  0.0730  0.0198
28835W        W44644  13.242  10.223  16.307  0.2359 -0.2854 -0.1435
28836W        W44645   6.618   6.152   3.750 -0.1591  0.2048  0.3582
28837W        W44646  17.596   1.047  12.494 -0.2932  0.1111 -0.0367
28838W        W44647   9.955  17.061   2.620 -0.2754  0.1997 -0.1606
28839W        W44648  17.938  15.374  15.893  0.1219  0.2026  0.1826
28840W        W44649  17.909  13.344   4.639 -0.0509  0.0602 -0.4079
28841W        W44650   6.404  16.451   5.084  0.1575  0.0813  0.0918
28842W        W44651  17.910   3.129  10.964  0.0295  0.0108  0.1488
28843W        W44652  15.507   7.384  15.890 -0.0554 -0.0013  0.0473
28844W        W44653  12.080  14.581   3.427  0.0671 -0.0924  0.0602
28845W        W44654   0.738  17.801  13.813  0.1114  0.1485 -0.1138
28846W        W44655   3.648   6.798  13.178 -0.0008  0.0911 -0.0250
28847W        W44656   1.443  14.769  15.005 -0.2056 -0.1892  0.2706
28848W        W44657   3.093  17.447   3.669 -0.0543  0.1784  0.2278
28849W        W44658   9.848  12.251  12.174  0.1241  0.1602 -0.1570
28850W        W44659  17.506  11.698   1.211  0.2521  0.2571  0.1334
28851W        W44660   5.856   7.734  13.524 -0.0157  0.2249  0.2321
28852W        W44661  10.447  13.749   1.388  0.1354 -0.2479  0.1614
28853W        W44662   0.656  16.077  14.365 -0.0797  0.0199 -0.1905
28854W        W44663  14.145   4.378   2.269  0.2360 -0.0537  0.0009
28855W        W44664  16.703   8.690   2.339 -0.0995  0.1798 -0.2445
28856W        W44665   7.053  11.869  15.526  0.2051 -0.0265 -0.1618
28857W        W44666   7.206   4.087  13.106  0.0614 -0.1439  0.4058
28858W        W44667   3.619  12.209   0.819 -0.0667 -0.1669  0.1907
28859W        W44668  13.938  12.381  16.116 -0.1125  0.0990 -0.1835
28860W        W44669  11.827   3.552   5.744 -0.0037 -0.0692  0.0207
28861W        W44670   9.608  16.078  15.875 -0.2529  0.1038  0.0039
28862W        W44671   7.830   8.007  11.955 -0.0847 -0.1574  0.1242
28863W        W44672   2.746   7.490   2.285 -0.0593 -0.1632  0.3338
28864W        W44673   8.422   8.080  12.587  0.2804 -0.1545  0.1376
28865W        W44674  14.972  14.618  15.157 -0.0066 -0.0647  0.1907
28866W        W44675   4.401   6.841  12.573 -0.0053 -0.2982  0.0808
28867W        W44676  16.478   6.728  14.006  0.3514  0.4117  0.1165
28868W        W44677  15.039  17.148   1.487 -0.0062 -0.0000 -0.0565
28869W        W44678   0.334   9.362   5.409 -0.2832 -0.3063  0.2278
28870W        W44679  12.424  11.885  16.074  0.0010  0.4315 -0.0000
28871W        W44680   9.871  17.678  15.022 -0.0048 -0.0403 -0.1672
28872W        W44681   2.342   3.776   5.319 -0.0052 -0.1970  0.1596
28873W        W44682  16.781  12.379   2.537  0.1088 -0.0920  0.0100
28874W        W44683  14.551  17.013   1.750  0.1144  0.2163 -0.3996
28875W        W44684   8.002  14.715   4.283 -0.0111  0.2735 -0.0379
28876W        W44685  12.127  10.674   0.859  0.0431  0.1622  0.0486
28877W        W44686   5.167   5.108  14.060  0.1047 -0.2366 -0.3880
28878W        W44687  17.179  16.819   5.181 -0.0386  0.1405  0.0530
28879W        W44688   4.291   4.310   4.993 -0.0105  0.1850 -0.1220
28880W        W44689   7.631  13.978   5.360 -0.0582 -0.2142 -0.1582
28881W        W44690   7.210   2.881  13.494  0.0770 -0.1224  0.1002
28882W        W44691  14.578   1.623  12.583  0.1791 -0.0132  0.0121
28883W        W44692  16.813  17.026  13.859 -0.0152 -0.0943 -0.2706
28884W        W44693  12.430   5.186  16.051  0.1331 -0.1887  0.1147
28885W        W44694  11.336  15.913   2.119  0.0544 -0.0247 -0.2545
28886W        W44695   4.363   7.017  12.088  0.5491  0.0543  0.1205
28887W        W44696  11.249   7.297   0.609 -0.0512 -0.1415 -0.0498
28888W        W44697   0.074  14.199   3.733  0.0557 -0.0171 -0.0005
28889W        W44698   1.847   4.229   2.744  0.2479 -0.0646  0.0242
28890W        W44699  16.319  15.893  15.569  0.0873 -0.0962  0.0723
28891W        W44700  10.683   3.941  14.356  0.1458 -0.1536  0.0192
28892W        W44701   1.291   8.917  10.459 -0.1664 -0.2926 -0.0531
28893W        W44702   3.708  16.001  16.686 -0.0998 -0.0615  0.2583
28894W        W44703   4.062   2.173  12.051 -0.1744  0.1774 -0.2120
28895W        W44704   2.454  10.759   5.156  0.1234  0.1571 -0.1216
28896W        W44705   0.159   6.981  11.641  0.0501  0.0506  0.0487
28897W        W44706   9.281   3.668  15.078 -0.0083  0.1049  0.1520
28898W        W44707  13.612   7.498   0.030  0.2993 -0.1767 -0.2224
28899W        W44708   1.608  17.775  16.474 -0.1487  0.1334  0.0617
28900W        W44709   5.681  14.164  12.706  0.1107 -0.4123 -0.1132
28901W        W44710  15.927  12.891   4.109  0.1231  0.2189 -0.2201
28902W        W44711   0.073  12.915   0.675  0.0753  0.1850 -0.2091
28903W        W44712   9.527   6.117  12.219  0.4256 -0.1901  0.2699
28904W        W44713   4.018  17.495  14.380  0.1872  0.1190  0.1059
28905W        W44714  12.762   0.591  13.010  0.3565  0.0504 -0.1124
28906W        W44715  15.083  11.341   1.665  0.1898 -0.3002 -0.1245
28907W        W44716   8.923  14.553   5.928  0.1334  0.1300  0.0035
28908W        W44717   8.846  17.956   0.371  0.1209  0.2452  0.0190
28909W        W44718   2.972   1.483   1.381 -0.1754 -0.0349  0.1440
28910W        W44719   2.288  11.629  12.696 -0.0514  0.1178  0.3004
28911W        W44720   1.265   2.539  12.337 -0.2374  0.1713  0.0262
28912W        W44721  12.088   2.156   4.151  0.2984  0.1039  0.0428
28913W        W44722  10.974  13.673  13.237  0.1051 -0.1904  0.4334
28914W        W44723   7.344  14.149   2.523  0.3081 -0.1220  0.0259
28915W        W44724   6.078   0.320   5.131 -0.1069 -0.3059 -0.3473
28916W        W44725   5.169  12.950  13.281 -0.1418  0.1194  0.0438
28917W        W44726  13.633  14.477  12.967 -0.0010 -0.2052 -0.1921
28918W        W44727  10.760  16.815   3.203  0.2671  0.2572 -0.0935
28919W        W44728   0.517   7.808   2.818 -0.1511  0.0660 -0.2453
28920W        W44729   1.929   1.380   1.047 -0.1620 -0.2205 -0.1834
28921W        W44730  16.543   8.586   5.109 -0.1137  0.1395  0.2118
28922W        W44731  13.800  17.419   2.198  0.5118 -0.1031  0.2114
28923W        W44732  14.608   9.375  11.265 -0.1829 -0.1933  0.1023
28924W        W44733   5.069  13.072  11.381 -0.1581  0.2677 -0.1057
28925W        W44734   7.479  11.925   2.645  0.2469  0.0662 -0.0466
28926W        W44735   7.516  15.540   2.954  0.0948  0.2957 -0.4252
28927W        W44736   1.076   2.747   1.994  0.3743 -0.1361  0.2614
28928W        W44737   3.514   9.652  11.222 -0.2135  0.1872  0.0635
28929W        W44738   9.572   3.310   4.407  0.0091  0.1458 -0.1125
28930W        W44739  10.004  13.217  16.300  0.1770 -0.1488 -0.1858
28931W        W44740  13.379   2.269   3.112  0.2667 -0.0188 -0.0217
28932W        W44741   3.271   7.457  15.033 -0.3029  0.0337 -0.3623
28933W        W44742   7.639   8.476  12.182  0.1604  0.0202 -0.0567
28934W        W44743  11.919  15.502   3.245  0.1664 -0.0248 -0.0078
28935W        W44744  14.733  12.710   2.122  0.1755 -0.0826  0.1177
28936W        W44745  11.107   9.769  12.114  0.0274  0.1570  0.1883
28937W        W44746  10.147  16.124   2.701 -0.0913 -0.1952  0.1272
28938W        W44747   4.141   8.711  14.547 -0.0689 -0.0265  0.0188
28939W        W44748   3.629  11.182   0.958 -0.2174  0.0349 -0.2941
28940W        W44749  10.668   3.820   3.012  0.0308  0.1740 -0.3616
28941W        W44750   5.869   5.032  12.375  0.0104  0.1248 -0.0905
28942W        W44751   0.278   3.437  11.103  0.0323 -0.0393  0.1099
28943W        W44752   2.272  15.184   5.981 -0.0318  0.0944  0.2972
28944W        W44753   7.100  16.002  13.205  0.0871 -0.0599 -0.2397
28945W        W44754   5.910   9.430   0.183  0.0993  0.2455  0.0940
28946W        W44755  10.820  14.050   4.707 -0.0596 -0.0454  0.2290
28947W        W44756   2.733   2.720  15.070 -0.0875 -0.0468 -0.1764
28948W        W44757   6.668   3.483  15.815  0.0118  0.2820  0.2315
28949W        W44758  17.578   3.501   0.600 -0.1636  0.1127 -0.1190
28950W        W44759   0.995  11.780  12.700 -0.2623 -0.1127  0.0880
28951W        W44760   2.465   9.410   0.970  0.0532 -0.0050 -0.0711
28952W        W44761   0.973  11.159  11.823  0.0517 -0.0700 -0.2343
28953W        W44762   3.273  13.034  15.894  0.2063  0.0776  0.0924
28954W        W44763   2.907   2.607  15.545 -0.2154  0.3079 -0.0448
28955W        W44764   0.457  14.121  13.808  0.1558 -0.1984  0.2614
28956W        W44765  17.666  12.721   0.908 -0.0044 -0.0063  0.2744
28957W        W44766  11.223  16.305  12.656  0.1015  0.1500 -0.0803
28958W        W44767   0.725  16.581   2.776 -0.0415 -0.0277  0.0011
28959W        W44768  13.038   3.189  12.210 -0.3348 -0.1933 -0.1598
28960W        W44769  17.820   2.580  14.904  0.0087  0.0481 -0.1061
28961W        W44770   1.995  17.952  11.841 -0.0819  0.0022 -0.3263
28962W        W44771   9.670  17.538   3.504 -0.0194  0.0974  0.0328
28963W        W44772  13.552  10.415  11.834 -0.0459 -0.1573 -0.1220
28964W        W44773  16.755   4.300   3.707  0.4279  0.0620  0.1451
28965W        W44774   1.189   0.768  15.229 -0.0176  0.1980 -0.0630
28966W        W44775   9.806  13.224  11.647 -0.0436  0.1656 -0.0030
28967W        W44776  16.609  10.191   3.916 -0.0208  0.0923 -0.2106
28968W        W44777   0.393   7.381   3.584 -0.1002 -0.1186  0.2305
28969W        W44778   5.973   4.541  13.696 -0.0029 -0.2586 -0.3052
28970W        W44779   7.119   2.584  14.289 -0.0100 -0.0431  0.1108
28971W        W44780  12.152   0.597   5.153 -0.3207 -0.0864 -0.0719
28972W        W44781   2.138  12.071  13.054  0.2033 -0.1075 -0.1074
28973W        W44782   9.098  15.348   1.272  0.0444 -0.1481 -0.0195
28974W        W44783  10.551  11.524   1.911  0.0187 -0.3375 -0.2673
28975W        W44784   7.680  17.775  12.561 -0.0619 -0.1159  0.0227
28976W        W44785   8.523  16.739   2.008  0.2780 -0.4031 -0.0806
28977W        W44786   0.374   0.928   3.997 -0.1901 -0.1795 -0.2838
28978W        W44787   7.436   6.976  13.331 -0.0007  0.1513  0.1361
28979W        W44788  16.367   3.322  16.616  0.1808 -0.1178  0.3657
28980W        W44789  15.293   8.648   3.577 -0.0141 -0.0123 -0.0298
28981W        W44790  13.240  13.152   0.334  0.2403  0.2767 -0.2039
28982W        W44791   6.646  10.774  11.727 -0.2829  0.3377 -0.1077
28983W        W44792   0.637  16.808  13.525  0.0579 -0.0517 -0.0399
28984W        W44793   6.163   5.190   1.458  0.3438 -0.0214 -0.2467
28985W        W44794   3.960   8.094  15.280 -0.0152 -0.0923  0.4435
28986W        W44795   7.481   8.058  15.820  0.0111 -0.3423 -0.0901
28987W        W44796  11.947  14.715   1.730 -0.3390 -0.1384 -0.2399
28988W        W44797   9.818   9.673  16.129  0.2598  0.2960  0.2696
28989W        W44798  11.981  13.791   2.287  0.2678  0.1794 -0.0458
28990W        W44799   1.650   0.406  13.570  0.3265 -0.1937  0.0488
28991W        W44800  13.263   3.976   2.741  0.1896 -0.1142  0.2735
28992W        W44801   7.027   8.080   0.678  0.2867  0.0904  0.1580
28993W        W44802   4.299   0.183   4.397 -0.2226  0.1105  0.2142
28994W        W44803  16.500   2.941  12.435 -0.2036  0.0478  0.0450
28995W        W44804   6.985  10.442   0.680 -0.1274 -0.0402  0.0983
28996W        W44805  13.743  11.853   0.665  0.0159  0.0577 -0.0859
28997W        W44806  14.493  13.523  15.241 -0.0976 -0.1503  0.1630
28998W        W44807  10.526  17.865  13.421  0.0234 -0.1919 -0.0004
28999W        W44808  17.025   4.625   3.026  0.1116 -0.0379  0.0120
29000W        W44809   8.938  11.609  13.528 -0.2224  0.1202  0.0745
29001W        W44810  13.982  13.443  16.014 -0.2569 -0.1005  0.0546
29002W        W44811  14.130  12.037  15.180 -0.1099 -0.1704 -0.3969
29003W        W44812   1.428   9.411   3.178 -0.0130 -0.1255 -0.1510
29004W        W44813  15.399   8.399  13.286  0.0831  0.1937 -0.0296
29005W        W44814   7.414   9.276  11.719  0.1667  0.0051 -0.1351
29006W        W44815  14.332   0.430  13.761 -0.1323  0.0733 -0.1518
29007W        W44816  15.996  14.492   0.871 -0.3780  0.0505 -0.1130
29008W        W44817  13.793  13.596   5.084 -0.1670  0.0731 -0.0023
29009W        W44818   0.533  10.861   2.472 -0.0853  0.2611 -0.4091
29010W        W44819  16.323   0.914  12.980 -0.1729  0.0686  0.1281
29011W        W44820   0.579   6.905  11.933  0.2552  0.0181 -0.0423
29012W        W44821   8.314  14.725   3.698 -0.2047 -0.1438  0.1921
29013W        W44822  12.015  17.747  15.935  0.1371 -0.1522  0.0780
29014W        W44823   6.457  14.038   5.220 -0.0811 -0.3759  0.3787
29015W        W44824   9.519   8.612  14.760 -0.0201  0.3189 -0.1222
29016W        W44825  10.871  12.551  16.286  0.2687  0.0637 -0.1601
29017W        W44826   9.548   5.007  15.020 -0.0013 -0.1139 -0.1217
29018W        W44827  10.903  11.330  14.499 -0.1487  0.0714 -0.1341
29019W        W44828  11.297   5.939   0.528 -0.0330 -0.2649  0.2148
29020W        W44829  14.230  17.377  15.138  0.0370 -0.1051  0.0203
29021W        W44830   1.362   0.076   3.748 -0.0889 -0.0440  0.1967
29022W        W44831  14.150   0.940  13.176 -0.2370  0.1947  0.1231
29023W        W44832   8.871  14.786   2.089 -0.0620 -0.0248 -0.2472
29024W        W44833  15.038  11.282   4.284 -0.2042 -0.0943 -0.1349
29025W        W44834  10.796   5.791  14.843  0.1949  0.2508  0.2302
29026W        W44835  12.617   0.470   4.322  0.4429  0.0337 -0.2311
29027W        W44836   9.804   0.527  14.857 -0.0359  0.3347 -0.0631
29028W        W44837   1.334   0.333  14.180 -0.0275 -0.0364 -0.0732
29029W        W44838   7.666   0.646   4.486  0.0102 -0.1170 -0.0754
29030W        W44839   2.365   6.009   4.420 -0.0227  0.1166 -0.0283
29031W        W44840   5.131  17.183  14.709  0.2804  0.0786 -0.0141
29032W        W44841   0.936   3.655  14.937 -0.1293  0.0690 -0.0446
29033W        W44842   9.693   0.330  13.238  0.2359 -0.1469 -0.1389
29034W        W44843   5.730   2.748  13.463  0.0503  0.2435 -0.0682
29035W        W44844  16.869   0.435   4.956  0.1585 -0.0091 -0.0744
29036W        W44845   3.660   3.185   2.492  0.2228  0.0904  0.0155
29037W        W44846   3.974  13.506   2.709  0.1690  0.1258 -0.0463
29038W        W44847   7.512   0.652  15.262 -0.1065 -0.4180  0.0092
29039W        W44848  13.114  15.591   3.989 -0.1274  0.2529 -0.1291
29040W        W44849   0.153  12.859   1.659  0.0242  0.0399  0.3267
29041W        W44850   4.517   1.730   2.108 -0.1072 -0.1266 -0.1009
29042W        W44851   6.926  16.908   5.274 -0.1608  0.0745 -0.0932
29043W        W44852  14.262   7.736  12.102  0.0175 -0.2787 -0.0366
29044W        W44853   5.451  17.598  15.616  0.0434  0.2372 -0.4956
29045W        W44854   0.020   7.697  13.105  0.1111 -0.0703 -0.0691
29046W        W44855   7.435   9.929   2.258 -0.0261  0.0382  0.2500
29047W        W44856  12.208   1.492   1.204  0.0321  0.1065 -0.3084
29048W        W44857   7.442  10.942  14.523  0.1336  0.0049 -0.3556
29049W        W44858  17.036   8.638  14.765  0.2212  0.0425  0.0599
29050W        W44859  10.441  15.457  15.066 -0.0536  0.2340 -0.3135
29051W        W44860  10.403  10.424   4.672 -0.0435 -0.2067 -0.0600
29052W        W44861   6.531  14.965   2.911  0.2818  0.0735 -0.2151
29053W        W44862   0.759   8.314  13.735 -0.2166  0.0192 -0.0041
29054W        W44863   1.550   5.161   0.632  0.0307 -0.5580  0.0408
29055W        W44864   1.371  15.222  13.555  0.2740 -0.1513  0.1271
29056W        W44865  13.936  10.649   0.874  0.0714  0.1529 -0.0067
29057W        W44866   3.038   7.328   0.039  0.1699 -0.4463  0.1784
29058W        W44867  15.680   6.881  15.200  0.3409  0.0274  0.0047
29059W        W44868  14.818   2.462  16.061 -0.1868  0.0079 -0.0823
29060W        W44869   6.375  15.250  11.083 -0.1334 -0.0065  0.2107
29061W        W44870  16.595  12.720   4.883  0.0993  0.0448 -0.1037
29062W        W44871  11.229   1.876  11.735  0.1002  0.1351 -0.0877
29063W        W44872   0.120   0.701   0.670 -0.0297  0.3072  0.0477
29064W        W44873  16.264  14.826   2.216 -0.2728  0.0134  0.1005
29065W        W44874   4.905   7.272   2.366  0.1237  0.2272 -0.0307
29066W        W44875   2.630  16.951  14.227  0.0627  0.2813  0.1171
29067W        W44876   4.957   0.104  14.366 -0.0542  0.0872  0.0903
29068W        W44877  10.144  16.169   3.317  0.0736  0.1821 -0.0043
29069W        W44878  15.332  11.846   4.855 -0.0396 -0.2450 -0.1912
29070W        W44879  11.730  10.291   6.001 -0.1294  0.3059  0.0692
29071W        W44880  10.411   8.710  13.823  0.3644 -0.0298  0.4188
29072W        W44881  12.422   0.943  13.188 -0.0081 -0.1447  0.0128
29073W        W44882  17.579   9.473  15.206  0.2600  0.4024  0.0301
29074W        W44883   6.713   5.979   1.719  0.0270 -0.0133 -0.3439
29075W        W44884  17.920  10.608   5.863 -0.1241 -0.0319  0.0208
29076W        W44885  10.306   5.518  15.228 -0.0140 -0.3984  0.0263
29077W        W44886  14.145  12.829  14.677 -0.1007 -0.0901 -0.0216
29078W        W44887  15.959   1.055   5.328  0.1557 -0.1119  0.1146
29079W        W44888  16.596   0.007   1.477 -0.0615 -0.0730  0.1285
29080W        W44889   5.668   0.590  15.202 -0.0068  0.2030  0.0165
29081W        W44890   5.393   6.915   1.622  0.0740  0.0362  0.1825
29082W        W44891  14.320   9.297  11.775 -0.0714  0.0090  0.1782
29083W        W44892  11.320   2.052   4.807  0.0136  0.2015  0.1856
29084W        W44893   1.023  16.048  12.048 -0.1175  0.1895  0.2518
29085W        W44894  13.049  12.053  12.355  0.0834  0.1282 -0.2730
29086W        W44895  15.203   9.402  12.837  0.2209  0.0052  0.1741
29087W        W44896   9.287   3.543   4.100  0.0672  0.0290  0.0966
29088W        W44897   7.982  14.253   5.670 -0.1009  0.5486 -0.0403
29089W        W44898  16.197  17.302  11.780  0.0573 -0.3184 -0.0490
29090W        W44899  12.934  16.555   1.026 -0.3757  0.2994  0.1793
29091W        W44900  10.179   3.699  14.270 -0.0445  0.0252 -0.2428
29092W        W44901   5.965   8.325  15.410  0.0843 -0.1104 -0.3290
29093W        W44902  11.559  11.712   3.705  0.3342  0.2126  0.0711
29094W        W44903   1.890  13.954   2.332  0.2388  0.3225 -0.2183
29095W        W44904   9.255   9.640   2.551 -0.0973 -0.0381  0.1863
29096W        W44905   2.157   0.091   1.921  0.1098  0.1253 -0.1083
29097W        W44906   7.469  10.879  13.497 -0.1360  0.2940  0.2469
29098W        W44907  16.394  13.587   3.838 -0.4154  0.1651 -0.0275
29099W        W44908  15.892  10.856   1.688  0.1820  0.0521  0.2193
29100W        W44909   5.528   4.612  12.311 -0.1401  0.0876 -0.1381
29101W        W44910  11.786  14.650  15.467  0.0566 -0.0310  0.0775
29102W        W44911  15.807   1.014  13.847  0.2338 -0.1446 -0.0606
29103W        W44912  17.649   0.920  16.615 -0.0400  0.4681 -0.1118
29104W        W44913  16.087   4.277  13.417  0.3250  0.1717  0.1325
29105W        W44914  15.755  17.379   2.180 -0.2117 -0.3791  0.2433
29106W        W44915   9.595   6.979  11.257  0.1103  0.0858  0.0228
29107W        W44916   9.786  15.592   5.255  0.2372 -0.0422  0.2455
29108W        W44917  14.575   9.945   1.273 -0.0953 -0.0012 -0.1545
29109W        W44918   4.959  13.227  16.038 -0.3680  0.0758  0.1775
29110W        W44919  14.549  14.623   2.136 -0.0749 -0.0418 -0.3049
29111W        W44920  11.186   6.864  13.128 -0.2865  0.2600 -0.0679
29112W        W44921  10.001   3.794   2.120  0.2066 -0.0760 -0.1838
29113W        W44922   2.204  14.192  11.640 -0.0592  0.3051 -0.2364
29114W        W44923   2.688   0.562  11.231 -0.1107 -0.2081 -0.0338
29115W        W44924   0.376  12.598   3.468 -0.0059 -0.0112 -0.1271
29116W        W44925   3.916  17.098   3.756 -0.1691 -0.2071 -0.0180
29117W        W44926  11.770  12.625   6.268 -0.1027  0.3062  0.2278
29118W        W44927   0.620   1.335  15.688  0.0251  0.0047  0.2527
29119W        W44928  13.928   9.406   5.996  0.4374 -0.0000 -0.0645
29120W        W44929  17.389  14.637  12.406 -0.3812  0.1664 -0.0774
29121W        W44930   8.349  11.639   2.032  0.1067  0.1426  0.0088
29122W        W44931   5.321  13.372   0.008  0.2027 -0.2292 -0.1254
29123W        W44932   1.696   0.047   4.118  0.0509  0.3514  0.3186
29124W        W44933  10.441   8.364  14.960  0.2545 -0.1741  0.4657
29125W        W44934   1.026   6.448  13.760  0.0085  0.1543  0.2781
29126W        W44935  15.095  13.801   3.214 -0.0607  0.0184 -0.0754
29127W        W44936  13.439  13.148  14.145  0.3583  0.0479  0.1398
29128W        W44937  17.547  16.656   1.803  0.1910  0.1788  0.1428
29129W        W44938   8.582   3.025   2.524  0.1530 -0.0409  0.0502
29130W        W44939   3.973   6.759  12.310  0.4721  0.3036 -0.3905
29131W        W44940   5.626  14.566   0.601  0.0969  0.3573  0.0717
29132W        W44941   3.686   2.914  14.515 -0.1290 -0.0407 -0.1267
29133W        W44942   4.008   5.822  11.141 -0.0092 -0.1056 -0.1067
29134W        W44943   5.258   4.425   2.506  0.3065  0.2832  0.3284
29135W        W44944  10.905   5.778   6.107  0.1874  0.1910  0.0347
29136W        W44945   9.324  11.336  11.760 -0.1036 -0.0410  0.1027
29137W        W44946  12.251   7.536  12.356 -0.0970 -0.1085 -0.2103
29138W        W44947  16.477  13.548  16.145 -0.0828  0.0868  0.0040
29139W        W44948   3.609   0.041  11.857  0.0620  0.0634  0.1711
29140W        W44949   3.395   9.952  16.695 -0.0643 -0.0833  0.0265
29141W        W44950   6.350   2.511   1.091  0.1275  0.3255 -0.0869
29142W        W44951   3.815  13.045   2.544  0.0243 -0.0475  0.1785
29143W        W44952   1.937  11.648  12.295 -0.0473 -0.1378 -0.0259
29144W        W44953   6.211   7.283  12.100 -0.0090 -0.4085 -0.2100
29145W        W44954  12.486  16.822   5.520  0.1003  0.2114  0.1902
29146W        W44955   2.958   6.993  12.167  0.2289  0.0676  0.0791
29147W        W44956   1.600   0.041  12.112  0.0568  0.1475 -0.0906
29148W        W44957  15.837   0.208   1.940 -0.1056  0.3389  0.0606
29149W        W44958   1.281  11.190  15.864  0.2506  0.1268  0.0504
29150W        W44959   3.743   7.144  15.462 -0.2931 -0.0957  0.0819
29151W        W44960   8.859  17.280  16.095  0.0109 -0.1173 -0.1053
29152W        W44961  15.205  10.715   4.930 -0.1487  0.2134 -0.0917
29153W        W44962  11.858   6.140  12.604 -0.1672  0.0153 -0.2101
29154W        W44963  15.714  15.967  12.425 -0.0151 -0.0817  0.0389
29155W        W44964   0.055   7.553  14.485  0.0188  0.2472  0.1713
29156W        W44965  11.586  17.928  15.712  0.0052  0.1552 -0.0836
29157W        W44966  15.953   3.219   4.887  0.0077 -0.0304  0.1139
29158W        W44967  10.930   6.800   3.627 -0.0471  0.0198  0.1098
29159W        W44968   5.756   2.046   3.246  0.2139  0.0515  0.2611
29160W        W44969   7.468  11.448  11.681 -0.0402  0.0689 -0.2585
29161W        W44970   2.780  13.582   2.386 -0.1157 -0.0484 -0.0821
29162W        W44971  16.162  16.201  12.344 -0.1523  0.0304 -0.5289
29163W        W44972   7.582  11.091   3.461  0.2419 -0.1596 -0.1196
29164W        W44973  17.241   4.100   2.239 -0.1707 -0.0479 -0.0831
29165W        W44974   5.042  13.937   4.263 -0.1213  0.1638  0.1197
29166W        W44975   3.662   7.017  13.626 -0.0215  0.0211  0.1393
29167W        W44976  11.362   1.425   5.422  0.1699  0.0166  0.0344
29168W        W44977   3.414   4.228   1.703  0.2019 -0.1205  0.1088
29169W        W44978   2.375   5.958  12.825 -0.1465 -0.0460  0.1715
29170W        W44979  10.851  15.746   2.162 -0.0301  0.2852 -0.3207
29171W        W44980  11.161   8.725  14.584 -0.0377  0.2589 -0.1789
29172W        W44981  14.724  16.333  15.919  0.2943  0.0399  0.0683
29173W        W44982   2.374  10.511   5.607 -0.0620  0.1555  0.2531
29174W        W44983   3.990   4.349  13.367 -0.2100 -0.0114 -0.1364
29175W        W44984   5.207   1.732   0.864  0.1460 -0.0136 -0.0750
29176W        W44985   3.732  16.334   5.932  0.2928 -0.0023 -0.3483
29177W        W44986  12.083   0.762   3.887  0.0649 -0.0336 -0.1518
29178W        W44987   0.018   3.069  14.012 -0.0478 -0.0575  0.0089
29179W        W44988  11.749   5.875  11.771 -0.1331 -0.2011 -0.1116
29180W        W44989  13.316  16.537   5.323  0.1994  0.2569 -0.1291
29181W        W44990  11.732   8.643   4.347  0.0439 -0.0513 -0.2497
29182W        W44991  17.510   6.371   4.461 -0.1654 -0.0299 -0.0281
29183W        W44992  14.438   6.719   2.014 -0.1408 -0.1009  0.2508
29184W        W44993  15.705   4.074  11.763  0.1826 -0.1104  0.2021
29185W        W44994  12.263  13.377  16.711 -0.3649 -0.5212 -0.0389
29186W        W44995  17.077  14.149  13.741  0.2027 -0.1195  0.1308
29187W        W44996   7.094   4.925  12.796 -0.0273 -0.0208 -0.1366
29188W        W44997   2.304  10.941   0.718 -0.0746 -0.1930  0.2702
29189W        W44998   4.058   8.868  14.051 -0.2601 -0.2309  0.1159
29190W        W44999   5.230   2.106   1.646 -0.1487 -0.1726 -0.1552
29191W        W45000  11.417   5.439   5.754  0.2855 -0.2625 -0.0698
29192W        W45001   2.081  16.666   0.196  0.6065 -0.2027 -0.2896
29193W        W45002   4.808  11.330   3.809 -0.2255 -0.1264 -0.3207
29194W        W45003  17.253   9.997  13.996  0.1267  0.1568 -0.0268
29195W        W45004   8.296  16.582   0.285 -0.0409  0.2528 -0.3473
29196W        W45005   6.497  16.180   3.085 -0.5430 -0.1756 -0.0717
29197W        W45006   6.586   2.212  12.540  0.2130 -0.0019 -0.4571
29198W        W45007  13.211   2.508  15.840 -0.0056 -0.0984 -0.2270
29199W        W45008   4.224  16.240   3.333 -0.1943 -0.1430  0.0522
29200W        W45009   6.444   7.652   2.529  0.1556 -0.0440 -0.1164
29201W        W45010   7.672   6.810   1.598 -0.0759  0.3328 -0.2187
29202W        W45011  17.310   2.922  13.315 -0.2567 -0.0970  0.0217
29203W        W45012  15.562   7.339   3.844 -0.0403  0.0189 -0.3886
29204W        W45013  11.408   8.436   2.779  0.1477  0.2378  0.0328
29205W        W45014  11.950   5.424   0.141 -0.2255  0.0110 -0.1780
29206W        W45015   0.789   7.587   5.027 -0.1286  0.0714  0.0572
29207W        W45016  16.986   0.456   0.238 -0.1345 -0.2473  0.2327
29208W        W45017   2.705  14.999   2.165 -0.0141  0.1492 -0.1632
29209W        W45018   7.565   0.721   3.966 -0.2643  0.0454  0.0778
29210W        W45019  12.471   6.871   2.881 -0.1139  0.0070  0.1672
29211W        W45020   1.183  17.746   4.749 -0.1961  0.0604 -0.0284
29212W        W45021   5.121  16.237   4.546  0.2240  0.0248  0.2124
29213W        W45022   1.676   9.338   4.112 -0.0301  0.0962 -0.0760
29214W        W45023   9.521   4.005   3.072  0.0305 -0.1307 -0.2853
29215W        W45024   0.508  15.112   4.370  0.2648 -0.1370  0.0017
29216W        W45025  10.332  13.752   0.106  0.0038 -0.1287 -0.1756
29217W        W45026  14.382   9.555  15.820  0.1270 -0.0314 -0.1157
29218W        W45027   6.249  15.252   4.238 -0.0837  0.1364 -0.2372
29219W        W45028   5.352   4.322  11.461  0.1158  0.0883 -0.2181
29220W        W45029   6.542  11.507  12.607  0.1316 -0.0261  0.0583
29221W        W45030  12.266  15.597  16.092  0.0395 -0.0735  0.0347
29222W        W45031  15.241  14.503   5.989 -0.0684  0.3557  0.1665
29223W        W45032   7.788  11.009   4.345  0.2063 -0.1400  0.1256
29224W        W45033   7.263  12.828   3.077 -0.1015  0.4045  0.0087
29225W        W45034   0.178   4.484   4.595  0.0482 -0.0440  0.0921
29226W        W45035   5.117   3.315   1.132  0.1445 -0.2694  0.1801
29227W        W45036   9.540   0.836  15.558 -0.3080 -0.0140  0.0328
29228W        W45037   3.589  13.805   2.688  0.1275  0.0860  0.1759
29229W        W45038  14.236   4.456   4.395 -0.1024 -0.0428  0.1840
29230W        W45039   3.097   9.465  12.535 -0.1803  0.1831  0.0601
29231W        W45040   5.802  10.233  11.868 -0.0887 -0.2471 -0.1125
29232W        W45041  15.967  13.159   2.024 -0.2983  0.0046  0.1230
29233W        W45042  14.605  12.973  14.849  0.0041 -0.1791  0.0123
29234W        W45043   9.183   4.464   2.815 -0.2176  0.0007 -0.0685
29235W        W45044  14.977  15.428   2.834 -0.0205  0.1039 -0.0073
29236W        W45045   1.090  11.316   4.258  0.1127 -0.1429  0.1707
29237W        W45046  16.528   0.724  12.559 -0.0076  0.1268 -0.0998
29238W        W45047  11.791   9.893  14.062 -0.1442  0.4061  0.1522
29239W        W45048  12.083  14.531   0.648 -0.2013  0.0635  0.0128
29240W        W45049  12.958   7.964   0.915 -0.1498  0.3368  0.0246
29241W        W45050   6.884  12.931  15.311 -0.0643 -0.1290  0.2271
29242W        W45051   4.111  12.377  13.170 -0.0715 -0.1841  0.0972
29243W        W45052   3.034   2.543   1.102  0.1710  0.0532 -0.3701
29244W        W45053   4.543  14.479   2.528 -0.2369 -0.0249  0.1738
29245W        W45054  12.314   1.429  12.386  0.1705 -0.2882  0.2141
29246W        W45055   2.507   1.546  15.035 -0.3667  0.1509 -0.1291
29247W        W45056   4.975   5.209  13.571 -0.2279  0.0907  0.0857
29248W        W45057   5.203   6.685  13.759 -0.0280  0.0218 -0.1746
29249W        W45058  14.987   5.231   3.030 -0.0721 -0.2584 -0.0019
29250W        W45059  16.564   1.308  16.556 -0.1091  0.2098 -0.1052
29251W        W45060   7.575   6.855   4.421  0.1269 -0.2592 -0.1986
29252W        W45061  14.753   7.441  12.299  0.2065 -0.0791 -0.1536
29253W        W45062  11.241  12.172   2.114  0.0253  0.1523  0.0126
29254W        W45063   8.370   3.438   4.742  0.3020 -0.0361  0.4468
29255W        W45064   0.098   7.650  12.079 -0.3693 -0.3216 -0.0323
29256W        W45065  13.388   8.079   5.250 -0.1619 -0.0356  0.1823
29257W        W45066   8.513   6.166   5.566 -0.1155 -0.0441 -0.1660
29258W        W45067  11.094  14.784  14.182  0.1995 -0.0144 -0.1410
29259W        W45068   8.041   9.814   4.099  0.2022  0.0019 -0.0822
29260W        W45069   7.617  12.441  15.085 -0.0331  0.0889 -0.0003
29261W        W45070  14.931  15.058   1.967 -0.1203 -0.2641  0.0453
29262W        W45071  12.588  16.093   0.100 -0.0067  0.2800 -0.0019
29263W        W45072   3.242  16.976  14.126 -0.0626 -0.0588 -0.3687
29264W        W45073  16.567   3.947  12.786  0.1972 -0.2266  0.1714
29265W        W45074   4.881   6.708  12.447  0.2127  0.1659 -0.1638
29266W        W45075  17.304   9.860  16.023  0.0484  0.1026 -0.0149
29267W        W45076  14.717   3.446   1.138  0.1821  0.0213  0.0817
29268W        W45077  11.738   4.262   1.150  0.0431  0.3768 -0.1738
29269W        W45078   9.775   1.844   0.347  0.0400  0.1011  0.0528
29270W        W45079   4.189  10.277   3.610  0.0260 -0.1112 -0.1868
29271W        W45080  10.139  12.389   1.382 -0.2541 -0.0501  0.0328
29272W        W45081  12.813   8.474   2.220  0.2005  0.3977  0.3688
29273W        W45082  12.156   2.492  13.967 -0.1513 -0.1855  0.0350
29274W        W45083  11.998   9.879  14.594  0.0234  0.2212  0.0932
29275W        W45084   0.258   8.065  13.885  0.1458 -0.1916  0.2572
29276W        W45085   3.567   0.413   4.820 -0.0842 -0.1021  0.4658
29277W        W45086  14.955   9.392   1.979  0.1301  0.1997 -0.0748
29278W        W45087  14.772   8.552   4.818  0.0778 -0.1267  0.0702
29279W        W45088  11.012  15.983  14.813  0.0630 -0.0117 -0.1956
29280W        W45089   0.092  10.961   5.113  0.0276  0.1004 -0.1418
29281W        W45090   4.794  13.869  10.786  0.0757 -0.3687 -0.0924
29282W        W45091  10.685   6.502   5.519 -0.0247 -0.1217  0.1724
29283W        W45092   1.864   6.132  15.528  0.3172 -0.1048 -0.0520
29284W        W45093  15.951  16.575   5.865  0.1001  0.0065  0.1939
29285W        W45094   3.542   6.286  11.674  0.1209 -0.0597  0.0588
29286W        W45095   6.214   4.222  13.292 -0.1888  0.0728  0.2262
29287W        W45096   3.166   0.216   4.067 -0.0133 -0.2477  0.0666
29288W        W45097   0.768  10.847  14.165 -0.3378  0.0378  0.1290
29289W        W45098  16.058  14.336   1.983  0.2029  0.1207  0.1166
29290W        W45099   1.998  11.502  15.328 -0.1196  0.1495 -0.1195
29291W        W45100   9.197  12.113   2.998 -0.0889 -0.2552 -0.1758
29292W        W45101  13.373  12.823  12.718  0.0106 -0.2054 -0.1847
29293W        W45102   3.719  16.295   5.405  0.1505  0.1065  0.1976
29294W        W45103   5.016  13.517  11.668  0.1750 -0.2874 -0.1177
29295W        W45104   2.652  10.857   4.710  0.0407  0.1728  0.0471
29296W        W45105   6.715   6.489  13.883 -0.1314 -0.3764  0.0058
29297W        W45106   0.469   7.485   4.523  0.1274  0.0251  0.0112
29298W        W45107  10.929  13.707   1.534  0.6200  0.1236  0.2443
29299W        W45108   6.023  12.777  13.120  0.2123 -0.1626  0.1738
29300W        W45109  16.806   7.323   0.846 -0.0324  0.0583  0.1765
29301W        W45110   2.092  14.077   1.248  0.0807 -0.1095  0.0933
29302W        W45111   2.411   4.854   5.468  0.3517  0.2886  0.1136
29303W        W45112   5.303  17.423   3.366  0.0200  0.4084 -0.2790
29304W        W45113  15.913   6.157  13.810 -0.2184 -0.0250  0.0206
29305W        W45114   1.289  16.889  13.544 -0.1720 -0.2056  0.0893
29306W        W45115   1.086  12.425   5.095  0.1660  0.0046  0.0014
29307W        W45116   8.996   3.832   2.192 -0.2238  0.3642  0.1699
29308W        W45117  17.902   0.057   3.045  0.1761 -0.0489  0.1545
29309W        W45118   2.700   4.829   1.922 -0.1126  0.0780 -0.3881
29310W        W45119   3.993   6.789  14.655  0.2305  0.1456  0.0109
29311W        W45120   2.742  16.500  11.607 -0.1805  0.0652 -0.0085
29312W        W45121   2.631   7.412   3.175  0.2155  0.1037  0.2534
29313W        W45122   2.504  12.176  10.987  0.1503 -0.0641  0.0039
29314W        W45123   5.569  12.641  16.178 -0.0018  0.0898 -0.0458
29315W        W45124  12.536  16.630   1.771 -0.1593 -0.1549 -0.3691
29316W        W45125   2.588  11.832   3.184  0.4222  0.0738 -0.3737
29317W        W45126  11.215   1.749   3.779  0.1521 -0.1062 -0.0025
29318W        W45127   3.228  16.661  13.696  0.0567  0.0113  0.0053
29319W        W45128   0.790  15.673   5.627 -0.2255 -0.0035 -0.1046
29320W        W45129  13.761   1.121  16.209 -0.2405  0.1339 -0.2300
29321W        W45130   9.880  13.392  11.186 -0.2052  0.0285  0.1683
29322W        W45131  12.605   3.745   6.254  0.0206 -0.2428  0.0340
29323W        W45132   2.357  13.072  13.571  0.2824  0.0796 -0.1889
29324W        W45133   6.573  14.238  11.749  0.0225  0.0531 -0.0203
29325W        W45134   7.950   3.293  14.577 -0.0411  0.0784 -0.1451
29326W        W45135  14.138   4.767   4.812 -0.1252 -0.0292 -0.1268
29327W        W45136   1.782   4.674   1.327  0.0745  0.0173  0.2703
29328W        W45137   0.999   0.204   1.029 -0.2479 -0.0236  0.4414
29329W        W45138   1.987   3.360  16.200  0.1948  0.1303  0.2018
29330W        W45139  17.832   4.167  11.799 -0.2773 -0.2304  0.2749
29331W        W45140  16.040  15.245   1.826  0.1583  0.0580  0.3045
29332W        W45141  15.184   8.372  15.852  0.2870 -0.2197 -0.2965
29333W        W45142   4.620   6.808  14.984 -0.2638  0.1368 -0.2626
29334W        W45143   6.593  15.951   5.143  0.1129 -0.0627  0.1372
29335W        W45144  17.549  11.019   0.960 -0.0663  0.2143  0.2696
29336W        W45145   5.189  15.858   2.736 -0.1671  0.2397  0.4184
29337W        W45146   8.013  10.152  15.755  0.1447 -0.3177 -0.0661
29338W        W45147  13.334   9.451   0.754 -0.0357 -0.2168 -0.2046
29339W        W45148  13.829  10.060  15.042  0.1156  0.0326 -0.2059
29340W        W45149   6.828   4.832  13.797  0.1789 -0.2556  0.1384
29341W        W45150   4.946   0.568  13.610  0.2776 -0.0380 -0.0059
29342W        W45151   8.870  10.331  13.143  0.2991  0.1518  0.0150
29343W        W45152   0.920  11.943   3.132  0.1045  0.0659 -0.1949
29344W        W45153  13.345   5.218  13.464 -0.2815  0.1949  0.2981
29345W        W45154   7.337  17.752  13.797 -0.0364  0.0800  0.1179
29346W        W45155   3.734  16.916  12.845 -0.3701  0.2432  0.0103
29347W        W45156   7.765  10.101  12.871  0.0015  0.0769 -0.1908
29348W        W45157  12.729   7.471  16.314  0.1602  0.1440 -0.0362
29349W        W45158  17.660   7.980   4.150 -0.2323  0.2773 -0.1258
29350W        W45159   4.606   1.798  13.229  0.3331 -0.1541  0.0545
29351W        W45160  15.916  12.565   1.840  0.0417 -0.0897 -0.2197
29352W        W45161  17.319  14.687   3.886 -0.0308  0.0091  0.0251
29353W        W45162   8.662  12.556  16.502  0.1397 -0.0548 -0.0101
29354W        W45163  16.468   5.564  15.210  0.2380 -0.1027  0.0594
29355W        W45164   2.876   6.021   4.641 -0.0615 -0.0671  0.0073
29356W        W45165  17.065   6.668  11.199  0.1495  0.1381 -0.1223
29357W        W45166   3.334  16.713  14.581  0.0423  0.0858  0.1946
29358W        W45167   2.936   7.704   5.594  0.0310 -0.1806  0.2646
29359W        W45168   3.397  17.616  13.819 -0.2729  0.0307  0.1040
29360W        W45169  11.819   7.345  14.183 -0.0765  0.2750 -0.3142
29361W        W45170  15.427   3.656  13.281 -0.1266  0.0100 -0.1609
29362W        W45171   7.116   9.435  16.030 -0.1428 -0.0621 -0.3574
29363W        W45172  10.736  12.273  12.498  0.1525  0.0603 -0.2010
29364W        W45173   5.648   0.541   3.162  0.2386 -0.1640 -0.1709
29365W        W45174   9.372  16.432  12.504  0.1300 -0.3991 -0.0629
29366W        W45175  17.406   2.966   5.877  0.3852  0.2826  0.0040
29367W        W45176   5.465  17.440  12.944  0.0148 -0.3711 -0.2570
29368W        W45177   0.372   0.428  14.934 -0.3265 -0.2072  0.2276
29369W        W45178   3.747  15.470   2.600  0.2012  0.0351  0.0207
29370W        W45179  16.927   3.384  13.893 -0.0782 -0.2436 -0.1074
29371W        W45180   1.887  17.887  11.170  0.0662 -0.2000  0.0937
29372W        W45181  15.241   8.186   1.757  0.2165 -0.0183 -0.2847
29373W        W45182  12.725   1.283   3.218 -0.0784  0.1259  0.0367
29374W        W45183  17.241   9.833   4.802 -0.1483 -0.3240  0.0398
29375W        W45184   0.703   1.142  13.063  0.0568  0.0095 -0.1126
29376W        W45185   4.291   0.938  12.038 -0.0168 -0.2185 -0.0246
29377W        W45186   5.717   9.360  11.422 -0.0372  0.0229  0.1477
29378W        W45187  11.268   8.411   4.257  0.0937 -0.1068 -0.3291
29379W        W45188   9.389  17.627  14.852  0.0935  0.1293  0.0153
29380W        W45189  14.078   4.497   0.516 -0.0794 -0.0043  0.1739
29381W        W45190  17.189   4.934   1.710  0.1108  0.1909 -0.0200
29382W        W45191   1.481   9.645  11.033  0.1395 -0.1193  0.2630
29383W        W45192  17.811   5.975   1.694 -0.1960  0.2659 -0.0785
29384W        W45193  15.051  10.133  13.085  0.0614 -0.0961 -0.0139
29385W        W45194  13.727  14.822   5.192 -0.0376  0.2112 -0.1420
29386W        W45195   5.356   3.755  11.290 -0.2099  0.1722 -0.0460
29387W        W45196   1.913   7.574  16.559 -0.1070 -0.0608  0.0648
29388W        W45197   9.247   4.942   6.390  0.0572  0.0737 -0.1767
29389W        W45198   5.289   8.878  10.960  0.1323  0.0681  0.3243
29390W        W45199  15.486   7.931   4.353  0.2241 -0.1080 -0.0107
29391W        W45200   7.222   2.425   0.857  0.2287  0.0356 -0.2165
29392W        W45201  12.575   4.595  11.755  0.0623  0.1938  0.1752
29393W        W45202  15.865   5.786   6.323  0.2564 -0.0190  0.0305
29394W        W45203  15.972  12.314  16.694 -0.0081 -0.2936  0.2113
29395W        W45204   5.604  12.010  14.229  0.3448  0.2587 -0.2714
29396W        W45205  10.146  10.163   5.819  0.0064  0.0758 -0.2178
29397W        W45206  13.107   8.121   1.493  0.3632 -0.3838 -0.1449
29398W        W45207   3.161  11.689  11.206  0.0820  0.0557  0.2906
29399W        W45208   4.084   0.472   4.825  0.2900  0.0489 -0.1298
29400W        W45209   7.224  11.868   4.733  0.3251 -0.3096 -0.1295
29401W        W45210   1.178   7.100   1.126 -0.1173  0.3815  0.1029
29402W        W45211   9.278   8.195  14.638 -0.0054 -0.4425  0.4390
29403W        W45212  12.335   1.394  13.931  0.0823  0.0876  0.1200
29404W        W45213   5.366   5.632  15.205  0.0321 -0.0356 -0.0416
29405W        W45214  17.312  15.804   0.360 -0.0326 -0.0125  0.1903
29406W        W45215  17.037  12.506  16.310  0.3790  0.3142  0.1834
29407W        W45216  17.813  16.246  13.076  0.2570  0.0274  0.1883
29408W        W45217  17.282   3.839   2.722 -0.1180  0.0473  0.2081
29409W        W45218  17.840   9.768   5.977 -0.1798  0.0091 -0.1097
29410W        W45219  11.597  16.147  13.100  0.0145 -0.0032 -0.2446
29411W        W45220  15.996   0.220  16.318 -0.1986 -0.3018  0.0248
29412W        W45221  10.653  10.407  14.764  0.0807  0.2893  0.1591
29413W        W45222  15.111   6.587   0.345 -0.3469 -0.1711  0.1840
29414W        W45223   3.299  16.711   2.051 -0.0722 -0.2679 -0.1170
29415W        W45224  15.799   7.094  12.698 -0.0864  0.3032  0.0134
29416W        W45225   8.971  16.157   0.705 -0.0926  0.2657  0.0812
29417W        W45226   4.544  17.113   2.357  0.0566  0.2022 -0.3429
29418W        W45227   5.335  17.089   5.363 -0.4451  0.2677 -0.1636
29419W        W45228   0.120   0.559   2.680  0.1221  0.2547 -0.3475
29420W        W45229   3.143   5.213  14.624  0.1986  0.1994  0.1417
29421W        W45230   4.640  16.399   1.699 -0.0591 -0.2431 -0.1030
29422W        W45231  16.184  14.002  14.973 -0.0085  0.1753  0.1125
29423W        W45232  15.318  17.393   2.438  0.0855  0.2297 -0.1491
29424W        W45233   1.547   8.587  15.629 -0.2047  0.0571  0.0372
29425W        W45234  10.834   5.349   0.097 -0.0147  0.0015  0.3493
29426W        W45235  17.214   2.013  16.221 -0.1103  0.0598 -0.0100
29427W        W45236   7.060   5.653  14.834 -0.0782 -0.2778 -0.0859
29428W        W45237   1.708  15.898   4.647  0.2514  0.1666  0.0226
29429W        W45238  17.537  15.567   1.648  0.2639 -0.0868 -0.1484
29430W        W45239  15.149   2.274  12.209  0.0757  0.2022 -0.1136
29431W        W45240   0.975   9.992   1.399  0.1867  0.1663 -0.0236
29432W        W45241   9.768   7.845  15.293  0.0107 -0.0319 -0.2635
29433W        W45242  17.789   7.924  13.542 -0.2296 -0.0508  0.3750
29434W        W45243  14.987  17.592   3.768 -0.0834 -0.2229 -0.2138
29435W        W45244   6.508   7.424  13.958  0.2211  0.0803 -0.1520
29436W        W45245   2.197   6.981  10.820 -0.0066 -0.4597 -0.0159
29437W        W45246   2.849   8.447   2.310 -0.0603 -0.0616  0.0954
29438W        W45247   7.860   8.143   4.434 -0.2660 -0.1950  0.4681
29439W        W45248   1.967  11.410   5.101  0.2155  0.0525  0.1319
29440W        W45249  15.286   5.505  11.252  0.1972 -0.1226 -0.0748
29441W        W45250  16.793   7.068  11.375  0.0061  0.1599 -0.0529
29442W        W45251  12.087   0.990   5.477  0.1072  0.0392 -0.2218
29443W        W45252   1.401  13.317   0.207  0.1928 -0.1697  0.1190
29444W        W45253   8.307   7.489  11.497 -0.0563 -0.1789  0.1400
29445W        W45254   8.531  10.719   3.903 -0.1569  0.1537 -0.0888
29446W        W45255  17.717  16.771  13.934  0.2725  0.1987 -0.2558
29447W        W45256   3.370   2.460  11.952  0.0445  0.0969 -0.0705
29448W        W45257   5.270  11.982  15.698  0.1095 -0.2106  0.0652
29449W        W45258  14.965   0.526   3.600  0.0900  0.0190 -0.0879
29450W        W45259   7.787   6.896  14.522  0.0027  0.0135 -0.1619
29451W        W45260  15.938   2.891  15.526 -0.2452 -0.1038 -0.0047
29452W        W45261  10.158   7.639   6.551  0.0524  0.1660 -0.0314
29453W        W45262   8.576   7.415   0.468  0.1712  0.0798  0.1907
29454W        W45263   3.511  14.290  13.769 -0.0919 -0.1996  0.1029
29455W        W45264  12.043   8.146   2.516  0.1619  0.0677 -0.0446
29456W        W45265  12.867  11.156   6.394 -0.1274  0.0677 -0.2272
29457W        W45266  14.183   2.667   3.408 -0.0284  0.0096  0.0528
29458W        W45267  11.081  11.695   2.923  0.2251  0.0084 -0.0980
29459W        W45268  17.898   5.714   3.138  0.0345 -0.0968  0.0946
29460W        W45269  11.550   6.960   0.468 -0.0375 -0.0060  0.4075
29461W        W45270  15.592  17.028  15.416 -0.0842 -0.0163  0.0895
29462W        W45271   8.835  17.649  15.608 -0.3491  0.1508  0.1670
29463W        W45272   6.936  17.934   3.445  0.1706  0.1666  0.1341
29464W        W45273  10.657   8.819  12.189 -0.2731  0.1333 -0.0517
29465W        W45274  14.992  15.150   3.602  0.3934  0.1043 -0.1254
29466W        W45275   5.145   1.178   2.318 -0.2858  0.0345  0.1609
29467W        W45276  13.499  14.227  14.338 -0.1400 -0.0528  0.1793
29468W        W45277  16.200   7.847   2.745  0.0979  0.1618  0.1985
29469W        W45278   6.093   3.821  12.884  0.0452  0.1963  0.2643
29470W        W45279  10.675  15.465   3.252 -0.1622 -0.2280  0.4674
29471W        W45280   4.560  14.747  11.904 -0.2969 -0.1436 -0.0713
29472W        W45281   3.445   8.116   1.978 -0.0105  0.2585  0.0974
29473W        W45282   3.319   3.017   1.184 -0.0385 -0.1287 -0.4357
29474W        W45283   7.882   3.295  12.956 -0.1843 -0.0150  0.2694
29475W        W45284   8.789   8.692   6.516 -0.1754 -0.0987 -0.0939
29476W        W45285  17.076   8.077  11.924  0.2060 -0.0124 -0.0837
29477W        W45286   1.787   3.494   1.830  0.1355  0.0800  0.3554
29478W        W45287  12.774  17.705  11.671 -0.0244  0.0121  0.0569
29479W        W45288   8.262  12.528   0.140  0.3483  0.1631 -0.3286
29480W        W45289   4.112  16.155   0.292  0.1287  0.1300  0.0425
29481W        W45290   6.396   4.101  13.752 -0.0203 -0.0700  0.1564
29482W        W45291  14.490   4.448   3.433 -0.1824  0.0960  0.0207
29483W        W45292  14.875   7.377  14.161  0.4703  0.0030  0.4049
29484W        W45293   6.651   8.833  13.316  0.0970 -0.1014  0.1156
29485W        W45294  12.551   2.412   4.183  0.0610 -0.1099 -0.1209
29486W        W45295  12.918   9.191   5.493 -0.2471 -0.1592 -0.0213
29487W        W45296   1.198   6.339   1.808  0.0328 -0.2381 -0.0061
29488W        W45297  14.821  17.585  16.580  0.0874  0.0724  0.0040
29489W        W45298   1.786   0.276  16.588 -0.2038 -0.0193  0.1854
29490W        W45299  11.643  10.504   0.600  0.2794 -0.1624 -0.0063
29491W        W45300   1.402  16.441  11.999 -0.0315  0.2475  0.1994
29492W        W45301  12.823   1.442  16.475 -0.0042  0.1688  0.3813
29493W        W45302   8.080   0.994  13.545  0.1669 -0.0827  0.1311
29494W        W45303   7.213  10.807   0.461 -0.0178 -0.1238 -0.1537
29495W        W45304  16.632  11.368   1.233 -0.1732  0.1526  0.2335
29496W        W45305  15.888   3.009   1.513  0.1980  0.2631 -0.2217
29497W        W45306  13.258  16.057  13.675  0.3711  0.2675 -0.1875
29498W        W45307   5.241  16.981  13.885 -0.0375 -0.1134 -0.0558
29499W        W45308   3.289   3.233   0.623  0.0292 -0.2967 -0.0515
29500W        W45309  17.159  15.366   0.562 -0.1838  0.2612 -0.0839
29501W        W45310  13.761   1.507  12.434 -0.0959 -0.0818 -0.0685
29502W        W45311   8.265  14.213   1.394  0.0398  0.1117 -0.0498
29503W        W45312   5.153   5.679   2.654 -0.4937 -0.3360  0.1270
29504W        W45313   9.576   3.140   5.447 -0.0195  0.2130  0.0102
29505W        W45314  10.078   9.446   5.396  0.1369  0.3897  0.0650
29506W        W45315  12.883   8.073  10.834 -0.0125 -0.0923 -0.1343
29507W        W45316  11.085   3.024   5.282  0.0176 -0.0266 -0.2999
29508W        W45317  12.744  17.431   3.843 -0.0766 -0.0823  0.0558
29509W        W45318  10.201   0.376   2.209  0.1470 -0.0846  0.3721
29510W        W45319   3.118   7.499   1.866 -0.0445 -0.1368  0.1273
29511W        W45320  13.500   5.337   3.199  0.0918 -0.0989 -0.0993
29512W        W45321   5.729  12.577  13.798 -0.0951 -0.1563 -0.0549
29513W        W45322   5.752   5.019   5.740 -0.3218 -0.0306  0.0567
29514W        W45323  11.368   6.642   4.225 -0.0429  0.2655 -0.1134
29515W        W45324  14.603  14.563   0.977 -0.1486 -0.1586 -0.2406
29516W        W45325   9.182   0.417   3.075  0.1695 -0.2315 -0.1232
29517W        W45326   3.903   4.002  15.184 -0.1848  0.2432  0.0937
29518W        W45327  11.911  16.829   1.561 -0.0762  0.2385 -0.3265
29519W        W45328  15.925   7.134   4.565 -0.0792 -0.2676 -0.0848
29520W        W45329  11.646  14.184  13.263  0.1750  0.0141 -0.0222
29521W        W45330   0.467   4.982  16.207 -0.0148  0.1595  0.0134
29522W        W45331  12.175   6.536   6.256  0.2166  0.0103 -0.2162
29523W        W45332  17.827  17.633   4.205  0.1040  0.1077 -0.2190
29524W        W45333   6.927   7.046   1.379  0.0768 -0.1937  0.2071
29525W        W45334   8.607  14.307   0.609  0.0922  0.2232 -0.2282
29526W        W45335  10.596  13.830   5.678  0.0068  0.0719  0.4400
29527W        W45336   4.518   1.208   4.200 -0.0813  0.4288 -0.0191
29528W        W45337  12.866   2.887   5.024  0.2326  0.0759  0.2593
29529W        W45338   9.451  16.862  14.012 -0.0204  0.2520  0.0431
29530W        W45339   6.358   1.943  16.116 -0.0338  0.2607 -0.3159
29531W        W45340  17.215  16.145  14.121 -0.2249  0.1515 -0.0082
29532W        W45341  12.935  10.261   0.497  0.1960 -0.0794  0.0876
29533W        W45342  17.124   4.723  10.845  0.1766  0.1487 -0.1781
29534W        W45343  12.406  15.244   4.018 -0.1199  0.0202 -0.0683
29535W        W45344   1.532   7.930  14.578 -0.0372 -0.3274 -0.1052
29536W        W45345   7.525  16.445  15.002 -0.0863 -0.0026  0.0568
29537W        W45346  10.187   0.134   5.235 -0.0193  0.0556  0.0157
29538W        W45347   3.957  12.010   2.768 -0.0378 -0.2032  0.0010
29539W        W45348   3.639  11.451   3.314 -0.0634 -0.1661 -0.2091
29540W        W45349  15.089   1.793  16.167 -0.0462  0.0430 -0.0589
29541W        W45350   2.378  16.051   2.756  0.0728  0.0535  0.1669
29542W        W45351  10.656   2.208   2.932 -0.2176  0.0277  0.1232
29543W        W45352  16.219   3.242  12.074 -0.0218 -0.2498 -0.1321
29544W        W45353  13.678   9.446   4.637 -0.0282  0.1353 -0.0318
29545W        W45354   7.964  11.249   0.393 -0.0236  0.0082 -0.4465
29546W        W45355   4.676   2.668   0.167 -0.2603  0.2834  0.0944
29547W        W45356   3.724  12.463  16.577  0.0366 -0.1362 -0.1310
29548W        W45357  10.687   4.236   5.896  0.2072 -0.2436 -0.1539
29549W        W45358   4.035   2.979  15.823 -0.0370 -0.0368 -0.1525
29550W        W45359   6.847   7.300  13.002 -0.2295 -0.0917  0.2682
29551W        W45360  14.660  14.634   1.632  0.1219 -0.1187  0.0622
29552W        W45361   1.330  10.053  12.919  0.1521  0.1016 -0.1687
29553W        W45362   3.676  11.655   5.633  0.2907 -0.4333  0.1369
29554W        W45363   8.828   7.904  15.885 -0.0748 -0.0310 -0.1584
29555W        W45364   0.511   3.698   3.420 -0.3145  0.2270 -0.0600
29556W        W45365  12.164   1.085   4.924 -0.2161  0.2617 -0.1697
29557W        W45366   0.839  12.827   3.622 -0.0971  0.2365 -0.1088
29558W        W45367   4.756  11.020   2.044 -0.2092  0.0712 -0.0290
29559W        W45368   4.360  11.245   2.293 -0.3024  0.0702 -0.0582
29560W        W45369   0.053  11.242   2.158 -0.0285 -0.1227 -0.1682
29561W        W45370  13.835  16.009  14.486  0.4413 -0.1550  0.0149
29562W        W45371  16.782   2.338  14.573 -0.0126 -0.1719  0.1735
29563W        W45372   9.577  13.013   3.252 -0.2051 -0.0523 -0.1018
29564W        W45373  15.804  11.297   0.167 -0.0102  0.0296  0.0112
29565W        W45374  14.646   4.757  13.778  0.0659 -0.0018 -0.2316
29566W        W45375   9.355  11.820   3.881  0.0406 -0.2721 -0.0067
29567W        W45376   8.640   8.050  16.401 -0.2314  0.1961 -0.0002
29568W        W45377  15.750   7.344   6.564  0.0816 -0.1433 -0.3422
29569W        W45378   8.405  15.607   0.234 -0.0710 -0.2244 -0.1881
29570W        W45379   5.510   1.419  12.955 -0.3111 -0.0636  0.2769
29571W        W45380   5.318  11.312   0.796  0.2287  0.0978  0.0981
29572W        W45381   4.823   2.160   2.995 -0.1013  0.0494  0.0849
29573W        W45382   6.207   1.533   3.070  0.1861 -0.1583  0.0298
29574W        W45383   5.812   7.784   2.636  0.2682  0.0114 -0.2318
29575W        W45384   4.548  11.758  12.612  0.2620 -0.0387 -0.0236
29576W        W45385   4.115   4.914   3.276 -0.0242 -0.2511  0.1818
29577W        W45386   5.176   9.749  11.419  0.0529 -0.1766 -0.1997
29578W        W45387  15.268   8.320   1.285 -0.1549  0.0668 -0.1026
29579W        W45388   6.042   7.484  11.628 -0.1043  0.1120 -0.0077
29580W        W45389   6.062   5.690  14.799 -0.3359 -0.2027  0.2672
29581W        W45390   0.662  14.755   3.974 -0.2457  0.0310  0.1255
29582W        W45391   6.020   6.348   1.292 -0.0133  0.0575 -0.0393
29583W        W45392   4.629   8.074   0.668  0.2499 -0.0251 -0.3365
29584W        W45393  12.949   0.076   2.149 -0.2312  0.0354 -0.0485
29585W        W45394   0.620   5.198   4.423 -0.0132  0.0271 -0.0374
29586W        W45395   4.522   1.474  12.198  0.0370 -0.0235  0.1579
29587W        W45396  11.408  17.354   3.021 -0.0194 -0.1250 -0.1480
29588W        W45397   1.660  14.375   2.465 -0.0547  0.0623  0.2023
29589W        W45398   7.491   8.074  12.510  0.0299 -0.0497 -0.2433
29590W        W45399   3.957  13.006  15.409 -0.1027 -0.1865 -0.0645
29591W        W45400   9.068   6.121  13.023  0.1713  0.2441 -0.0854
29592W        W45401   9.799   0.492  14.288 -0.0387  0.0009  0.0659
29593W        W45402  12.887   4.901   1.776 -0.0209 -0.0284  0.2624
29594W        W45403  12.546   4.502  15.942  0.1232 -0.0681 -0.2035
29595W        W45404  17.912  13.186  13.693 -0.0561  0.1148 -0.1382
29596W        W45405  12.767  16.696   5.961  0.1859 -0.0602 -0.0222
29597W        W45406   0.352  11.788   0.958 -0.2398 -0.2039 -0.0084
29598W        W45407  13.785   7.348   3.017 -0.0486 -0.0925 -0.1881
29599W        W45408  10.215   8.518  12.159  0.0183  0.3433  0.1699
29600W        W45409   8.095   9.332  12.597 -0.2672  0.1073  0.1852
29601W        W45410   9.134   6.952  14.213  0.0161  0.2118 -0.1087
29602W        W45411  17.640  13.539  13.956  0.3472  0.1727  0.1902
29603W        W45412  15.162  14.150  15.434  0.0246 -0.0319  0.1786
29604W        W45413  13.241   3.098   5.781 -0.1865 -0.0018 -0.4041
29605W        W45414   0.915   6.251   1.429  0.0076 -0.1187  0.3123
29606W        W45415   3.326  17.137   2.417  0.1795  0.0198  0.1791
29607W        W45416   3.762  11.139   2.944 -0.1292 -0.0159  0.0021
29608W        W45417  13.233   6.989   0.126  0.0964 -0.1154  0.2094
29609W        W45418  10.583   5.526   4.070 -0.5511 -0.0302  0.0822
29610W        W45419   7.706   4.885   4.003 -0.1035 -0.1811 -0.1747
29611W        W45420  12.550  10.035   5.839  0.1206 -0.0441  0.2088
29612W        W45421  15.255  14.229  11.907  0.2044  0.0254  0.4257
29613W        W45422  14.733   1.642   5.685 -0.3323  0.1625 -0.3570
29614W        W45423   4.237  16.495   4.800 -0.3494 -0.0387  0.3431
29615W        W45424  12.417   7.870  16.126  0.0318  0.1883  0.1676
29616W        W45425  15.097  15.429  12.107 -0.0323  0.0575 -0.1923
29617W        W45426  16.379   1.835   5.585 -0.2206  0.2898  0.1640
29618W        W45427   7.361   3.474  16.098  0.0778  0.1211 -0.2056
29619W        W45428   7.191   3.040   5.320  0.0694 -0.4075  0.0088
29620W        W45429  14.566  11.259   1.691 -0.1894  0.1415 -0.1222
29621W        W45430  16.104  16.059   5.760 -0.2375 -0.2775  0.0049
29622W        W45431   0.059   9.215   4.414  0.2059  0.2162  0.3583
29623W        W45432  10.963   8.757  15.489 -0.2058 -0.0574  0.0325
29624W        W45433   0.137  13.343   1.852 -0.0556  0.0350  0.0622
29625W        W45434   3.741  11.950  14.956  0.0136 -0.2465  0.1207
29626W        W45435  10.056  15.304  13.350  0.2174 -0.1767  0.1976
29627W        W45436  14.126  12.322   1.492 -0.2833  0.0448 -0.0197
29628W        W45437   2.247   7.081   1.845  0.0065 -0.1466  0.1785
29629W        W45438  10.335   1.376   0.984  0.0438  0.1477 -0.1692
29630W        W45439   6.021  16.351  14.095 -0.2315 -0.3160 -0.2308
29631W        W45440   2.796  16.328   1.449 -0.2412 -0.0840 -0.1770
29632W        W45441   0.777   3.379  11.357  0.2032  0.2119 -0.1845
29633W        W45442   7.324   7.489   0.641 -0.1568 -0.1936 -0.3458
29634W        W45443  13.276  15.760  12.261 -0.1335  0.0821 -0.0039
29635W        W45444   4.705  12.088   2.443  0.0315 -0.0305 -0.1410
29636W        W45445  15.500  11.613   0.848 -0.0618  0.1349 -0.0077
29637W        W45446   4.226   2.661   5.242  0.0955  0.1686 -0.0442
29638W        W45447   4.446   6.540  12.173 -0.0051 -0.0466  0.1644
29639W        W45448  12.179   6.215   3.693  0.1411 -0.2795 -0.0855
29640W        W45449   4.652  10.893  13.954 -0.1271  0.0454  0.0981
29641W        W45450   1.135   6.073  11.840 -0.1603  0.2082 -0.1104
29642W        W45451   2.563  15.596   6.125  0.1281  0.0911 -0.1877
29643W        W45452  13.379  17.727   3.597 -0.0149  0.0776 -0.0095
29644W        W45453  14.301   0.518   0.898 -0.0956 -0.2787 -0.3520
29645W        W45454  16.814   9.665  16.660 -0.1346  0.0712  0.0220
29646W        W45455   0.528  15.561   1.867 -0.0678 -0.1123 -0.0479
29647W        W45456  12.074  10.933  15.787  0.1213  0.1473 -0.1258
29648W        W45457  10.064  16.585  14.564  0.0379 -0.0095  0.1637
29649W        W45458   3.479  15.328   6.041 -0.2294 -0.1676 -0.1147
29650W        W45459   3.231   1.930  15.341  0.1560  0.0102  0.0422
29651W        W45460   2.768  14.745  15.817  0.0316  0.0782  0.0048
29652W        W45461   0.009  14.091   1.696  0.1546 -0.1722 -0.1428
29653W        W45462  11.471  10.015   3.850  0.1326  0.1086 -0.4222
29654W        W45463  16.655   7.756   0.668  0.0304  0.3521  0.2199
29655W        W45464   2.608  17.557  14.467  0.1922 -0.3173  0.2695
29656W        W45465  17.295  10.381  15.940  0.0958  0.0111  0.1598
29657W        W45466   2.491   9.876   0.827 -0.1119 -0.1221 -0.2767
29658W        W45467  12.639   2.718   3.746 -0.0682  0.1554  0.2153
29659W        W45468   5.893   1.159  14.475 -0.1351  0.1112  0.1308
29660W        W45469  15.960  14.159   5.273  0.1054  0.3297  0.0784
29661W        W45470  17.515   9.158  11.414  0.1296  0.0118  0.0599
29662W        W45471   5.415  12.386   3.138 -0.1391  0.1342  0.0392
29663W        W45472   2.329  15.727   1.892 -0.1491  0.2625 -0.0042
29664W        W45473  12.819   1.301   4.095  0.0715 -0.0502  0.0528
29665W        W45474  11.116   0.129   2.983 -0.2267 -0.1966 -0.0030
29666W        W45475   5.013  16.463  15.972 -0.1735 -0.0822  0.0622
29667W        W45476   0.591  12.938   0.490  0.1663  0.1610  0.0462
29668W        W45477  17.221  17.117   0.303  0.2032 -0.0440  0.3485
29669W        W45478  15.857  15.086   2.887 -0.0275  0.1690  0.1994
29670W        W45479  14.829  15.576  15.219 -0.0897  0.0116 -0.2599
29671W        W45480   7.799   2.924   2.081  0.0275 -0.4429  0.0807
29672W        W45481   3.591   3.493   5.283  0.0550  0.1298 -0.1164
29673W        W45482  16.183   4.111  11.724 -0.1655 -0.0044  0.2524
29674W        W45483   5.814   7.779   5.281  0.3449 -0.0817 -0.1753
29675W        W45484   2.125  10.084   3.977  0.0358 -0.0086  0.0875
29676W        W45485   6.516   5.302   1.874 -0.3701  0.0773  0.0799
29677W        W45486  13.297  11.990   0.976  0.0534  0.0933 -0.1103
29678W        W45487  16.671  14.310   2.291 -0.0134 -0.2103 -0.0003
29679W        W45488  16.376  12.915  16.603 -0.2198  0.3063  0.0997
29680W        W45489   8.035  10.827   1.845 -0.0205 -0.2614  0.1045
29681W        W45490  13.329   4.862   3.300 -0.0117 -0.1055 -0.0074
29682W        W45491  10.885  16.839  15.664  0.2407  0.2248  0.1422
29683W        W45492   9.494  13.687   5.797 -0.1065  0.2451  0.0130
29684W        W45493   7.655   8.835   2.966 -0.0155 -0.1288 -0.0402
29685W        W45494   9.965  10.365  15.930  0.2936  0.1406  0.1595
29686W        W45495   9.657  17.533  15.883  0.3714 -0.1440  0.0963
29687W        W45496  10.467   4.637   4.774  0.0100  0.3573 -0.1522
29688W        W45497   5.703  16.721  11.840  0.0421  0.1387  0.0293
29689W        W45498   8.564  14.962  12.461  0.1087 -0.0803  0.3892
29690W        W45499  12.087  13.003   3.465 -0.2282  0.0881  0.2590
29691W        W45500  13.594  17.822   1.186  0.0760  0.0841 -0.1497
29692W        W45501  13.570   4.437   3.436  0.0674  0.0395 -0.1693
29693W        W45502   4.486   9.049  11.922  0.2528  0.1378 -0.0775
29694W        W45503  10.729  17.159   4.154  0.3434 -0.2584 -0.1768
29695W        W45504   8.035   0.473  11.681 -0.1323  0.0050 -0.0038
29696W        W45505   9.832   7.685   2.883 -0.0852 -0.1107 -0.1489
29697W        W45506   9.391  11.427   0.892 -0.1890 -0.0320 -0.0382
29698W        W45507   8.761  15.811  12.246  0.2038 -0.1280 -0.2138
29699W        W45508  13.234   6.704   1.538  0.1728  0.1827 -0.0748
29700W        W45509   8.217  11.385  15.363  0.1111 -0.2001 -0.2076
29701W        W45510  15.907   4.687   1.529 -0.2325 -0.3634  0.1997
29702W        W45511   8.198   8.454  14.766  0.1621  0.0458 -0.0138
29703W        W45512   3.568  14.869  11.060  0.0475  0.1965  0.2658
29704W        W45513  13.295  17.841   5.600  0.1367 -0.0717  0.1191
29705W        W45514   6.760  16.175  11.638  0.0194 -0.0198 -0.2665
29706W        W45515  13.489  12.228   5.611  0.3667  0.3262  0.3765
29707W        W45516   6.079  12.487  12.291  0.0498 -0.1134  0.0982
29708W        W45517   4.482  15.085  16.198 -0.0125 -0.1107 -0.0627
29709W        W45518   2.419  10.600  12.692 -0.1684  0.1108  0.4862
29710W        W45519  10.715   9.668  15.305 -0.2884 -0.1162  0.2098
29711W        W45520   9.108  17.543   0.337 -0.0066 -0.2753 -0.4422
29712W        W45521   0.234   0.365  13.408 -0.0639  0.2045  0.0348
29713W        W45522   3.826  12.298   3.352  0.0848 -0.2037 -0.0734
29714W        W45523   1.491   0.325  15.458 -0.3984 -0.3246  0.1504
29715W        W45524  14.264   2.679  14.582  0.1497  0.3629 -0.4546
29716W        W45525   7.318  11.906  13.399 -0.0848  0.0575  0.3341
29717W        W45526  10.700  14.594   1.751  0.0540 -0.0123  0.0751
29718W        W45527  12.538  11.644  12.494 -0.0355  0.2429 -0.2259
29719W        W45528   3.697  15.884   2.887  0.4629  0.2388 -0.2480
29720W        W45529  15.812  12.049   4.819 -0.2042  0.0633 -0.3160
29721W        W45530  13.111   7.454   0.879  0.0560  0.1112 -0.1627
29722W        W45531   7.875  13.655   1.503 -0.1168  0.1770  0.1624
29723W        W45532   4.522  14.956   1.609  0.0757 -0.1812 -0.1246
29724W        W45533  17.559   9.612   1.810  0.0961 -0.1577 -0.2320
29725W        W45534   4.066   8.415  11.985  0.0197  0.2598  0.0626
29726W        W45535  11.766   3.673  13.226 -0.2464 -0.2973  0.2302
29727W        W45536   2.411   1.096  11.043  0.2417 -0.2031 -0.1057
29728W        W45537  12.506  16.590  14.757 -0.1265 -0.0943 -0.0482
29729W        W45538  17.825   5.696  15.243 -0.0792  0.1065  0.1913
29730W        W45539   9.577   4.921   5.973 -0.0357  0.3345 -0.0716
29731W        W45540   8.552  13.691   0.010 -0.0900  0.2621 -0.1917
29732W        W45541   8.082  14.445   0.277 -0.4346 -0.1629  0.0482
29733W        W45542  14.450  14.146   1.767 -0.1604 -0.0683  0.1834
29734W        W45543  14.062  11.692  12.702 -0.0958  0.0725  0.0049
29735W        W45544   4.321   4.583  16.704  0.2503 -0.2178  0.2550
29736W        W45545  16.491  10.626   2.527  0.0245  0.0243 -0.0283
29737W        W45546   7.411  11.779  12.042 -0.0278  0.0622 -0.0716
29738W        W45547  16.524  14.437  12.313 -0.1146  0.0539  0.2879
29739W        W45548  11.353   9.236  12.840  0.1202 -0.5222  0.0636
29740W        W45549   0.603   9.571  12.519  0.0614  0.1278 -0.3492
29741W        W45550  11.208  13.079  15.379 -0.0581  0.1368  0.0334
29742W        W45551   9.077   2.526   3.200 -0.1699  0.0642  0.0091
29743W        W45552   9.457  12.604  12.255  0.0054  0.0060 -0.2714
29744W        W45553  15.563   5.576   2.326  0.2723  0.2020 -0.1256
29745W        W45554  13.604   0.752   5.491 -0.4787  0.1070 -0.1767
29746W        W45555  12.658  13.522   3.050 -0.3054 -0.4612 -0.0778
29747W        W45556   8.452   7.107  16.304  0.2501  0.1290  0.0602
29748W        W45557  12.725   3.580   2.731 -0.0262  0.1030  0.0613
29749W        W45558   4.861  13.759   5.021 -0.1416  0.1266 -0.0600
29750W        W45559  17.169  15.613   5.804  0.4110  0.3775 -0.0824
29751W        W45560  16.395   9.648  14.045  0.1341 -0.0152  0.1070
29752W        W45561  10.241   3.803   0.852  0.0914  0.1072 -0.3646
29753W        W45562  17.367   9.742   0.737  0.0384  0.1968 -0.0049
29754W        W45563   4.084   6.969  16.235  0.2165 -0.2619 -0.0707
29755W        W45564   0.819   5.616  13.914 -0.0826  0.1105  0.0170
29756W        W45565  16.145   4.623  12.462  0.0891 -0.5181  0.1349
29757W        W45566  17.874  12.318   3.427  0.0756  0.1668 -0.1540
29758W        W45567   2.765  14.859  11.286 -0.1756 -0.3055 -0.0456
29759W        W45568  13.557   5.945   2.542 -0.0823  0.1356 -0.1859
29760W        W45569  12.676  14.841   2.288 -0.0741  0.1204 -0.3567
29761W        W45570   4.852   5.873   5.277 -0.0065  0.1208  0.2106
29762W        W45571  13.336  14.199  15.600  0.0930 -0.0968 -0.0508
29763W        W45572  14.781  15.141  15.611 -0.0479  0.0571 -0.0026
29764W        W45573  16.245   8.814  14.465  0.2850  0.3336 -0.0745
29765W        W45574   8.980   9.019   2.176 -0.3149 -0.1788 -0.1165
29766W        W45575   4.739   0.779  13.065  0.0501 -0.0875  0.0825
29767W        W45576   3.437   8.319  14.631 -0.0683  0.1170  0.2551
29768W        W45577  15.168  12.176  16.594  0.1639 -0.2971  0.0043
29769W        W45578   1.690  16.515   3.970 -0.2406  0.0591 -0.0254
29770W        W45579   5.152   9.174  14.023 -0.0358  0.0647  0.1999
29771W        W45580   1.523   0.524   3.473  0.0352  0.1772 -0.0630
29772W        W45581   6.183  15.889  16.033 -0.1496  0.0548  0.2003
29773W        W45582   3.945   0.670   2.300 -0.1385 -0.0317  0.0051
29774W        W45583   1.533  15.504   1.289  0.1880 -0.3699  0.1077
29775W        W45584  12.652   1.760  13.781  0.2472  0.0298  0.0131
29776W        W45585   4.509  17.470   4.014 -0.1606 -0.2005  0.1220
29777W        W45586  13.501   3.444  14.850 -0.1543 -0.0505 -0.3481
29778W        W45587   0.779   5.254   1.079  0.0480 -0.2979 -0.0818
29779W        W45588   8.448   1.820  15.961 -0.0620  0.1174 -0.0082
29780W        W45589   3.098  14.818   6.055 -0.2223 -0.0045 -0.1030
29781W        W45590  13.877   4.501  11.669 -0.3397  0.1073 -0.0052
29782W        W45591   4.524   4.038   5.382  0.0831  0.1747 -0.2300
29783W        W45592  15.900   8.681   2.545 -0.2244  0.0372  0.2246
29784W        W45593   8.526  14.172  16.644  0.1305  0.1934 -0.0936
29785W        W45594   3.863  16.042  14.161 -0.1054  0.1597 -0.0113
29786W        W45595   0.185  14.910  12.356 -0.0780  0.0057  0.0844
29787W        W45596  14.084  14.950  14.765  0.1770  0.3082  0.0123
29788W        W45597   8.889   3.653   5.441  0.0061  0.0477  0.1020
29789W        W45598  11.879  12.641  14.584  0.1414 -0.0404  0.3793
29790W        W45599  16.319  15.790   0.004 -0.2439 -0.0954  0.0819
29791W        W45600  16.629  13.480  12.705  0.2739  0.0704 -0.0649
29792W        W45601   6.840   5.894  15.692 -0.2274  0.1833  0.0594
29793W        W45602  13.639  11.166   2.077  0.3449  0.1521 -0.1970
29794W        W45603   1.379  17.898  15.137 -0.1198 -0.1719 -0.1803
29795W        W45604   3.530  15.009   0.886  0.0327  0.0970  0.0248
29796W        W45605  14.887  12.729  12.976  0.4104  0.0593 -0.1281
29797W        W45606   5.674   8.883  11.317 -0.1412  0.2237  0.1358
29798W        W45607  16.702  16.779   6.403  0.2497  0.0829  0.2543
29799W        W45608   4.299  15.504   5.359  0.1495 -0.0435 -0.2003
29800W        W45609  11.866   0.818   0.580  0.2223 -0.0899  0.0564
29801W        W45610  13.015  11.025  16.115 -0.4093  0.1729 -0.0602
29802W        W45611  16.898  14.212   1.719  0.3385 -0.2600 -0.1165
29803W        W45612  13.988   5.835  12.966  0.1941 -0.2450 -0.0240
29804W        W45613   1.848   5.149   2.476 -0.0508 -0.1459  0.1060
29805W        W45614  11.680  14.564   5.761  0.0774 -0.0656 -0.0980
29806W        W45615   5.666  16.131   4.865 -0.0340 -0.0320 -0.2000
29807W        W45616  13.671   5.750   1.697  0.1275  0.0389 -0.2275
29808W        W45617  16.426  17.724   4.455  0.0814 -0.0723 -0.1661
29809W        W45618   6.285   0.636  15.858  0.0754  0.0562 -0.1502
29810W        W45619   1.888  16.639  12.024  0.0729 -0.2049 -0.0894
29811W        W45620   6.093   2.110   2.877 -0.0187  0.0896  0.2120
29812W        W45621  15.756  11.581  11.662 -0.1375  0.0084 -0.0181
29813W        W45622  13.591   0.733   4.019 -0.2417  0.4032 -0.0053
29814W        W45623   8.156  16.279   4.584  0.1281  0.0642 -0.0897
29815W        W45624   9.005  16.961   1.272 -0.1901  0.0272  0.0883
29816W        W45625   4.822   1.418  11.765 -0.2087 -0.0883 -0.0162
29817W        W45626  15.108  12.403  14.233 -0.0404 -0.1329 -0.0109
29818W        W45627  13.129  10.247  12.029  0.1476 -0.5787  0.2715
29819W        W45628  13.774  10.946   2.559  0.1211  0.1575  0.3018
29820W        W45629   1.754  12.919  12.515 -0.0295  0.1020 -0.1184
29821W        W45630   3.103   4.985   1.169 -0.0524 -0.0860 -0.0599
29822W        W45631  11.371  10.445   1.904 -0.2160  0.0269 -0.0223
29823W        W45632  11.095  11.136  11.096 -0.1557  0.2290 -0.3977
29824W        W45633  15.478  17.620   4.287  0.1110 -0.1110 -0.1509
29825W        W45634  13.253   0.577   2.104 -0.0056  0.0736  0.0127
29826W        W45635  12.644   5.941  14.406 -0.1119  0.0832 -0.0320
29827W        W45636  17.454   4.206  12.993  0.1302  0.1756 -0.0348
29828W        W45637   2.285  15.888   6.380  0.1200 -0.0038  0.3528
29829W        W45638  10.882  14.835   0.019  0.0879 -0.2345  0.0234
29830W        W45639  11.828   6.574  12.380  0.0417 -0.1201 -0.0654
29831W        W45640  16.386   7.564   1.080  0.2988 -0.0585  0.0805
29832W        W45641  13.451   6.032   5.525 -0.2048  0.0152 -0.0439
29833W        W45642  12.497   0.098   1.335 -0.1034  0.0299 -0.0815
29834W        W45643   1.175   2.800   3.300  0.2289 -0.1381 -0.0962
29835W        W45644  17.301   3.272  14.656  0.0133  0.2582 -0.2664
29836W        W45645  17.866  10.312  16.636 -0.1055  0.0071  0.0848
29837W        W45646  16.792   0.651  13.044 -0.0971  0.1762  0.1995
29838W        W45647   1.434   7.569  13.065 -0.0998  0.0156  0.1422
29839W        W45648   5.331   6.643  12.701  0.0506 -0.0525 -0.1508
29840W        W45649   2.606   0.771   3.525  0.0367 -0.1878  0.1216
29841W        W45650   8.022   6.176   5.422  0.3188 -0.2645  0.3298
29842W        W45651   4.998  14.973  15.234  0.2355  0.1743 -0.0499
29843W        W45652  10.856   6.074   1.872 -0.2135  0.0514  0.0149
29844W        W45653   9.338   9.154  12.503 -0.2203 -0.0816  0.2574
29845W        W45654  13.669  13.828  11.682 -0.1499 -0.3170 -0.3710
29846W        W45655  17.123   8.969  15.595  0.0980  0.0179 -0.0655
29847W        W45656   0.596  11.822  12.997  0.0605 -0.2329  0.2069
29848W        W45657   4.634  17.420  15.779 -0.0945 -0.0554 -0.1973
29849W        W45658   8.494   1.727   5.438  0.4422 -0.0385 -0.1643
29850W        W45659  13.963   3.071   3.087  0.0570  0.0097 -0.0345
29851W        W45660   2.061   9.492   5.195  0.0601  0.3060  0.0195
29852W        W45661   7.642   6.845   3.164 -0.0768 -0.1206 -0.0208
29853W        W45662   0.868  17.569   3.967 -0.1174  0.2308  0.0902
29854W        W45663  16.629   8.610  12.379 -0.1522 -0.2707 -0.2157
29855W        W45664   6.921  11.191  14.783  0.0695  0.2294  0.1388
29856W        W45665  13.640   4.983   3.687  0.0831  0.0544  0.2972
29857W        W45666   6.849  14.466  15.090  0.0413 -0.2023  0.0718
29858W        W45667   7.552   6.677  12.813  0.0358  0.0243 -0.1354
29859W        W45668  16.973   4.855   0.844 -0.2171 -0.3822 -0.0016
29860W        W45669   2.802   5.996   3.153  0.0076  0.0306 -0.3183
29861W        W45670   3.711  10.826   5.839 -0.0285  0.2065  0.2792
29862W        W45671  15.981  17.244   0.570  0.2024 -0.2206 -0.1167
29863W        W45672  13.041   9.307   2.579 -0.0036  0.0906  0.1498
29864W        W45673   7.976  13.733  12.846  0.0332  0.0803 -0.0930
29865W        W45674  16.163   8.749  12.556  0.0450 -0.1679  0.0149
29866W        W45675   3.691   0.284   2.763 -0.0109 -0.4286  0.3344
29867W        W45676  17.198  17.436  12.244 -0.0529  0.1074 -0.0965
29868W        W45677   8.737   6.344   1.459 -0.0160 -0.2532 -0.0573
29869W        W45678   1.969  16.064   1.900 -0.1160 -0.0264 -0.1550
29870W        W45679   3.808  11.104  14.045 -0.2983 -0.0794  0.1484
29871W        W45680  15.398  14.857  14.430  0.0033  0.2684  0.0644
29872W        W45681  10.024   8.515   4.486  0.1254 -0.0038  0.0505
29873W        W45682   2.045   4.424   3.563  0.2407 -0.1001  0.0154
29874W        W45683   0.351  14.427   5.497 -0.1711 -0.0753  0.1080
29875W        W45684   9.465  11.641  12.646 -0.1021 -0.0162  0.1778
29876W        W45685   0.476   1.135  11.810 -0.1876 -0.1875  0.2422
29877W        W45686   3.497   5.785  11.904  0.1189 -0.2092  0.5805
29878W        W45687  17.235   7.651   2.808  0.2566  0.0938  0.0767
29879W        W45688   4.071   6.973   4.929  0.2557 -0.1080  0.2212
29880W        W45689   0.776  13.381   4.790 -0.0267 -0.3098  0.2967
29881W        W45690  10.737   4.108  16.022  0.1461  0.2862 -0.1818
29882W        W45691  12.040   0.171  12.699 -0.0318  0.1101 -0.2117
29883W        W45692   0.812  15.488   5.010 -0.2527 -0.1117  0.4527
29884W        W45693   8.494  14.984  14.340 -0.0865 -0.2577  0.0487
29885W        W45694   0.616  11.020   5.295  0.0575 -0.0625  0.0456
29886W        W45695  13.568  17.319  14.616  0.1511 -0.3767 -0.0938
29887W        W45696   1.569   1.550   5.190  0.1648  0.0050  0.1717
29888W        W45697   4.167  15.849  15.215 -0.4214  0.2331  0.1064
29889W        W45698   8.726  12.386   0.269 -0.0264  0.1706  0.1793
29890W        W45699  15.429   4.084   0.098  0.0692  0.1186 -0.2503
29891W        W45700  17.497   9.595   5.157  0.0090 -0.0962 -0.1915
29892W        W45701   4.765   5.322  10.199  0.0478 -0.0295  0.0504
29893W        W45702  15.323   9.688   1.757  0.1394 -0.1836 -0.0154
29894W        W45703   4.569   0.722  16.612  0.0481 -0.0252  0.1347
29895W        W45704   2.659  15.440   3.992  0.0665  0.0340  0.0905
29896W        W45705  11.675   8.449   3.856 -0.2017  0.1281 -0.1647
29897W        W45706   0.819   1.264  11.391 -0.0033  0.2416  0.0371
29898W        W45707   8.056   2.799   1.258  0.2493  0.3710 -0.2050
29899W        W45708  17.738   8.267  14.476 -0.0063  0.0882 -0.1672
29900W        W45709   6.320   8.542  11.276 -0.2911  0.0670  0.5022
29901W        W45710  10.638   0.085   5.529 -0.1060  0.1609 -0.0148
29902W        W45711   2.580   4.938  14.730  0.2397  0.1319  0.4956
29903W        W45712   0.520   0.535  13.801 -0.1595 -0.0991  0.0613
29904W        W45713   7.195   1.787   3.422  0.3642  0.1938  0.0938
29905W        W45714  11.604   8.021  15.008 -0.1834  0.0415  0.0184
29906W        W45715   1.944   3.166   4.500  0.0265  0.0281 -0.1223
29907W        W45716   0.685  17.061   4.501 -0.0136 -0.0080 -0.2793
29908W        W45717  15.696  13.169  14.015  0.1088 -0.1029 -0.1877
29909W        W45718   9.346  13.572  16.022 -0.1255  0.0796 -0.2008
29910W        W45719   0.055  11.944  11.326 -0.1317  0.0638 -0.0735
29911W        W45720   2.162   1.202   1.934  0.0311  0.2951 -0.0363
29912W        W45721  10.132   1.505   5.654  0.0739  0.0711 -0.2253
29913W        W45722   5.771  11.248   3.440  0.2217 -0.0228  0.0558
29914W        W45723   1.118  14.776   0.365 -0.1200 -0.0988 -0.1542
29915W        W45724  12.303  14.263  13.764 -0.1091 -0.0856  0.0074
29916W        W45725  15.449   9.824   3.241  0.2965  0.0818  0.0802
29917W        W45726  12.704   7.141   1.039  0.1064 -0.1096  0.0855
29918W        W45727   4.231  10.681  12.682 -0.2317 -0.0898 -0.0252
29919W        W45728  10.788   2.699   3.107 -0.0134  0.0449  0.2251
29920W        W45729  15.425   0.507   5.640 -0.0710  0.1268  0.1064
29921W        W45730   1.497  15.484  14.464  0.0124 -0.1817 -0.0425
29922W        W45731   9.522   7.858  13.708 -0.0011  0.1360  0.1146
29923W        W45732   9.312   9.709  15.904 -0.1587  0.2301  0.2216
29924W        W45733   9.968   3.411   0.669  0.4124 -0.1641  0.2941
29925W        W45734   5.150  13.785   2.556  0.1622 -0.0769 -0.0325
29926W        W45735   4.642  10.471   2.764 -0.0913  0.0753  0.1206
29927W        W45736   7.112  11.707  14.068  0.1371  0.0512 -0.1797
29928W        W45737   5.633   3.833   1.689 -0.1221  0.2113 -0.0590
29929W        W45738   8.522   6.694   4.238  0.1767 -0.3321 -0.0169
29930W        W45739   7.509   7.662  13.922 -0.3548 -0.0234 -0.1493
29931W        W45740  15.693  15.236  16.135  0.3818 -0.4655 -0.1989
29932W        W45741   2.909   0.757  14.295  0.3816 -0.1362 -0.0979
29933W        W45742  11.460   5.753   6.179  0.0065 -0.2271  0.0092
29934W        W45743   5.788   5.221  15.825  0.0068  0.1958  0.2260
29935W        W45744  14.562   5.411   3.328  0.1133 -0.1538  0.0436
29936W        W45745  14.812  16.070  14.901  0.1495 -0.2699 -0.0911
29937W        W45746  12.260   4.071   1.544  0.0707  0.1503 -0.0473
29938W        W45747   9.087   8.552   4.864 -0.1352 -0.2985  0.1550
29939W        W45748   0.777  12.194   5.611  0.0319 -0.0051 -0.2836
29940W        W45749  10.357   6.960  12.797  0.1298 -0.1640 -0.0502
29941W        W45750   2.886  14.558   3.860 -0.0307 -0.1415 -0.2312
29942W        W45751   9.344   4.146  15.161 -0.0209  0.0045 -0.3463
29943W        W45752  17.591   5.833   4.511 -0.0498 -0.1121 -0.0170
29944W        W45753  13.443   8.319  11.816 -0.4987 -0.2169 -0.3083
29945W        W45754   7.910  17.499  13.937 -0.0268  0.1065  0.0591
29946W        W45755   4.322   5.420  11.136 -0.0752 -0.1281 -0.0874
29947W        W45756   9.307   7.113   2.453  0.0207  0.0604 -0.0670
29948W        W45757  11.106   3.323  13.997  0.1406  0.2092  0.0494
29949W        W45758  17.402  12.073  12.861 -0.1040  0.0313 -0.5511
29950W        W45759   5.957   8.843  14.598  0.0118 -0.0153  0.3121
29951W        W45760  12.307   4.181   1.040 -0.0421  0.0644  0.0096
29952W        W45761   0.064   4.827  14.945  0.2328 -0.0026 -0.1018
29953W        W45762   5.004  17.076   3.489  0.0513 -0.1429 -0.3916
29954W        W45763   0.096  14.182  11.951 -0.3055 -0.0934 -0.4749
29955W        W45764  17.257   2.312  12.317  0.3018  0.1889 -0.0586
29956W        W45765  13.147   9.052   1.050 -0.0187  0.0322 -0.2598
29957W        W45766   3.906  14.643   1.113  0.0272 -0.0987  0.4939
29958W        W45767  17.507  12.900  16.687 -0.2318  0.0953 -0.2101
29959W        W45768   9.203  10.264  14.165 -0.0456  0.4707 -0.0388
29960W        W45769  12.389   8.432   3.309 -0.1975  0.2194 -0.2954
29961W        W45770   5.445  11.022   4.974  0.3127  0.1301  0.2142
29962W        W45771   2.079   0.087   0.648 -0.1398  0.1117 -0.1359
29963W        W45772  17.600  12.541  12.403 -0.0775  0.2359 -0.2007
29964W        W45773  17.302   1.358   2.990 -0.1837 -0.0145 -0.1348
29965W        W45774  13.217  12.982  14.603 -0.2387  0.1476 -0.1323
29966W        W45775   0.294   7.893   5.366  0.0200 -0.3045 -0.1441
29967W        W45776  15.481  15.835   5.462 -0.1562 -0.0386 -0.0859
29968W        W45777  13.749   2.402  14.070 -0.2801  0.0165  0.2386
29969W        W45778   2.291   3.365   2.299 -0.3871  0.1680 -0.0878
29970W        W45779   7.812   9.670   1.887  0.0093  0.4758  0.3521
29971W        W45780  13.182   0.515  12.191  0.0265 -0.0331 -0.3258
29972W        W45781   1.006   6.592  12.314  0.0079  0.0443  0.0737
29973W        W45782   8.803   9.859  15.691 -0.0105  0.0178  0.0278
29974W        W45783   1.426  17.235  14.823  0.2207  0.2505  0.0251
29975W        W45784   0.362   4.590   0.340 -0.1971  0.1266 -0.2019
29976W        W45785   6.388   4.890  16.641 -0.2907  0.1627  0.1322
29977W        W45786   0.822  15.260  11.284  0.1786  0.0473 -0.0561
29978W        W45787   6.515  11.715   3.957 -0.0126  0.2189  0.0580
29979W        W45788   4.415  17.836   6.255  0.0620 -0.1447  0.5207
29980W        W45789  16.861   7.641  11.969  0.0726 -0.2173 -0.0607
29981W        W45790   2.263  11.207  12.394  0.0771 -0.3037  0.0323
29982W        W45791   4.504   4.562   5.408 -0.0512 -0.0234 -0.1351
29983W        W45792  13.872   4.718   5.677  0.1390  0.0092 -0.0175
29984W        W45793   3.571   1.258  12.579  0.0935  0.4916  0.1028
29985W        W45794  16.887   0.870  15.669  0.1127  0.0657  0.2391
29986W        W45795   6.907   0.944   4.892 -0.0367  0.4630  0.0564
29987W        W45796   6.732  12.000  16.643  0.0261 -0.1002 -0.3248
29988W        W45797  12.328  14.872  14.947 -0.0813 -0.0802 -0.1627
29989W        W45798   1.334  13.280   1.692 -0.1767 -0.2313 -0.0477
29990W        W45799  13.464  14.087   5.909  0.0455 -0.2131 -0.0120
29991W        W45800  12.397  15.698  12.083  0.1169 -0.1185 -0.1103
29992W        W45801   2.815  13.060  16.036 -0.1379  0.1697 -0.0375
29993W        W45802  13.169   5.680   4.019 -0.1135  0.1692  0.3159
29994W        W45803  17.552   6.282  16.219 -0.0959 -0.0655 -0.4652
29995W        W45804  10.111  13.592  15.043  0.1091  0.1395  0.0531
29996W        W45805   5.860   9.232   1.936  0.0707 -0.0149 -0.0419
29997W        W45806   6.308  14.555   1.870  0.2555 -0.0105  0.1976
29998W        W45807   7.698   8.455   0.885  0.0436  0.1916 -0.4065
29999W        W45808  17.646  16.357   1.207 -0.2314 -0.2486  0.3335
30000W        W45809  17.049  16.579  12.734  0.2065  0.0450  0.0793
30001W        W45810  14.252   7.269   0.165  0.1268  0.0029  0.1271
30002W        W45811   5.439   2.520  13.092 -0.2166  0.1044 -0.0925
30003W        W45812  17.369  17.185  13.959  0.0719 -0.0687 -0.0408
30004W        W45813   0.729  16.645   5.294 -0.0769 -0.0473  0.0535
30005W        W45814   9.974   8.556  14.464  0.0757  0.2385  0.1200
30006W        W45815  14.691  16.147   5.192  0.1240 -0.0546 -0.6157
30007W        W45816   5.792  10.233  12.367 -0.1102  0.2219  0.1712
30008W        W45817   9.478   4.994   0.035  0.1359 -0.0816 -0.2729
30009W        W45818   7.982  12.999   4.436 -0.1016 -0.0311 -0.0901
30010W        W45819  15.865   6.913   3.556  0.0620  0.0843 -0.0875
30011W        W45820   7.688  17.356   5.415  0.3227  0.0710  0.0549
30012W        W45821   5.928   0.203   2.426  0.0117  0.0888 -0.2024
30013W        W45822   6.041   1.597  12.328 -0.4014 -0.0049  0.0878
30014W        W45823  17.561   5.025  12.581 -0.0809 -0.1132 -0.3176
30015W        W45824   4.994  16.799   4.515  0.1316 -0.0051  0.1390
30016W        W45825  14.636  13.415  13.996 -0.0818 -0.0720 -0.0303
30017W        W45826   8.912  10.583  15.163 -0.1284 -0.0914 -0.1135
30018W        W45827  10.520   7.369   1.796 -0.1197 -0.1623  0.0905
30019W        W45828  16.154   6.911   2.989  0.2354  0.0290  0.2592
30020W        W45829  16.571  12.447   0.771 -0.0455  0.1856 -0.2619
30021W        W45830  17.441  16.233   2.150  0.1053  0.0453 -0.0303
30022W        W45831   0.029   4.293  15.050  0.2429  0.0600  0.0077
30023W        W45832   3.753   3.456  16.150  0.0534  0.3072  0.0291
30024W        W45833  13.563   5.526  15.859  0.3378  0.0197  0.0301
30025W        W45834   9.961  15.695   3.260 -0.0328 -0.2678  0.0350
30026W        W45835  17.470   0.496   4.793  0.1273 -0.0723 -0.0711
30027W        W45836   2.156  12.045  11.993 -0.0289 -0.1866 -0.0339
30028W        W45837   4.719   6.599   1.826 -0.2777 -0.0045  0.1563
30029W        W45838   1.933   6.519   4.926  0.3364 -0.0629 -0.0726
30030W        W45839  15.973  15.155   4.354  0.1258 -0.1877  0.0740
30031W        W45840   4.913  10.184   2.497  0.0588 -0.1051 -0.0721
30032W        W45841   1.331   5.127   2.349 -0.0508 -0.0046  0.0260
30033W        W45842   9.535  14.182   1.831 -0.0390  0.1176  0.0772
30034W        W45843  12.195   8.109  13.635  0.1341 -0.1822  0.0922
30035W        W45844   5.477  15.663  11.198 -0.0910  0.0957 -0.0209
30036W        W45845   2.156   9.707   1.222  0.0865  0.1203  0.2661
30037W        W45846  10.565  12.038   1.212 -0.1024 -0.1890  0.2046
30038W        W45847   8.504   1.970  13.109 -0.3112 -0.0659 -0.1001
30039W        W45848   5.203  11.015  12.924 -0.0769 -0.2438  0.0065
30040W        W45849   7.072  16.532   1.979 -0.1822 -0.3229  0.1188
30041W        W45850   5.718  14.737   3.182  0.3165 -0.0245 -0.0476
30042W        W45851   2.968   6.389   2.892 -0.0561 -0.2939 -0.0173
30043W        W45852  10.832   0.697   5.154  0.0019 -0.1139  0.1466
30044W        W45853   1.716   7.401   4.778 -0.2121  0.2886  0.5353
30045W        W45854  13.176   6.738   2.425  0.1550 -0.1140 -0.0710
30046W        W45855  15.401  10.736   3.981  0.1785 -0.0782 -0.0949
30047W        W45856  15.037  10.563  11.817 -0.2686 -0.1924  0.2460
30048W        W45857   5.781  15.895  12.011  0.1369  0.0134  0.1318
30049W        W45858   7.051  15.484  15.959 -0.1176 -0.1340 -0.2279
30050W        W45859   3.979   7.464  16.304  0.1311  0.1020  0.0369
30051W        W45860   9.848   8.465   2.710 -0.0408 -0.0852 -0.1751
30052W        W45861  14.651   4.058  15.974 -0.1626 -0.2708  0.2168
30053W        W45862  10.441  11.659   4.854 -0.2720  0.1522  0.1207
30054W        W45863  16.607   8.142   1.713  0.1627  0.0213 -0.2601
30055W        W45864   6.117   9.041  15.947 -0.0648  0.3160  0.0756
30056W        W45865  14.977   3.303   1.941  0.0371  0.0777  0.0449
30057W        W45866  14.978   8.534  13.034 -0.1953 -0.1278 -0.0091
30058W        W45867  12.069  15.770  10.759  0.4921  0.0224 -0.0491
30059W        W45868   8.041  16.141  13.464 -0.0853  0.0727  0.1231
30060W        W45869   8.415   9.249  15.013  0.1135 -0.2549  0.0593
30061W        W45870  14.462   6.579  14.059  0.1629  0.0075  0.0626
30062W        W45871   4.329  16.922  13.491  0.3631 -0.0026  0.2042
30063W        W45872  13.690   1.823   1.160  0.3149  0.1421  0.0682
30064W        W45873  11.019   6.866   0.716  0.0093 -0.0864  0.0508
30065W        W45874   0.327   3.911   1.017  0.0343  0.0014 -0.0941
30066W        W45875   8.269   4.605   3.171  0.1128  0.1256 -0.0462
30067W        W45876   1.457  11.165   0.004 -0.2339 -0.0012  0.0760
30068W        W45877  15.794  14.308  16.652 -0.3168  0.2335  0.0040
30069W        W45878  14.642   9.203  13.426 -0.0663 -0.1253 -0.0250
30070W        W45879  15.670  15.503   1.601 -0.0930 -0.0018 -0.2331
30071W        W45880   9.396  13.421   1.251  0.0416 -0.1645  0.2189
30072W        W45881  13.168  14.463  13.376 -0.1096 -0.3136  0.4315
30073W        W45882   5.714   5.118   3.036 -0.1690 -0.3833  0.1186
30074W        W45883  11.880   9.149  15.033  0.2406 -0.0004  0.0567
30075W        W45884   8.524   5.342  11.715  0.2669 -0.4117 -0.0325
30076W        W45885   7.116  15.865   5.285  0.5499  0.1195  0.1446
30077W        W45886   1.605   1.567   0.547 -0.1402 -0.1778  0.0391
30078W        W45887   7.015  10.605  11.339  0.1721  0.2400 -0.2944
30079W        W45888  11.478   8.918   6.081  0.0545  0.1028  0.0924
30080W        W45889  12.419  10.982  14.516  0.0106 -0.1450  0.3460
30081W        W45890  15.338   0.700  14.389 -0.1599  0.2324  0.2199
30082W        W45891   2.126   2.177  12.788 -0.2129 -0.0802 -0.2717
30083W        W45892   1.141  17.704   0.955  0.0912  0.2634  0.3424
30084W        W45893   2.847   0.914  15.290 -0.1626  0.2236  0.1185
30085W        W45894   0.246  15.729  14.588 -0.0694  0.3430  0.0021
30086W        W45895   4.826   5.597  13.257 -0.0969 -0.2152 -0.2486
30087W        W45896   5.252   3.903   4.807  0.1657 -0.2729 -0.2165
30088W        W45897  13.770   7.564   3.980 -0.1444  0.2952 -0.2902
30089W        W45898   0.756  10.320   2.897  0.0093  0.2160 -0.0237
30090W        W45899  12.184  17.075   2.632  0.1711 -0.3427  0.0712
30091W        W45900  15.590   5.687   3.169 -0.1307  0.2616 -0.2208
30092W        W45901  10.160   5.493   2.660  0.2219 -0.1296 -0.0682
30093W        W45902   3.467  10.267   4.173  0.0872 -0.0018 -0.1619
30094W        W45903   9.632   8.026   2.567 -0.2865 -0.2132 -0.1844
30095W        W45904  13.948  13.388   1.668 -0.0592 -0.2669 -0.0738
30096W        W45905  11.583  11.363   3.219  0.0395  0.1555  0.3050
30097W        W45906  15.221  11.305  15.157 -0.2101 -0.0063 -0.0217
30098W        W45907  14.463  14.289  12.425 -0.0537 -0.2281 -0.0772
30099W        W45908   5.433  13.743   5.025 -0.2575  0.2441  0.2674
30100W        W45909  12.572   1.519  15.227  0.1140 -0.1420 -0.2214
30101W        W45910  14.923   5.724   3.865 -0.0499 -0.0343 -0.2341
30102W        W45911  16.343   2.953   6.383 -0.2685 -0.1043 -0.1885
30103W        W45912  11.635   1.772   3.543 -0.0994 -0.1022 -0.0806
30104W        W45913  17.940   7.245   2.142 -0.0302 -0.1627  0.1118
30105W        W45914  10.462   5.695  13.364 -0.1381  0.0988 -0.2354
30106W        W45915   2.518   1.122  14.481 -0.1496  0.2188 -0.2753
30107W        W45916  15.864   1.603  16.137 -0.4849 -0.0945  0.2320
30108W        W45917   7.988  11.290  11.847  0.2773  0.0257  0.0372
30109W        W45918  10.423   6.367   0.611  0.1452  0.3752 -0.0577
30110W        W45919   5.829   4.066  14.978 -0.1275  0.2442 -0.3328
30111W        W45920  10.239   8.101  14.562 -0.0040 -0.0658 -0.0269
30112W        W45921   7.698  15.373  13.712  0.1343  0.3350 -0.1064
30113W        W45922   6.227  10.460   2.688  0.2251  0.1547 -0.0026
30114W        W45923  11.106   0.389   4.747 -0.0351  0.0404 -0.0706
30115W        W45924  12.537   2.488  12.763 -0.2012  0.3218  0.0572
30116W        W45925   0.962   9.042  11.382 -0.0450  0.0731  0.3038
30117W        W45926  15.330  16.186   4.574 -0.1205  0.1440  0.0490
30118W        W45927   6.094  17.048   1.890 -0.2482  0.1790 -0.0766
30119W        W45928  13.834   5.373  16.262 -0.2916 -0.0118 -0.1313
30120W        W45929   2.818  16.490  12.814 -0.0603  0.1250  0.2743
30121W        W45930  17.948   1.850  16.444 -0.3456  0.0238  0.2943
30122W        W45931   7.336  17.851  13.316 -0.1560 -0.1130  0.0377
30123W        W45932   8.786  17.929   4.895  0.3156  0.0288 -0.0863
30124W        W45933   8.534   2.787  14.090  0.3319 -0.2918  0.1065
30125W        W45934   9.063   8.872  14.574  0.1100 -0.0963  0.0662
30126W        W45935  10.261   3.726   0.363  0.0648  0.0078 -0.1518
30127W        W45936  15.752  14.141   0.509  0.2969 -0.0828  0.0284
30128W        W45937   9.999   6.821  14.251  0.0860  0.2393  0.5236
30129W        W45938  16.339  15.797  16.036 -0.0221 -0.2827  0.0480
30130W        W45939   3.816   1.102  10.965  0.1384 -0.2965 -0.0594
30131W        W45940  16.539  14.284   3.289  0.0388 -0.4292 -0.4478
30132W        W45941   0.704   3.041   3.141 -0.0361  0.2427 -0.1288
30133W        W45942   4.809   8.255  12.629  0.1296  0.1157 -0.2410
30134W        W45943   1.417   7.224   0.114 -0.2151 -0.3367 -0.1574
30135W        W45944   5.637   4.254  14.572 -0.0354 -0.3807  0.3208
30136W        W45945   8.131  14.974  11.689 -0.0191  0.0369 -0.0130
30137W        W45946   2.961   4.971  11.501 -0.0832  0.0238 -0.2341
30138W        W45947   8.883   9.508   5.712 -0.0960  0.0121  0.0786
30139W        W45948   2.252  16.143  15.570  0.0529  0.0338  0.1217
30140W        W45949   9.857  12.640   4.793 -0.1356  0.0473  0.0145
30141W        W45950  16.222   7.483   0.473 -0.5539  0.0021 -0.0942
30142W        W45951   6.524   0.513  14.237 -0.0142  0.2116  0.0831
30143W        W45952   8.922  10.928  11.913  0.0797 -0.0774  0.2609
30144W        W45953  16.706  13.332   2.655  0.1593  0.2458  0.5694
30145W        W45954   4.707   7.671  13.598  0.0977 -0.0192 -0.0445
30146W        W45955   5.254   9.717  13.731  0.0479  0.1885  0.3497
30147W        W45956  14.938  11.235  14.432 -0.1245 -0.2446 -0.0576
30148W        W45957   4.982   4.854   3.680  0.2447  0.1148  0.0791
30149W        W45958   3.871   4.091  12.172  0.2036  0.0187 -0.0255
30150W        W45959   5.037  16.578  14.081 -0.0325 -0.1451  0.2050
30151W        W45960   1.239  16.358   3.532 -0.1866 -0.0135 -0.0038
30152W        W45961   0.281   8.079  15.950  0.0679  0.0584  0.2827
30153W        W45962  10.524  16.799   5.781 -0.2159 -0.3269  0.2822
30154W        W45963   8.862  10.820   5.986 -0.0001  0.0258  0.1674
30155W        W45964   8.247   0.279   3.640 -0.1137  0.0256 -0.0750
30156W        W45965   4.844  13.719   0.159 -0.1968  0.1676  0.1348
30157W        W45966   6.707   0.343   1.942  0.2720 -0.3177  0.2356
30158W        W45967  10.000  14.849   3.766  0.2622 -0.0789 -0.0877
30159W        W45968  14.710  13.837   2.093  0.0542 -0.0454  0.1622
30160W        W45969  15.048   4.057  16.384 -0.0909  0.0479  0.1507
30161W        W45970  14.960  12.196   4.751 -0.1910 -0.0250  0.1108
30162W        W45971   8.981  14.388   0.318  0.2982 -0.0931 -0.3485
30163W        W45972   6.478  15.445   2.758  0.0423 -0.2364 -0.1779
30164W        W45973  14.917   9.113  13.812  0.0658  0.3782  0.0080
30165W        W45974  15.999   7.407   3.606 -0.0419  0.1379  0.0568
30166W        W45975   6.255   6.516  12.514 -0.2436  0.2176  0.1591
30167W        W45976   9.806   4.665   1.889  0.3188  0.0533  0.1720
30168W        W45977  14.681   9.424  16.517  0.4334 -0.2627  0.1252
30169W        W45978  10.628  11.082   1.677 -0.2351 -0.0934  0.1096
30170W        W45979   7.810   9.459   3.671  0.3147  0.0779  0.0892
30171W        W45980   2.815   8.824  12.514 -0.0200  0.1621  0.0158
30172W        W45981   8.963   7.169  16.267 -0.0033 -0.3728 -0.4037
30173W        W45982   9.266   8.936  13.535  0.1707  0.1906  0.4225
30174W        W45983  17.798   2.899   2.717 -0.2514  0.1510  0.1525
30175W        W45984   7.068   1.699  14.241 -0.5228 -0.1649 -0.0861
30176W        W45985   7.510   4.605   4.525  0.1690  0.0211 -0.0024
30177W        W45986   9.586  13.121  15.923  0.0753 -0.1616  0.1901
30178W        W45987  17.834   4.663  15.368  0.2900  0.0227  0.1412
30179W        W45988   9.546  17.339  13.780  0.0610  0.1600 -0.2295
30180W        W45989   8.401   9.510   4.352 -0.0025 -0.0503 -0.0224
30181W        W45990  13.159   8.739  12.147 -0.0637 -0.0326 -0.2590
30182W        W45991   6.840  17.454   0.872 -0.1782 -0.0540  0.1982
30183W        W45992  11.468  13.918  14.479  0.1000 -0.3432  0.0769
30184W        W45993   6.694   0.710   0.216  0.0676 -0.0205 -0.3187
30185W        W45994  15.048  15.282  14.256 -0.2171 -0.0479  0.1088
30186W        W45995   3.732   3.465   0.474  0.2618  0.2197  0.1640
30187W        W45996   4.797  10.242  16.525  0.0862 -0.1834  0.1072
30188W        W45997  11.050   5.027   5.549 -0.0037 -0.0936  0.0164
30189W        W45998   1.532  16.652  12.438 -0.2946 -0.2672  0.2959
30190W        W45999  17.938   0.673  11.288  0.2587  0.1703 -0.0487
30191W        W46000   2.431   1.130   6.243 -0.0684  0.0085  0.1099
30192W        W46001   1.232   0.371  14.934 -0.3156 -0.0116  0.0766
30193W        W46002  10.205   9.223  12.178  0.0198  0.0805 -0.0512
30194W        W46003   0.365  14.762  13.780 -0.3638 -0.0850 -0.2896
30195W        W46004   0.677  14.776  12.873  0.0989 -0.1102  0.1078
30196W        W46005  14.588  13.756   3.098  0.5231 -0.0973  0.4340
30197W        W46006   5.998   4.198   1.922  0.1431  0.1162 -0.1928
30198W        W46007  13.464   5.752  13.062 -0.0693  0.2468  0.0377
30199W        W46008  14.567   1.318   5.289 -0.2742  0.2389  0.3214
30200W        W46009   8.825   4.490   0.505  0.2988 -0.1489  0.0022
30201W        W46010  11.698   7.297   3.233  0.2552 -0.1431  0.1966
30202W        W46011   1.143  12.065   0.393 -0.1941 -0.0207 -0.0820
30203W        W46012  13.341   4.463   2.587  0.0471 -0.3264 -0.0218
30204W        W46013  11.303   2.399  15.065 -0.1474 -0.0629 -0.2636
30205W        W46014  17.834  16.114  14.739 -0.3328  0.1558 -0.5961
30206W        W46015  15.702  12.805  13.597 -0.1284 -0.1266  0.2413
30207W        W46016  17.497   1.851   6.399  0.0983  0.0516  0.1485
30208W        W46017  17.673  16.487   5.167  0.1752 -0.1683 -0.0635
30209W        W46018  11.555   6.770   1.487 -0.1771  0.3759 -0.3150
30210W        W46019  10.196   1.296  11.915  0.3407 -0.3014 -0.2569
30211W        W46020   6.980  14.343  13.214  0.0703  0.4594 -0.0282
30212W        W46021   4.638   0.637  15.127  0.1859 -0.1456  0.0979
30213W        W46022   9.949   6.736  12.963 -0.1663 -0.3701 -0.2027
30214W        W46023   1.774  17.457  11.353  0.1395 -0.2049 -0.0005
30215W        W46024   3.435   3.157  13.126  0.2144 -0.1886 -0.0566
30216W        W46025  14.676  16.323   1.061  0.4372 -0.2487 -0.1961
30217W        W46026   2.024   2.350   2.568 -0.0003  0.0526 -0.1630
30218W        W46027  15.964  17.698  16.580 -0.3185  0.1678 -0.3405
30219W        W46028   9.859   8.103   1.228 -0.0435  0.0723  0.0343
30220W        W46029  13.013   3.192  14.640 -0.0321 -0.0686  0.2008
30221W        W46030  12.094   1.814   2.608 -0.2050 -0.0686  0.4900
30222W        W46031  15.222  10.642   0.177 -0.0321 -0.0952  0.2516
30223W        W46032  14.590   2.014   4.474  0.1363  0.0815 -0.1480
30224W        W46033   1.277   5.459  13.606  0.0704 -0.0186  0.1343
30225W        W46034  12.988   3.659   5.122  0.1078  0.1080  0.1082
30226W        W46035   0.682   1.006  14.207 -0.1877  0.1519 -0.1021
30227W        W46036   3.080   3.148   4.298 -0.1199 -0.0622 -0.2199
30228W        W46037  13.136   7.992  14.909  0.1070 -0.0386  0.0786
30229W        W46038  11.997  16.581   1.068  0.1779  0.0503  0.0976
30230W        W46039  15.326   7.149  16.414  0.1914 -0.0610  0.0073
30231W        W46040   6.682  13.052   4.504  0.0741  0.2049  0.0629
30232W        W46041   3.591  17.256   0.290  0.3972  0.0135  0.1767
30233W        W46042  12.819  16.297   0.492  0.0929 -0.1522 -0.2243
30234W        W46043  10.900  17.295   0.613 -0.0689  0.0077 -0.3717
30235W        W46044   1.845  14.947  15.297 -0.1404  0.2017 -0.2488
30236W        W46045  16.720  15.360  11.913  0.1578  0.1115  0.1036
30237W        W46046   0.184   6.365  13.537 -0.4623 -0.1407 -0.0981
30238W        W46047   2.471  15.316  15.437  0.2175 -0.0216  0.0519
30239W        W46048   1.097   6.850  11.337 -0.1108 -0.3545  0.0770
30240W        W46049  15.433  11.603  14.678  0.1098  0.3194  0.5046
30241W        W46050  16.777   1.150   5.491 -0.0024 -0.1805 -0.1831
30242W        W46051   4.407  15.728  14.337 -0.3585  0.1299  0.0181
30243W        W46052  11.925  13.963  13.889  0.0868  0.2700 -0.0544
30244W        W46053  14.194  11.304  13.814  0.0359  0.1977  0.3777
30245W        W46054   5.046  15.069  13.622 -0.4019  0.3584 -0.1900
30246W        W46055  17.376  15.242   0.139 -0.2732  0.0323 -0.1721
30247W        W46056   0.968   4.109  13.655  0.0214 -0.0421  0.1063
30248W        W46057  16.907   9.694  15.762  0.1178  0.1093  0.0888
30249W        W46058  10.015  11.757  13.488  0.0355  0.2307 -0.2103
30250W        W46059  11.689  12.964   2.592 -0.0321  0.3827  0.1478
30251W        W46060   6.307   7.589   3.499 -0.2353 -0.0385  0.0310
30252W        W46061  14.055  11.570   1.924 -0.3221  0.0024  0.1768
30253W        W46062   0.543  14.573   2.296 -0.0700  0.0330  0.0662
30254W        W46063  10.729   5.648   3.176  0.2415 -0.2527  0.1695
30255W        W46064   1.407   0.351   1.317  0.0432 -0.1827 -0.1331
30256W        W46065   8.948  12.589   4.403 -0.0820 -0.2155 -0.1605
30257W        W46066   3.392  11.180   2.536  0.0191  0.3159 -0.0067
30258W        W46067   0.501  10.663   3.817 -0.1237  0.1836  0.0837
30259W        W46068   4.395  13.245  12.772  0.2714  0.3787  0.2802
30260W        W46069   7.410  14.731  12.065 -0.1356 -0.0085  0.2240
30261W        W46070   6.015  12.559   1.801 -0.0352 -0.1328  0.0587
30262W        W46071   3.542   8.940  14.749  0.2520 -0.0051  0.2005
30263W        W46072   4.217   9.419  12.638 -0.0592  0.2872 -0.2135
30264W        W46073  17.143  14.092  13.180  0.2075 -0.3284  0.2898
30265W        W46074   4.501   3.387   1.713  0.1400 -0.1851  0.0701
30266W        W46075   1.464   3.114   1.737 -0.2842  0.1316  0.2404
30267W        W46076  16.924   1.037   5.020  0.0491 -0.0599  0.1298
30268W        W46077   3.817   6.593  15.368 -0.0575  0.0061 -0.0414
30269W        W46078  17.353  17.851   4.224  0.0770  0.1392 -0.1224
30270W        W46079  13.002   4.909   4.755 -0.0047  0.0689 -0.0677
30271W        W46080   1.504   8.241   4.382 -0.0636 -0.1463 -0.0643
30272W        W46081  17.071   6.436   0.543 -0.0189  0.2597  0.0500
30273W        W46082   3.426  17.095   3.817 -0.1577 -0.1145 -0.1890
30274W        W46083   5.976   9.571  15.361 -0.2824 -0.2839  0.1178
30275W        W46084  13.263  16.184   0.185  0.2039 -0.1845  0.2778
30276W        W46085  17.667  17.099  13.448 -0.0065 -0.1405  0.0877
30277W        W46086   8.887  11.768   4.684  0.0237 -0.0522  0.2990
30278W        W46087   6.371   1.274  14.119  0.2340  0.2007  0.1481
30279W        W46088  16.048   5.436  13.751 -0.0879 -0.2334  0.2166
30280W        W46089   8.717   4.160   5.846  0.0738  0.2456 -0.0475
30281W        W46090   3.674   9.298  15.074 -0.3262 -0.1083 -0.3103
30282W        W46091  14.087   8.167   4.586 -0.0601 -0.2809  0.1319
30283W        W46092  10.975  10.077  15.103  0.1159 -0.0399  0.1444
30284W        W46093  11.758  13.443  16.589  0.2082  0.1699 -0.3036
30285W        W46094  14.297  11.882   2.419 -0.0118 -0.2114  0.0696
30286W        W46095  14.825  14.971   1.298  0.4350  0.1319 -0.2009
30287W        W46096  14.532   3.469  15.114  0.0150 -0.0635 -0.0371
30288W        W46097  10.931  10.674   3.644 -0.1820 -0.0723 -0.1414
30289W        W46098  12.053  17.264  12.198  0.3494  0.1101  0.0193
30290W        W46099  16.169  14.967  13.853  0.0833  0.0506 -0.1571
30291W        W46100   1.097  10.599  11.109  0.1224 -0.3167 -0.2615
30292W        W46101   3.240  12.607  16.588  0.2127 -0.3875 -0.0934
30293W        W46102  12.102   9.938   4.793 -0.2029  0.1000 -0.1399
30294W        W46103   8.502   1.101   3.636  0.2771 -0.0330  0.0612
30295W        W46104   5.603  14.673   4.122  0.2774 -0.1423 -0.1820
30296W        W46105  17.424  13.373  15.158  0.0448 -0.0919  0.2817
30297W        W46106  17.183  15.455  16.361  0.0926 -0.1344  0.3454
30298W        W46107   7.889  13.156  13.465  0.0094 -0.0078  0.0462
30299W        W46108   1.718  12.221   5.706  0.1947  0.1025 -0.1591
30300W        W46109  16.207  13.167   3.584  0.0370 -0.1705  0.0770
30301W        W46110   6.398   2.742   5.798  0.0622 -0.3641 -0.3263
30302W        W46111  13.502  10.705  16.091  0.0286  0.0655 -0.1449
30303W        W46112   0.373   3.123  16.146  0.0316  0.0216  0.0972
30304W        W46113   8.216  10.805  15.502 -0.2740  0.0508  0.3016
30305W        W46114  13.483   1.642  12.813 -0.0462 -0.1954 -0.0306
30306W        W46115   8.905  17.675  14.883  0.0205 -0.5753  0.0943
30307W        W46116  12.079   4.623   0.664 -0.4596 -0.3434 -0.1047
30308W        W46117   8.033   5.828  13.266  0.0317 -0.0258 -0.2033
30309W        W46118   6.628   0.508  16.222  0.2928 -0.1793  0.0794
30310W        W46119   6.894  14.666  16.394  0.1454 -0.0420  0.2552
30311W        W46120   3.522  10.708   0.481 -0.1116  0.0675  0.1108
30312W        W46121   8.961  10.510   3.025 -0.0332  0.0610 -0.2444
30313W        W46122  14.046  13.738  16.458 -0.4596  0.1048  0.1568
30314W        W46123   7.590  15.023  12.847  0.3148  0.0230  0.0447
30315W        W46124   7.952   1.442  15.709  0.1861 -0.0369  0.0767
30316W        W46125   1.084  14.552   4.760  0.1881 -0.0518  0.1661
30317W        W46126   3.055  16.287  13.234 -0.1425 -0.0502 -0.0050
30318W        W46127   9.419   0.330  14.611 -0.3494 -0.1326  0.1648
30319W        W46128  13.128  15.208   1.340 -0.0360 -0.0776  0.2438
30320W        W46129  11.126  15.810   2.614 -0.1947  0.4721  0.2059
30321W        W46130  10.545  11.597  14.938 -0.1063 -0.0325 -0.3609
30322W        W46131   0.882   5.921   3.450 -0.1473  0.3028 -0.1316
30323W        W46132  12.576   1.209   1.964 -0.2945  0.0042  0.2034
30324W        W46133  13.736   5.310   4.817 -0.4810  0.5326  0.3443
30325W        W46134  10.860  14.586  12.457 -0.1689 -0.0271  0.4055
30326W        W46135  11.232  12.531  11.664 -0.4133  0.0691 -0.3491
30327W        W46136  12.622   1.213   4.793 -0.3004 -0.0900 -0.0544
30328W        W46137   2.962   9.792  11.349 -0.0674  0.0082  0.2617
30329W        W46138   6.728   8.619   0.661 -0.0831  0.1585 -0.1970
30330W        W46139   4.986  17.875  15.796  0.1145  0.0406 -0.1289
30331W        W46140   5.801  17.918  13.127  0.0557 -0.0567 -0.0271
30332W        W46141   3.054  14.430   3.364  0.0574  0.2807  0.1440
30333W        W46142   7.471   3.964   1.225 -0.1046 -0.3259  0.2098
30334W        W46143   6.449  10.052  13.460 -0.1375  0.0029 -0.2946
30335W        W46144   1.740   1.466   1.919 -0.2255 -0.0513  0.2445
30336W        W46145   0.555  15.184   2.236 -0.1189  0.2291  0.0824
30337W        W46146   2.571  14.396  11.977 -0.2668 -0.0021  0.0983
30338W        W46147   8.359   1.972   0.206  0.0966  0.0222 -0.0059
30339W        W46148   9.399  10.226  14.626 -0.2716  0.1327 -0.1279
30340W        W46149  14.887   1.806   4.142  0.3115 -0.0044  0.0050
30341W        W46150  14.731  14.440  14.261 -0.0670 -0.0604 -0.2251
30342W        W46151   7.793  16.745  15.270  0.0002 -0.1572 -0.2023
30343W        W46152  14.030  16.728  12.401  0.3803 -0.2335 -0.0940
30344W        W46153   9.733  14.121   3.085  0.1016 -0.0485  0.2883
30345W        W46154  16.100   8.107  15.573 -0.1074  0.0475  0.2644
30346W        W46155  11.470  10.026   2.187  0.3979  0.0455  0.1037
30347W        W46156   0.277   6.907   1.552 -0.0438  0.3161  0.0138
30348W        W46157  10.838   7.364  13.976 -0.1135  0.0014  0.0710
30349W        W46158  12.542   2.095  15.474  0.1390  0.1226 -0.0948
30350W        W46159  14.817  14.915   3.142 -0.1497  0.1707 -0.0530
30351W        W46160   9.371   1.835  12.631 -0.1071  0.0080 -0.2509
30352W        W46161  11.669   2.851  14.421 -0.3437  0.0929  0.2610
30353W        W46162   5.556   5.573  14.753 -0.1126  0.2980  0.1693
30354W        W46163  11.988  11.529   4.286 -0.0049  0.0265  0.0444
30355W        W46164   1.545  17.005   4.195 -0.1231  0.3314  0.0188
30356W        W46165   5.397   8.283   3.774 -0.2377 -0.1042  0.2041
30357W        W46166  11.538  17.403   4.034  0.0426  0.0139 -0.0673
30358W        W46167   1.091   7.452  11.177  0.3018 -0.1632  0.1389
30359W        W46168  12.823   4.664   0.159 -0.1952 -0.2858  0.0109
30360W        W46169   5.658   1.585   2.924  0.0050  0.1937 -0.2257
30361W        W46170   7.857  13.868  16.223  0.1291  0.1977 -0.0807
30362W        W46171  14.353  16.840   4.226 -0.0713 -0.0948  0.1334
30363W        W46172   5.274   4.019   0.813 -0.0821  0.0499  0.3297
30364W        W46173   4.518  14.187  14.744  0.1742 -0.2893  0.0097
30365W        W46174  10.504  10.151  15.678  0.0053  0.0582  0.0027
30366W        W46175   8.920   0.384   0.917  0.2222  0.0984  0.0473
30367W        W46176   6.552  12.619  15.072 -0.1943 -0.0945  0.5083
30368W        W46177  13.615   3.314   2.122 -0.1108  0.2271 -0.1845
30369W        W46178  17.478   1.694   5.447  0.3533 -0.0516  0.1894
30370W        W46179   7.907   5.228  11.913  0.3054  0.1346  0.6118
30371W        W46180   5.379   2.324   2.964  0.0595  0.0882  0.1333
30372W        W46181  10.555  11.613  13.046 -0.2048 -0.1696  0.0552
30373W        W46182  11.563  14.119  15.293 -0.1040 -0.5421 -0.1564
30374W        W46183   2.012  10.857   3.980 -0.2285  0.1765  0.4175
30375W        W46184   6.051  17.648  12.346  0.0408  0.1698 -0.1307
30376W        W46185  15.628   6.160  14.323  0.2755  0.1101 -0.2665
30377W        W46186   6.325  10.239  11.757  0.4641 -0.2772  0.0608
30378W        W46187   4.636   1.839   3.447 -0.0118 -0.0246  0.2520
30379W        W46188   2.050   2.757  14.580 -0.3614  0.1233 -0.2786
30380W        W46189   7.007   8.146   3.226  0.0322 -0.2257 -0.2517
30381W        W46190  13.020  10.548   5.339  0.0023 -0.0737 -0.0423
30382W        W46191   9.735   4.019   5.727 -0.0780  0.2010 -0.1374
30383W        W46192   6.183   2.734  15.410  0.2385  0.0020 -0.0464
30384W        W46193   5.287  11.026  15.403 -0.3325 -0.0089  0.1386
30385W        W46194   5.274   7.007  11.818 -0.0417  0.0640 -0.1344
30386W        W46195  15.889  14.771  15.107  0.2466  0.0934  0.0334
30387W        W46196  14.362   6.385  15.874  0.1489  0.1159  0.0931
30388W        W46197  15.326   9.506   2.344  0.0169  0.1788  0.2437
30389W        W46198   6.711   6.225  13.130  0.1029 -0.1094  0.0126
30390W        W46199  16.261  10.114  13.801 -0.1302  0.0125  0.1731
30391W        W46200  15.783  16.007  16.691  0.1174 -0.2285 -0.1526
30392W        W46201   1.858   2.375   1.003 -0.0658  0.0064  0.1859
30393W        W46202  11.046   0.622   3.553  0.2930  0.1063 -0.0674
30394W        W46203   0.434   6.165  12.607  0.2460  0.1490 -0.1578
30395W        W46204   9.424   3.438   0.103 -0.4113 -0.1849 -0.1605
30396W        W46205   5.488   5.878  16.065 -0.1719  0.1736  0.1699
30397W        W46206   6.145   8.040   3.900  0.1454  0.2016 -0.1620
30398W        W46207   9.484   6.087   1.665  0.0803  0.2133 -0.1864
30399W        W46208  16.332   8.232   4.178  0.0887  0.1150 -0.0199
30400W        W46209   6.762   4.770  14.956 -0.0802  0.0836 -0.1888
30401W        W46210   3.208   3.592  12.860 -0.0213 -0.1210 -0.0618
30402W        W46211  15.868   5.628   2.760 -0.1567  0.0655  0.2151
30403W        W46212  15.136   9.097  15.265  0.2446  0.0059  0.0617
30404W        W46213   3.751  10.974   5.018  0.1711  0.1837  0.0195
30405W        W46214   2.370   5.308  16.633 -0.0704 -0.4113  0.0046
30406W        W46215   9.098  16.362   5.388  0.1186 -0.2490  0.3025
30407W        W46216  17.354   9.696  13.554 -0.1274  0.0910  0.0288
30408W        W46217   1.428   9.899  13.988  0.1959 -0.2482  0.1021
30409W        W46218   1.922  16.021   4.162 -0.1327  0.3342 -0.1716
30410W        W46219  12.351  17.822  13.983 -0.2714 -0.0165 -0.0130
30411W        W46220  16.604   3.804  11.913  0.1720  0.0025  0.0470
30412W        W46221   8.949   3.710   3.639  0.1474 -0.2302 -0.2907
30413W        W46222   2.862   2.336  11.133  0.1911  0.2421 -0.1648
30414W        W46223   6.837  15.150   1.333 -0.0545  0.1457  0.0359
30415W        W46224   9.013  16.464  12.920 -0.0708 -0.0887 -0.0648
30416W        W46225  13.181  17.875   4.818  0.1813  0.2415  0.0493
30417W        W46226   5.313  16.517  13.648 -0.2353  0.2708  0.1393
30418W        W46227  13.293   7.834  13.239 -0.1429  0.4253  0.0563
30419W        W46228   7.623  11.208   0.792 -0.1897 -0.3844 -0.0280
30420W        W46229   0.998   4.346   1.664 -0.1156 -0.2380 -0.1370
30421W        W46230   6.186  17.527   1.893  0.1512 -0.0111  0.2626
30422W        W46231  12.505   5.137  15.107 -0.0201 -0.1270 -0.1390
30423W        W46232   7.428  16.295  16.093  0.0052  0.0837 -0.0351
30424W        W46233   5.141   9.951  11.901  0.0265 -0.0448 -0.2384
30425W        W46234  11.116  14.423   5.134 -0.0962 -0.1041 -0.2127
30426W        W46235   5.084   7.868  10.784  0.1714 -0.0002 -0.0279
30427W        W46236   1.094  11.675  15.806 -0.0578  0.4020 -0.1222
30428W        W46237   6.962  15.589  12.847  0.0294  0.0266 -0.3098
30429W        W46238  15.896  15.840   0.524  0.1007  0.0685  0.3241
30430W        W46239  13.772  15.694  15.785 -0.0023  0.2169 -0.1734
30431W        W46240  17.015  12.008  16.204  0.3272  0.1704 -0.0360
30432W        W46241  12.118   1.009   0.982 -0.2188 -0.1131  0.2456
30433W        W46242  16.710   5.737   4.373 -0.2047 -0.2059  0.0477
30434W        W46243  16.119  16.444   4.887  0.1189  0.1496  0.2710
30435W        W46244  13.894   5.729  14.234  0.0814 -0.3502  0.1614
30436W        W46245   6.755  12.153  14.616 -0.0417  0.0446  0.0534
30437W        W46246  14.424   4.026  11.391  0.3599 -0.0292  0.2339
30438W        W46247  12.497   1.168   5.640 -0.0673 -0.1256 -0.0337
30439W        W46248  10.486  14.636   0.293  0.0656 -0.3434 -0.1098
30440W        W46249  10.701  12.010   5.893 -0.2877 -0.1989 -0.0777
30441W        W46250   6.391   4.007   3.876  0.0144 -0.1044 -0.0323
30442W        W46251   2.530   3.070  12.833  0.1751  0.1542  0.1237
30443W        W46252  11.563   9.869  11.767 -0.2290 -0.1085  0.0677
30444W        W46253   6.870  17.219   2.144  0.0335  0.0771  0.2117
30445W        W46254   0.501  11.928  11.503  0.1668 -0.2811 -0.0151
30446W        W46255   8.349  12.871  14.102 -0.2534 -0.0710 -0.0469
30447W        W46256   4.209   7.167   4.530 -0.1611 -0.2214 -0.3040
30448W        W46257  12.438  13.700   1.146  0.2963 -0.1290  0.2254
30449W        W46258   0.345   8.979   0.881 -0.2652  0.1285  0.1158
30450W        W46259  11.170  14.103  15.643 -0.0838 -0.1515  0.1460
30451W        W46260   0.065  17.536  12.516 -0.1512  0.0736  0.1374
30452W        W46261   4.963   4.625  15.955 -0.3234 -0.0141 -0.0767
30453W        W46262  13.792  11.980  15.721  0.0629 -0.1009  0.1403
30454W        W46263   7.645  12.820  13.005 -0.1976 -0.1741 -0.0681
30455W        W46264  15.103  11.162   4.843 -0.1292  0.0421  0.2230
30456W        W46265  12.672   1.865   2.503  0.0408 -0.2263  0.0964
30457W        W46266   8.635   4.327  13.717  0.3447  0.0758  0.3465
30458W        W46267  10.762  14.522  15.473  0.0132 -0.2183  0.2639
30459W        W46268  11.626   5.453  12.164  0.2586  0.1625 -0.2972
30460W        W46269   3.906  10.675   2.936  0.0132 -0.0963  0.1706
30461W        W46270  17.069   4.296  14.388 -0.0532  0.2858 -0.2654
30462W        W46271   3.487  13.749   4.988 -0.0385  0.1252  0.2447
30463W        W46272   9.865   6.894  16.413  0.1169  0.2406 -0.4761
30464W        W46273   1.568  14.989  10.640 -0.0030  0.2939  0.1470
30465W        W46274  14.600  14.773   3.649  0.4146 -0.2668  0.0687
30466W        W46275   3.000   7.157  11.255  0.1647 -0.1582  0.1885
30467W        W46276   9.080   9.676  12.690  0.0846  0.0938  0.1619
30468W        W46277  16.743  11.672   3.970 -0.0498  0.0449 -0.1110
30469W        W46278  14.636   5.355   2.003 -0.2483  0.1380 -0.1986
30470W        W46279   8.462   2.062   0.826  0.1415 -0.2346  0.2630
30471W        W46280   4.196   0.356   3.914  0.0861  0.0497  0.0812
30472W        W46281   0.907  11.906   3.672 -0.0025  0.0399  0.2891
30473W        W46282  11.525  17.720  13.385 -0.1073  0.2299 -0.3609
30474W        W46283  15.831   7.475  13.961  0.0449  0.0953  0.5659
30475W        W46284  10.465  11.036   1.188  0.0030 -0.2795 -0.2255
30476W        W46285   8.715   8.291  11.850  0.2456 -0.3130 -0.2423
30477W        W46286   3.594  10.505   4.947 -0.0950 -0.0307  0.0457
30478W        W46287  16.760   5.903   4.855  0.0878 -0.0873  0.0658
30479W        W46288  15.631  17.135  13.190  0.5040  0.0484 -0.1946
30480W        W46289   5.211   8.232  12.362 -0.0281  0.1468  0.1174
30481W        W46290  16.136  10.775  13.829  0.4053 -0.1084  0.1964
30482W        W46291   4.854  12.146  12.703  0.1128 -0.1344  0.0489
30483W        W46292  13.790  15.835  12.346 -0.2957 -0.0887  0.2080
30484W        W46293  14.884   8.022   3.142 -0.0282  0.1891  0.0274
30485W        W46294  16.202   9.847  12.491 -0.2643  0.1277 -0.1587
30486W        W46295   8.152  10.394   1.976 -0.0140 -0.2531 -0.0311
30487W        W46296   4.221   2.509  13.010 -0.0134  0.0250  0.0204
30488W        W46297   8.561  14.852   6.047 -0.1431  0.1394 -0.0956
30489W        W46298   2.793   7.199   2.693 -0.1433  0.0371  0.2910
30490W        W46299   8.680   8.227   4.008  0.0341 -0.1837 -0.1680
30491W        W46300  11.445   0.264  14.193  0.1650 -0.0075  0.0239
30492W        W46301   4.517  13.194   1.012  0.1712 -0.0680  0.1683
30493W        W46302   1.503   4.351   1.631  0.0426  0.0688 -0.0398
30494W        W46303   9.127  17.364  12.380 -0.1691 -0.1018  0.1507
30495W        W46304   6.979   9.622  11.801 -0.1826 -0.0723  0.0277
30496W        W46305  15.618   5.784  12.529 -0.2860 -0.0031  0.0269
30497W        W46306   9.079  16.814   0.783  0.2688  0.0787 -0.0185
30498W        W46307  12.213   1.125   6.143  0.0572  0.2658  0.0413
30499W        W46308  14.099   7.505  15.079  0.1972  0.2322 -0.1617
30500W        W46309  10.483   6.938   5.423 -0.2166 -0.1874 -0.2319
30501W        W46310   9.358   1.848  11.709  0.2533 -0.1593  0.0683
30502W        W46311   8.773   0.950   2.112  0.0420 -0.2077  0.2074
30503W        W46312   3.463  15.136  12.061 -0.2750 -0.0627 -0.1175
30504W        W46313  10.900   0.206   1.712  0.0916  0.1484 -0.2474
30505W        W46314   4.567   2.023   0.877 -0.0639  0.2666 -0.0656
30506W        W46315   2.627   2.327   3.662 -0.0538  0.2386  0.1137
30507W        W46316  15.540  13.493   3.071 -0.0097 -0.0474  0.2296
30508W        W46317  10.259  14.489   2.487 -0.2156 -0.5779 -0.0837
30509W        W46318  15.504   6.706  13.425  0.0740  0.3232 -0.0141
30510W        W46319  11.042   2.031   0.573  0.0837  0.0262  0.2552
30511W        W46320   7.607  14.477   5.290  0.0706  0.2345 -0.0930
30512W        W46321  11.400   0.523  16.199 -0.0460 -0.0172  0.4112
30513W        W46322   9.056   4.567  13.470  0.1665  0.1720  0.2279
30514W        W46323  14.729   2.853  12.755  0.1451  0.1394  0.1314
30515W        W46324   2.825   6.430   4.312  0.0784 -0.0396 -0.2665
30516W        W46325  15.147   9.547  12.159 -0.4338 -0.2021 -0.3594
30517W        W46326  10.875   2.718   3.990  0.0594  0.1146 -0.0309
30518W        W46327   3.348  15.241   3.513 -0.0673 -0.1777 -0.0802
30519W        W46328   8.798   2.574  13.761 -0.0174 -0.0872 -0.0066
30520W        W46329  16.764   1.596  11.682 -0.0229  0.1748 -0.2126
30521W        W46330   4.078   5.682  13.848  0.0238  0.4900  0.1595
30522W        W46331  15.558   0.740  15.913 -0.0158  0.0272 -0.1123
30523W        W46332   2.559   6.102  12.372 -0.1167 -0.0189 -0.1465
30524W        W46333   3.008   1.372  14.076  0.2900 -0.0926 -0.0217
30525W        W46334  11.505   5.274   4.297 -0.1343 -0.1512 -0.3373
30526W        W46335   6.691   4.118   1.403  0.0971 -0.0136  0.0779
30527W        W46336   1.120  17.313   4.356 -0.1533  0.2547  0.2563
30528W        W46337   4.606   3.821   1.507  0.4439 -0.1301 -0.1686
30529W        W46338   3.994  12.757  14.015 -0.0297  0.0220  0.0251
30530W        W46339   3.387  12.772  14.642  0.0748 -0.1272 -0.1028
30531W        W46340  11.901  16.213   3.827 -0.1179 -0.1006  0.2099
30532W        W46341  17.554   7.211  14.584  0.0421 -0.3725 -0.1325
30533W        W46342   0.556  13.214  13.486 -0.0541 -0.0504  0.0764
30534W        W46343   4.473  17.782   0.412 -0.1645 -0.0838  0.1929
30535W        W46344  14.785  13.889  13.797  0.1161  0.1882  0.0764
30536W        W46345   5.659  12.452  12.636 -0.3809 -0.1067  0.0818
30537W        W46346  10.904  15.310  13.690  0.1768  0.0174  0.2791
30538W        W46347   0.399  14.850   3.119 -0.4737  0.2472  0.1289
30539W        W46348   9.780  16.407  14.968 -0.1313  0.0194  0.0789
30540W        W46349   6.852   8.592  11.931  0.0844 -0.0864  0.2984
30541W        W46350   2.783  17.441   1.006 -0.0924 -0.1549 -0.0494
30542W        W46351  14.016   8.754  15.686  0.2506 -0.1231  0.0264
30543W        W46352   6.440  13.534   5.263 -0.0577 -0.2715 -0.0495
30544W        W46353  16.836  10.996   0.857 -0.0159  0.0609 -0.3440
30545W        W46354   6.385  16.700  14.874  0.1147  0.1167 -0.2650
30546W        W46355   6.274   8.873   5.184  0.1033  0.1687 -0.2583
30547W        W46356  15.297  17.402  12.988  0.0825  0.1400  0.0443
30548W        W46357  10.711   4.947   1.521  0.2425  0.2015  0.0140
30549W        W46358  15.904  15.576  13.413  0.2167  0.0744 -0.1313
30550W        W46359   5.576  12.405   1.639 -0.2383 -0.2359  0.0132
30551W        W46360   1.211   1.478   1.810 -0.0525 -0.2683 -0.0524
30552W        W46361   2.431   1.972  11.500  0.0902  0.0597 -0.0270
30553W        W46362   0.294   8.598  11.001 -0.0560  0.0226 -0.1439
30554W        W46363   7.276   2.466   4.155  0.4891 -0.0062 -0.1044
30555W        W46364   7.334  11.441   1.615  0.3055 -0.0037  0.3709
30556W        W46365   0.743   7.334  13.500 -0.1326  0.0470  0.0138
30557W        W46366   7.131  15.908  15.591  0.2628  0.1099 -0.0757
30558W        W46367  14.956   3.301  15.590 -0.0084  0.3641  0.0241
30559W        W46368   7.402   2.846   0.487 -0.2263 -0.2004  0.0224
30560W        W46369  13.025   3.504   4.442  0.2762 -0.0771  0.1830
30561W        W46370  11.750  17.005   3.012 -0.1130 -0.0026  0.0005
30562W        W46371   8.393  15.751   4.691 -0.1523 -0.1437 -0.0448
30563W        W46372   7.290  13.103   3.511 -0.0853 -0.2670 -0.1937
30564W        W46373   0.294   9.357   3.538  0.0564  0.1793  0.0705
30565W        W46374   8.268  13.285   2.672  0.0618  0.3627  0.0174
30566W        W46375  12.835  12.600  16.391 -0.0051 -0.1597 -0.3020
30567W        W46376  17.831  13.619  15.202 -0.1277 -0.2711 -0.0442
30568W        W46377  15.160  11.954   2.875 -0.0364  0.3015  0.2852
30569W        W46378  15.524   6.444  14.782  0.0828  0.0739 -0.4093
30570W        W46379  10.348   3.111   2.716 -0.0769 -0.0484  0.0841
30571W        W46380  17.596  11.891   1.889  0.2312  0.0699  0.1390
30572W        W46381  14.477  15.355   1.975 -0.0775  0.0724 -0.2339
30573W        W46382  15.927   8.366  13.969 -0.2916 -0.1150  0.0025
30574W        W46383  10.137  10.374  14.641 -0.0759 -0.1366 -0.2010
30575W        W46384  15.280  11.112   2.321 -0.0751  0.1364  0.3623
30576W        W46385   1.206  11.476   1.212  0.1090 -0.1192 -0.0604
30577W        W46386   5.732   6.357   0.831  0.0131 -0.1032  0.1171
30578W        W46387   3.573   8.884  13.721 -0.1702  0.3906 -0.0640
30579W        W46388   8.236  17.188  12.145  0.2582  0.2365  0.2056
30580W        W46389  12.759   3.646  14.659  0.0188 -0.1335 -0.2338
30581W        W46390   8.275   4.919  14.156  0.1848  0.1870 -0.2048
30582W        W46391   3.233  17.358   0.589  0.2450  0.0991 -0.1526
30583W        W46392   7.463  12.028  14.283 -0.3310 -0.3030 -0.1309
30584W        W46393   1.342   3.207  13.565 -0.1961  0.2733  0.0857
30585W        W46394  10.141   7.263   5.150 -0.3865 -0.2957  0.1892
30586W        W46395   1.719  11.529   0.826 -0.3559  0.0933 -0.0532
30587W        W46396   2.503  17.946  15.332  0.1323 -0.1786 -0.2385
30588W        W46397  15.886  10.523   4.243  0.3422 -0.2125 -0.2200
30589W        W46398   3.648   2.246   0.345 -0.1222  0.0221  0.1341
30590W        W46399   1.081   5.678   9.689  0.1659  0.0826 -0.0952
30591W        W46400   4.406  11.838   2.789  0.1201  0.1305 -0.1664
30592W        W46401  15.690   7.727   5.781  0.0488 -0.1071  0.1784
30593W        W46402  11.784   8.699   2.568 -0.2191 -0.0186 -0.0801
30594W        W46403  13.673   0.000  14.239 -0.0413  0.4637  0.1123
30595W        W46404  14.988   2.150  10.184  0.2807  0.0773  0.2734
30596W        W46405  14.718   6.352  13.118  0.1822  0.2029  0.1275
30597W        W46406  17.817  12.620  15.404 -0.1073 -0.0553  0.1070
30598W        W46407  17.488  14.320  13.433  0.1747 -0.2685 -0.1011
30599W        W46408  15.491   9.784   0.839 -0.1113  0.1081  0.1471
30600W        W46409   7.633  10.500   5.202 -0.0075 -0.1415  0.1496
30601W        W46410  17.823  13.748   2.034  0.3123  0.0555  0.0862
30602W        W46411   1.291   0.498  12.710  0.0049  0.0594 -0.2095
30603W        W46412   4.565   8.616  15.798 -0.0235  0.0013 -0.1215
30604W        W46413   7.466   8.872   2.258  0.1307 -0.0699 -0.3040
30605W        W46414  17.670   5.215   0.575  0.0953  0.1595 -0.1825
30606W        W46415  12.708   1.094  15.985 -0.0338 -0.1606  0.3067
30607W        W46416  10.820   9.188  11.385 -0.1622 -0.1054 -0.1054
30608W        W46417   3.965  10.250   4.219 -0.1370 -0.3283  0.2623
30609W        W46418   1.716   8.043  15.598  0.0049 -0.1379 -0.1155
30610W        W46419   2.134  14.419  15.044 -0.4622  0.2828 -0.0406
30611W        W46420  12.257   3.539  14.845 -0.2602  0.0458  0.1490
30612W        W46421  15.374   3.124  11.322 -0.2121 -0.1229  0.0441
30613W        W46422  11.848   9.867   1.807  0.3336  0.1124 -0.1179
30614W        W46423   9.482  17.007   1.136  0.2340  0.2780 -0.2063
30615W        W46424   6.023  17.949  13.619 -0.0177  0.1059  0.0778
30616W        W46425   0.584   2.365  16.131 -0.0173 -0.1474 -0.1206
30617W        W46426  10.924   5.300  15.860  0.1359  0.1854  0.1642
30618W        W46427   1.586  17.869   3.272 -0.3714  0.1406  0.4131
30619W        W46428  17.831  10.847   4.643  0.2643 -0.1720 -0.1178
30620W        W46429  11.334   2.067  13.158 -0.3434 -0.0315 -0.1957
30621W        W46430   4.436   3.632  13.209 -0.2420 -0.1614  0.0388
30622W        W46431  16.805   4.020   0.227  0.2787  0.4093 -0.1715
30623W        W46432   8.645  11.043  15.251  0.0002  0.0953 -0.0406
30624W        W46433  11.112   0.638   4.311  0.0370 -0.1130  0.4242
30625W        W46434   0.336  10.280  11.878  0.2206 -0.0389  0.3492
30626W        W46435   2.475   0.896   4.026 -0.2164  0.0566  0.0765
30627W        W46436  15.260   2.273  15.174  0.2985  0.0216  0.1558
30628W        W46437  15.924   3.936   3.131 -0.1255 -0.0759 -0.1399
30629W        W46438   7.606   1.311   3.840  0.0150 -0.1398  0.1721
30630W        W46439   8.707  12.161   3.212 -0.0341  0.0826  0.1452
30631W        W46440   6.771   3.940  15.313 -0.0913  0.2486  0.1235
30632W        W46441   8.384   5.529   2.977 -0.0222  0.0231  0.1258
30633W        W46442   0.920   9.785  15.220 -0.1959 -0.1049 -0.0472
30634W        W46443   0.322  12.101   2.406 -0.1675 -0.3035  0.3089
30635W        W46444   7.086   9.150  12.552  0.4138  0.2502  0.0888
30636W        W46445  11.506   5.392   1.924  0.0702  0.1565 -0.0930
30637W        W46446  11.270   1.965   5.397  0.0701 -0.3452  0.1531
30638W        W46447   4.157   7.509  11.871  0.0986 -0.1084 -0.1971
30639W        W46448   5.066  12.677  16.129  0.0326 -0.0369  0.4227
30640W        W46449  13.949   2.096  14.976  0.1623 -0.0482  0.1449
30641W        W46450   7.833  16.085   2.107 -0.1703  0.1847 -0.0247
30642W        W46451  11.214   5.853  14.416 -0.1735 -0.1440  0.0120
30643W        W46452  17.745  15.026  13.173 -0.0719 -0.0066  0.0319
30644W        W46453   1.365  15.475   3.740  0.0798 -0.0025  0.0137
30645W        W46454   3.783  17.501   0.770 -0.1462  0.0130  0.1372
30646W        W46455  14.797  11.887   2.545  0.0887  0.2390 -0.1373
30647W        W46456   7.579   1.574   4.329 -0.0997  0.1486 -0.2782
30648W        W46457   5.250   5.004  12.122 -0.1019  0.3457  0.0449
30649W        W46458   6.082  10.668   1.357  0.0701 -0.1648 -0.0397
30650W        W46459   4.504   5.876  11.221 -0.3259 -0.1543  0.0362
30651W        W46460   0.924   2.600  14.809  0.1381 -0.0151  0.1000
30652W        W46461   2.683  10.131  12.792 -0.1218 -0.0032 -0.0828
30653W        W46462  15.985  11.437   0.683  0.1646 -0.1076 -0.1670
30654W        W46463   6.644  15.880  15.693 -0.2181  0.4000  0.0371
30655W        W46464   2.601  13.480   1.173 -0.2444 -0.0280  0.1418
30656W        W46465   2.744   4.860  15.744 -0.0911 -0.1342  0.1126
30657W        W46466   2.357   5.922   3.656 -0.0310  0.1673  0.0016
30658W        W46467  13.646   8.988   3.842  0.4047 -0.1046  0.0305
30659W        W46468   8.492   6.323  14.459 -0.0740  0.0187 -0.2719
30660W        W46469   1.483   4.255  11.556  0.1452 -0.1427 -0.0637
30661W        W46470  15.186   6.311  16.469  0.0075  0.1179 -0.0437
30662W        W46471  16.842   1.138   2.895 -0.1354 -0.1208  0.0399
30663W        W46472   8.199   2.132  15.034 -0.2866  0.1538 -0.1331
30664W        W46473   6.918  16.422   1.502  0.0016 -0.0343  0.3264
30665W        W46474   7.422  10.370  13.670  0.1614  0.0487 -0.0231
30666W        W46475   4.947   9.827  15.785  0.0499 -0.0375  0.0963
30667W        W46476  10.583   9.995  11.704  0.0415 -0.1045  0.0911
30668W        W46477   1.628   9.505  16.217 -0.2962 -0.2556  0.1324
30669W        W46478  12.941   8.662  14.295  0.2416 -0.1399 -0.1206
30670W        W46479   7.325  17.463   3.390  0.0620 -0.0638  0.2232
30671W        W46480  10.505   9.235  16.147  0.0271  0.1370  0.3336
30672W        W46481  15.853  12.504   4.572 -0.1402 -0.1134  0.2311
30673W        W46482  10.842   1.845  13.910 -0.2719  0.0173  0.0145
30674W        W46483   3.594  12.789  13.220  0.2712 -0.0487  0.1429
30675W        W46484   8.380   2.245  11.143  0.0107  0.4013  0.1917
30676W        W46485   4.984  12.775   4.925 -0.1187  0.4340  0.2502
30677W        W46486  16.994   6.263  15.961  0.0594  0.0266 -0.0465
30678W        W46487   5.437  11.006  13.332  0.1822 -0.1492 -0.2317
30679W        W46488  17.009   3.128  12.939  0.0730  0.0495 -0.0305
30680W        W46489   9.351   0.677  14.174 -0.0590 -0.1887  0.0318
30681W        W46490  13.170   4.188   2.141 -0.1455 -0.1159 -0.3604
30682W        W46491   5.629   0.878  13.632  0.2192  0.0127  0.0772
30683W        W46492  13.292  11.626   4.033 -0.3177  0.1189  0.0053
30684W        W46493  10.498  12.782  14.867  0.4150 -0.1354 -0.0945
30685W        W46494   6.871  13.912  12.059 -0.0899 -0.1280  0.2735
30686W        W46495  17.849  13.918   3.391 -0.1111  0.2010  0.1082
30687W        W46496   8.919   2.044   5.396  0.1585 -0.0174 -0.0813
30688W        W46497  11.565  10.528  15.833 -0.0613  0.1471 -0.2382
30689W        W46498   3.754  11.701  16.253 -0.0854 -0.1207 -0.1711
30690W        W46499   8.377   2.516  11.555  0.0057  0.0990 -0.2630
30691W        W46500  10.420  12.346   2.685  0.0494  0.1122  0.1816
30692W        W46501   9.072   2.495  16.541 -0.4125 -0.0302  0.1400
30693W        W46502  15.802  16.850   4.110  0.0339  0.0516  0.1083
30694W        W46503   4.145   0.460   2.694  0.0624  0.3206  0.3066
30695W        W46504   8.089  17.468  12.528  0.0360  0.0168  0.0961
30696W        W46505   9.001   4.167   5.374  0.2317  0.2882 -0.1674
30697W        W46506   2.668   4.814   3.735 -0.0803 -0.2352 -0.1729
30698W        W46507   0.325   3.171   4.505  0.2140 -0.0276 -0.2002
30699W        W46508   7.238  10.524   2.391 -0.1262  0.0129 -0.1339
30700W        W46509   8.482   7.921  13.090  0.0819 -0.1495  0.1026
30701W        W46510  16.082   8.397   4.674  0.1227 -0.1745 -0.0119
30702W        W46511   3.062  14.361  14.537 -0.1650  0.0279 -0.2859
30703W        W46512   4.829  16.852  13.686  0.0029  0.3894 -0.0188
30704W        W46513  16.083  17.650  15.135 -0.0481  0.3433  0.3504
30705W        W46514   3.012   0.111  11.930  0.0950  0.1998 -0.4984
30706W        W46515   9.368  16.014  12.115 -0.4106  0.0053  0.2042
30707W        W46516  15.108  14.755   5.409  0.1499  0.1986  0.2944
30708W        W46517  13.204  17.701   2.508 -0.2071  0.1013 -0.0657
30709W        W46518   3.345   3.830  11.253  0.1754  0.1672 -0.1404
30710W        W46519  11.851   9.223  12.440  0.2609  0.2116 -0.1668
30711W        W46520  11.495  14.657  15.905  0.3411 -0.1368  0.1894
30712W        W46521  14.156  12.361  14.710 -0.0933  0.2935  0.1393
30713W        W46522  17.436  13.868  14.938 -0.1317 -0.1206 -0.2180
30714W        W46523   9.610  10.862   5.355  0.1666 -0.2571 -0.0920
30715W        W46524   9.826   5.595  12.311 -0.1939  0.4586  0.2907
30716W        W46525  17.063  17.438  10.596  0.1421  0.0459  0.2350
30717W        W46526  10.653   2.546   0.324 -0.0027 -0.3058 -0.1440
30718W        W46527  12.396   9.913   3.165  0.2358  0.0837  0.1850
30719W        W46528   6.434  17.694  13.989  0.0658  0.0760  0.0849
30720W        W46529   1.872  15.210  15.736 -0.1880 -0.1829  0.0195
30721W        W46530  12.295   0.968  12.248 -0.1575  0.4000  0.0919
30722W        W46531   9.037  17.895  12.042  0.1580 -0.0837 -0.1599
30723W        W46532   9.111  14.114  12.005 -0.2374  0.0382  0.0136
30724W        W46533   5.119  14.072   1.236 -0.3478 -0.2255 -0.2969
30725W        W46534  16.970   4.143   5.254 -0.1515  0.2864 -0.0459
30726W        W46535   1.566  16.117   1.082 -0.1282  0.2723 -0.1774
30727W        W46536   3.755  10.353   3.319 -0.0805 -0.2169  0.0652
30728W        W46537  10.353  14.957   0.713  0.1295  0.4957  0.4861
30729W        W46538  17.139  16.432  14.567  0.1506 -0.2553  0.0579
30730W        W46539   5.068  13.920   0.668  0.0502  0.0840 -0.2534
30731W        W46540   6.801   3.014   1.270  0.0167 -0.0176  0.1102
30732W        W46541  13.251   0.734   0.595  0.3014 -0.4125  0.1357
30733W        W46542   6.311   0.140  16.171 -0.1737  0.1278  0.0067
30734W        W46543   0.059  10.067  11.382  0.2427  0.1881 -0.4172
30735W        W46544   6.123  10.611   4.347  0.0159 -0.1070  0.1164
30736W        W46545  14.154   7.262   4.325 -0.1401  0.1433 -0.1115
30737W        W46546   9.582   6.256   3.031 -0.0562  0.0175 -0.0013
30738W        W46547  13.296   4.540  15.925  0.0449 -0.0418 -0.0301
30739W        W46548   7.568   9.155  14.842  0.1713 -0.1319 -0.3145
30740W        W46549  15.570  13.714   4.011 -0.2591  0.0791 -0.1322
30741W        W46550  13.065  16.688  11.645  0.0304  0.0967  0.0329
30742W        W46551  13.276  16.170   1.173 -0.2633 -0.1557 -0.2729
30743W        W46552  14.918  17.042  14.397  0.0842 -0.1920 -0.3773
30744W        W46553  10.952  17.912  14.035 -0.0942 -0.2296  0.0551
30745W        W46554  15.479   1.483  12.481 -0.1663 -0.0101  0.1655
30746W        W46555  16.025  10.447   0.636  0.1826  0.1806  0.2360
30747W        W46556   2.308   3.387   3.664 -0.0006 -0.0014  0.1459
30748W        W46557   4.148   5.408   5.030  0.1727  0.2279  0.1792
30749W        W46558   1.430   6.863   2.397  0.0261  0.1422 -0.1109
30750W        W46559   6.811  13.445  15.511  0.0021  0.1416  0.5492
30751W        W46560   9.711  11.736   1.722 -0.3785  0.2098 -0.1351
30752W        W46561   5.498  14.772  15.963  0.2309  0.0629 -0.1475
30753W        W46562  14.149   0.232   1.806  0.2281  0.0414 -0.1347
30754W        W46563   5.780   5.593   4.553  0.0396  0.0225 -0.3359
30755W        W46564  12.421   5.001   0.584  0.1126  0.0353  0.1799
30756W        W46565   2.752  14.738  15.315 -0.2006 -0.0800 -0.3577
30757W        W46566   6.185  15.361  14.547 -0.1947  0.0620 -0.1841
30758W        W46567  15.214   8.623   6.192  0.1954  0.3161  0.1183
30759W        W46568  11.824   8.134  11.704  0.0816  0.1629  0.2229
30760W        W46569  17.757   5.107  14.536 -0.3927  0.0606 -0.2764
30761W        W46570   2.158  14.454   2.700 -0.3352 -0.1087 -0.1325
30762W        W46571   6.889   9.613  14.089 -0.1067  0.0304  0.1648
30763W        W46572   9.210  13.483   2.266 -0.2282  0.1701 -0.2648
30764W        W46573   4.304   1.380   4.782  0.0529  0.0860 -0.1289
30765W        W46574  14.335  12.531  16.392 -0.3448  0.2078  0.5044
30766W        W46575   0.221  14.848  14.232 -0.1715  0.0216 -0.1143
30767W        W46576  11.011   7.365  16.377 -0.2019 -0.1475  0.1369
30768W        W46577  16.271   6.784   2.004 -0.1620 -0.1072 -0.0312
30769W        W46578   1.778   3.875   1.497  0.2725 -0.1942  0.0045
30770W        W46579   1.045   9.283   0.116  0.2634 -0.0585  0.0739
30771W        W46580  12.530   7.752   3.247  0.3553  0.0700 -0.2231
30772W        W46581   3.371  17.312   2.988 -0.0615  0.4224 -0.1185
30773W        W46582   2.210   1.522  15.552 -0.0719  0.0688 -0.1502
30774W        W46583   4.276   0.495  11.348  0.2247 -0.1240 -0.1567
30775W        W46584   7.171  11.428   1.003 -0.0218 -0.0339  0.0081
30776W        W46585  14.420   7.290   1.039 -0.1101  0.1247 -0.0868
30777W        W46586   3.346  16.490  10.977  0.3073 -0.0564  0.2839
30778W        W46587  15.049   7.560  12.750 -0.0619 -0.0035  0.0742
30779W        W46588   6.515   6.383  14.388 -0.1598 -0.1956 -0.1324
30780W        W46589  17.309  12.871  13.741 -0.1726  0.0990  0.1219
30781W        W46590   6.248  16.219  11.467 -0.1159  0.0978  0.1278
30782W        W46591   8.173  13.189   5.552 -0.0071 -0.1203  0.0366
30783W        W46592  12.885  14.775   5.410  0.0407  0.1394 -0.3047
30784W        W46593   7.039   8.859   3.600 -0.1070  0.3141 -0.0879
30785W        W46594   7.136   3.529   4.017 -0.0968  0.2308  0.0994
30786W        W46595  15.121   5.614  12.846 -0.1178  0.0106  0.1075
30787W        W46596   6.242   6.337   0.255  0.0183  0.0694  0.1822
30788W        W46597   2.609  13.665   2.824 -0.1102 -0.1267  0.1677
30789W        W46598   9.487   3.072  13.044 -0.1549 -0.0625  0.2289
30790W        W46599   7.943  11.209   2.900 -0.0435 -0.0404 -0.1819
30791W        W46600   6.663  17.169  13.878 -0.0171 -0.0698 -0.1043
30792W        W46601   9.523  12.618   0.250 -0.0010  0.0737 -0.0492
30793W        W46602  12.330   0.550   5.679  0.3518 -0.0540  0.1704
30794W        W46603  17.178  12.244  11.577 -0.0474 -0.1216  0.1011
30795W        W46604   6.710  11.911   2.231  0.1241  0.4060  0.1841
30796W        W46605  13.454   7.107   0.666 -0.1091  0.0903  0.0744
30797W        W46606   8.314  15.564   5.685 -0.1206 -0.1378 -0.1849
30798W        W46607   2.808  17.303   0.050  0.1902 -0.2217 -0.0190
30799W        W46608   9.503   0.841   0.999 -0.0163 -0.0311 -0.2597
30800W        W46609   8.695  12.911   1.706  0.3075 -0.2728  0.0873
30801W        W46610  12.846  14.585   1.402 -0.1491  0.1013 -0.0391
30802W        W46611  12.827   7.006  13.856  0.1008  0.0459 -0.2927
30803W        W46612   0.047   6.975   0.355  0.2102  0.2369 -0.1113
30804W        W46613   7.188   8.142   5.037  0.0757  0.4959 -0.0601
30805W        W46614  14.340  12.211   5.642  0.1815  0.2483  0.0094
30806W        W46615  17.720   6.322  13.972 -0.1253 -0.0961  0.0628
30807W        W46616   4.414   0.241  14.416 -0.0774 -0.0830 -0.0370
30808W        W46617   4.383  12.819   2.442 -0.0936  0.0403 -0.1663
30809W        W46618  16.384   0.895   2.921 -0.6074  0.1386 -0.1275
30810W        W46619  15.576   3.733  12.736  0.0909  0.0261 -0.3289
30811W        W46620  12.738  13.270  15.115 -0.3473 -0.2687 -0.0115
30812W        W46621   6.437   0.378  14.720  0.1696 -0.1286  0.3491
30813W        W46622  12.311   2.295  11.886 -0.0789  0.3162  0.0187
30814W        W46623   9.071  12.102   4.262  0.4069  0.0617  0.0625
30815W        W46624   5.055   1.409  13.791  0.0006  0.1295  0.0915
30816W        W46625   8.989  17.162  13.923  0.0711 -0.0412  0.0030
30817W        W46626  13.388  14.949   5.607  0.1767  0.1037 -0.3185
30818W        W46627   0.175  16.753   0.397 -0.0342 -0.1534 -0.0511
30819W        W46628  11.325   2.111  16.507 -0.0838  0.2546 -0.0252
30820W        W46629   6.275  12.546  13.526 -0.3980  0.0870  0.2955
30821W        W46630   7.534  16.746  15.843  0.0177  0.1331  0.2752
30822W        W46631   4.113   0.582   1.834  0.0131  0.1750  0.1646
30823W        W46632  13.310  15.904   2.857  0.0046 -0.0522 -0.1717
30824W        W46633  10.366   1.927   5.861  0.2137  0.3037  0.0761
30825W        W46634  13.947   6.603   1.787  0.0471  0.1718 -0.1684
30826W        W46635   9.063   0.136  11.571  0.0900  0.0791  0.1156
30827W        W46636   7.265  14.336   3.807  0.0626  0.1540  0.2611
30828W        W46637  17.289   7.153  11.271 -0.0010 -0.0102  0.4479
30829W        W46638   3.249  10.800   0.023  0.1553 -0.2235  0.1801
30830W        W46639  10.266  10.868   1.980 -0.1246 -0.1435 -0.0551
30831W        W46640  14.913   4.520   3.778  0.0712  0.0567  0.0151
30832W        W46641  14.023   5.730  13.681  0.2619  0.0371  0.0564
30833W        W46642   5.434  17.675   0.268  0.0460  0.1586 -0.2153
30834W        W46643   6.755  12.449   2.345 -0.2682 -0.0245 -0.5542
30835W        W46644  10.254  11.190   4.915 -0.1174 -0.0127 -0.0599
30836W        W46645  11.055   0.232   5.262  0.0854  0.1910  0.0884
30837W        W46646   4.965  11.507  12.242 -0.0552  0.1992  0.2388
30838W        W46647  11.499   1.989   6.083  0.0340  0.1614 -0.0446
30839W        W46648   9.406   4.416  12.096  0.0488  0.1347  0.1973
30840W        W46649   6.354  16.349  14.488  0.2318 -0.0308  0.1433
30841W        W46650  16.979   7.281   4.342  0.2121 -0.0730  0.0944
30842W        W46651   2.885   7.695   2.791  0.3317 -0.2407  0.2036
30843W        W46652   9.118   0.824   0.660  0.3266  0.1004 -0.1106
30844W        W46653   3.622  11.786  13.260 -0.1070  0.0105 -0.0967
30845W        W46654   0.875  11.063  12.765 -0.3801  0.1096  0.1634
30846W        W46655   3.911   1.209   5.149 -0.1937 -0.0256  0.1993
30847W        W46656   7.203   2.548  12.986 -0.0208  0.0912 -0.1247
30848W        W46657   4.456  12.358  15.543  0.0144 -0.1516 -0.1572
30849W        W46658   8.335  17.922   0.293 -0.0307  0.2740  0.4251
30850W        W46659   3.037   8.571  13.005  0.0139  0.0636  0.0314
30851W        W46660   3.844   6.483  14.296  0.2032  0.1086 -0.1983
30852W        W46661  14.945   8.314  13.607  0.0161 -0.2069 -0.0082
30853W        W46662  10.035   0.082   2.637 -0.2166  0.1674 -0.1329
30854W        W46663   4.005  11.047  13.440 -0.0384 -0.1821 -0.2385
30855W        W46664   9.985   9.211  12.642 -0.0276 -0.1537  0.2034
30856W        W46665   1.100  13.342   1.010 -0.2893  0.0754  0.0665
30857W        W46666   6.421   4.279   4.326 -0.0864 -0.1326  0.0515
30858W        W46667  16.986  11.362   3.614 -0.0268  0.2183  0.3282
30859W        W46668  13.825   9.338   4.144 -0.1489  0.3693  0.2301
30860W        W46669  10.696   1.516  15.869  0.1093 -0.0170 -0.0855
30861W        W46670   6.011   1.545   3.755 -0.1459  0.0475 -0.4373
30862W        W46671  12.809  16.367   5.018 -0.3252 -0.1741  0.4189
30863W        W46672  12.453  16.966   3.718  0.1979 -0.1180  0.0489
30864W        W46673   7.031  17.345  16.681 -0.1507 -0.1146 -0.0211
30865W        W46674   9.186   0.228  13.361  0.0113  0.3140 -0.0703
30866W        W46675  10.177   9.481  15.784 -0.0634  0.1760  0.2028
30867W        W46676   8.496  13.749   2.737  0.0532 -0.1763 -0.1805
30868W        W46677  11.767   5.614  15.097 -0.0854  0.0582 -0.1228
30869W        W46678   9.856   3.156   4.038 -0.1467 -0.1801  0.0321
30870W        W46679  16.423  16.180   5.263  0.0315  0.2437  0.1668
30871W        W46680   1.734  17.938  14.198  0.3191  0.0622  0.1114
30872W        W46681  15.831  10.502  12.233 -0.0921 -0.3800 -0.0937
30873W        W46682   5.134   8.982   3.576  0.0089  0.0693 -0.3165
30874W        W46683   6.563  10.741   1.072  0.0411 -0.1431  0.1025
30875W        W46684  10.519  14.630  14.011 -0.1077  0.0617  0.0037
30876W        W46685  10.022   5.356  13.756 -0.1208  0.1975  0.0909
30877W        W46686   3.163   1.595  14.506 -0.0280  0.1112  0.0568
30878W        W46687  16.867  14.033  16.698 -0.3112  0.1089 -0.1420
30879W        W46688   9.802   0.041   4.435 -0.2792 -0.0960 -0.2382
30880W        W46689  15.493  13.956   2.773  0.1186  0.1813 -0.0355
30881W        W46690   9.422  14.994   1.094  0.2390 -0.2330 -0.4447
30882W        W46691   4.744   0.686   4.630  0.0152 -0.3266  0.0405
30883W        W46692   3.813   0.192   5.180 -0.1060 -0.1211 -0.0801
30884W        W46693  11.083  14.323  11.983  0.0476 -0.0431 -0.2466
30885W        W46694   8.088  12.664   5.433 -0.1356  0.0903  0.0420
30886W        W46695   2.446  17.773   0.988  0.0379  0.1447  0.1095
30887W        W46696   4.860   9.515   3.701 -0.3219 -0.1083  0.2113
30888W        W46697   7.468   9.372   1.443 -0.1814  0.1344 -0.3678
30889W        W46698   2.892   9.894   1.824 -0.0011 -0.0204  0.0221
30890W        W46699   8.666   5.682   5.643  0.2906 -0.0908 -0.0239
30891W        W46700   0.835  13.832  16.037 -0.0341 -0.0023 -0.1198
30892W        W46701  16.394   0.768  14.422  0.1783  0.0752 -0.3104
30893W        W46702   9.799  15.008  15.238 -0.1356 -0.0694 -0.2821
30894W        W46703  15.380   4.855   3.076  0.3305  0.0479 -0.0353
30895W        W46704  15.439   6.168   4.727 -0.0214  0.3857 -0.1669
30896W        W46705  14.046   2.375  13.670 -0.2566 -0.0136  0.1350
30897W        W46706   6.345   3.536   4.671 -0.2348  0.1434  0.0035
30898W        W46707   0.057   0.361  16.304  0.0778 -0.0092 -0.2378
30899W        W46708   0.066   6.691  12.048 -0.1729 -0.0830 -0.1520
30900W        W46709   9.612   5.242   0.614  0.0257  0.1881 -0.1035
30901W        W46710   3.611   2.653  13.742  0.0217  0.1622  0.0331
30902W        W46711   1.389   8.935   1.350  0.2353  0.0330  0.2942
30903W        W46712  17.025  17.348   3.638  0.5161  0.1816 -0.2755
30904W        W46713   2.881  11.998   3.523  0.0054 -0.2402 -0.1731
30905W        W46714   4.651   5.346   1.017  0.0496 -0.1148  0.3032
30906W        W46715  12.798  11.632  13.461 -0.2188 -0.0620  0.0946
30907W        W46716   6.308   4.743   2.193 -0.3452  0.1776 -0.2462
30908W        W46717   5.999  11.247  12.514 -0.0454  0.3465 -0.1751
30909W        W46718   8.680  17.323   2.081 -0.0253  0.0322 -0.1666
30910W        W46719   8.682   8.169   4.953 -0.1967 -0.2275  0.0190
30911W        W46720   0.685   8.238  11.954  0.2143 -0.2830  0.2223
30912W        W46721  16.671  16.990   5.350  0.2272  0.1937  0.4495
30913W        W46722   2.115   2.829   2.281  0.0395  0.0059 -0.0454
30914W        W46723  12.099  15.774   0.209  0.2764 -0.1829 -0.1087
30915W        W46724   3.014   8.250  10.357  0.3214  0.2328 -0.0883
30916W        W46725   9.659   3.622  16.029 -0.1248  0.3544  0.3261
30917W        W46726  14.510  11.559  13.436 -0.1171  0.0714 -0.1655
30918W        W46727   0.432   5.021   5.305 -0.1753  0.4768  0.2627
30919W        W46728   4.406   7.567   1.070 -0.0675  0.1392 -0.0986
30920W        W46729  10.394  16.561   1.965  0.1157  0.2060  0.1728
30921W        W46730  12.278  12.843  16.583 -0.0344 -0.1101 -0.0206
30922W        W46731   2.263  10.692  15.088  0.1375  0.2303  0.1332
30923W        W46732  12.510  17.630   5.556  0.0853  0.0326  0.2368
30924W        W46733  16.599  13.826  13.039 -0.0176  0.0932  0.1710
30925W        W46734  12.803  10.079  13.643  0.2373 -0.1434  0.1673
30926W        W46735  12.429   9.335   5.450  0.0535  0.1137  0.1134
30927W        W46736   5.539   5.392   2.508  0.1773  0.1567  0.0879
30928W        W46737  14.579   3.045   4.766  0.1657  0.0532  0.0918
30929W        W46738   8.544  14.694   0.260  0.1187  0.0054 -0.1765
30930W        W46739  13.327  16.251  14.617  0.0650  0.1451 -0.0529
30931W        W46740   9.998   5.811  13.454 -0.0683  0.2623  0.0572
30932W        W46741   1.901   1.706  13.873  0.2715 -0.1094  0.1805
30933W        W46742   1.848   7.319   0.406  0.1800  0.0517  0.0107
30934W        W46743   9.233   7.145   1.052 -0.0395 -0.1124  0.1692
30935W        W46744   3.460  17.255  12.426  0.3487 -0.0233  0.1488
30936W        W46745   9.871  14.147   5.731 -0.0038 -0.1061  0.0005
30937W        W46746   3.697  17.904  15.901 -0.0154 -0.0768 -0.0654
30938W        W46747  11.715  15.071  15.774 -0.2142 -0.2669  0.2796
30939W        W46748   0.832   2.338  16.569  0.0202 -0.0674  0.1530
30940W        W46749  17.199   3.165   0.560 -0.2551  0.4018 -0.0243
30941W        W46750   5.812  12.601   3.386 -0.0686 -0.0696  0.2269
30942W        W46751   1.196   6.250  16.606 -0.1013 -0.0817  0.1157
30943W        W46752   4.357   9.220  11.473  0.2205 -0.0205  0.0644
30944W        W46753   0.175   7.475  11.609 -0.2674 -0.0362  0.1939
30945W        W46754   5.599  13.270  15.533  0.1689 -0.1127  0.1292
30946W        W46755   7.870  14.399  16.043  0.1106  0.1550  0.0231
30947W        W46756   0.779  11.136  15.826  0.2748 -0.0009  0.0676
30948W        W46757  13.834   6.245   2.163 -0.1705  0.0539 -0.0164
30949W        W46758   4.670  17.487   2.663 -0.2920  0.4350  0.2829
30950W        W46759   7.876   7.265   1.402  0.0352  0.2800  0.3273
30951W        W46760  12.305  13.084   5.300  0.0377  0.0081  0.1256
30952W        W46761  15.470  12.993   3.755  0.0910  0.1810  0.2275
30953W        W46762   5.471  12.553  14.392  0.0085  0.2165 -0.2520
30954W        W46763   1.597   9.184   2.197 -0.3471 -0.1086 -0.2354
30955W        W46764  11.050  13.064   6.609 -0.3588 -0.1470 -0.0314
30956W        W46765   3.283  10.113   4.720 -0.2533 -0.3068 -0.1020
30957W        W46766  13.295   8.495   2.368 -0.2627  0.1311  0.3208
30958W        W46767  11.212  10.923  15.304 -0.1047 -0.0068 -0.0369
30959W        W46768   6.417  14.745  16.098  0.2531 -0.2682  0.1320
30960W        W46769  10.992   6.146  15.152 -0.3247  0.0724 -0.1130
30961W        W46770  13.915   0.208   2.621 -0.0605 -0.2467 -0.0820
30962W        W46771  11.980   7.491   1.898 -0.2959 -0.1427  0.0236
30963W        W46772   4.108   9.800  16.292 -0.0839  0.2247  0.1320
30964W        W46773   6.287   2.412  15.776  0.2813 -0.1267  0.1459
30965W        W46774   8.613   6.863   0.420 -0.1799  0.0211 -0.3095
30966W        W46775   9.221   4.574   1.197  0.1044 -0.0162  0.1225
30967W        W46776   4.411   6.240  14.313  0.0167 -0.1318 -0.3038
30968W        W46777  16.365  12.152  14.969 -0.2336  0.0461  0.1334
30969W        W46778   7.158   3.446   6.279 -0.0529  0.1221 -0.3316
30970W        W46779  13.879   6.090  15.880  0.0450 -0.1037  0.2854
30971W        W46780  10.539   9.945  13.846 -0.0006 -0.1629  0.0298
30972W        W46781   8.560  15.982  11.519 -0.3187 -0.0779 -0.0590
30973W        W46782  17.567   1.520  11.596 -0.1018  0.1082 -0.0301
30974W        W46783  15.579  16.951   0.335 -0.0217  0.0514 -0.2477
30975W        W46784   8.255   1.046  16.609 -0.2530 -0.0903 -0.1308
30976W        W46785  11.362  10.989  13.041 -0.0086  0.1298  0.1831
30977W        W46786   1.516   6.726  13.848  0.0806 -0.0961 -0.1407
30978W        W46787   2.407   4.951  16.079 -0.2681  0.4663  0.1156
30979W        W46788   8.027   3.729   5.006 -0.2945  0.2015 -0.1524
30980W        W46789   2.568   9.544   1.688 -0.2906 -0.0719 -0.2874
30981W        W46790  15.733  11.003   2.247  0.1122  0.0664 -0.0052
30982W        W46791   7.276  10.394  14.536  0.1131 -0.3490 -0.0375
30983W        W46792  13.704   1.140   1.589 -0.0366 -0.0905 -0.2468
30984W        W46793  16.609   2.423  12.188 -0.2588 -0.0994 -0.1976
30985W        W46794   1.114  10.177  15.614 -0.0914  0.1652 -0.0352
30986W        W46795   8.196   8.973  14.370 -0.1024  0.0105 -0.0927
30987W        W46796  17.213   2.022   5.063 -0.2311 -0.2190 -0.2121
30988W        W46797   4.091   6.819  12.969  0.1840  0.0413  0.1595
30989W        W46798  14.059  16.360   0.429  0.2683  0.3830 -0.1951
30990W        W46799   2.151  10.972   2.355 -0.0956 -0.0093 -0.1775
30991W        W46800  10.518   1.882   4.505 -0.1593 -0.2274  0.1009
30992W        W46801  15.522  14.050   5.692  0.1195 -0.1991 -0.0328
30993W        W46802  17.711  12.031   0.350 -0.0639  0.2151  0.0069
30994W        W46803   0.912  13.372   0.099  0.0110 -0.1378 -0.0304
30995W        W46804   0.588  13.010   1.809  0.0644  0.1145  0.0169
30996W        W46805  17.870  10.546  11.748  0.3311 -0.0921  0.1173
30997W        W46806   6.115  11.392  14.878  0.1108 -0.2411  0.0892
30998W        W46807   4.399  17.575  14.968 -0.1648 -0.0687  0.3342
30999W        W46808   6.542  15.017  14.579 -0.2104  0.0811  0.0210
31000W        W46809   7.770  13.351   0.387  0.0357  0.0750  0.0709
31001W        W46810   2.860   0.808   4.840  0.2475  0.0114 -0.1569
31002W        W46811   5.572  16.023   0.810  0.0769  0.0846 -0.0683
31003W        W46812  15.001   7.424  14.979  0.1219 -0.1539  0.0693
31004W        W46813   0.083   1.347  12.932  0.0223  0.0141  0.0503
31005W        W46814   4.360   6.652   1.426  0.1981 -0.1935 -0.0720
31006W        W46815  17.906  17.461  11.815  0.0456 -0.3541 -0.1610
31007W        W46816   1.788  15.528   4.076 -0.0671 -0.1235  0.1913
31008W        W46817   0.114   3.237   0.687  0.1515  0.2469 -0.1789
31009W        W46818  17.092   6.703   1.377 -0.2352  0.0132  0.0041
31010W        W46819  17.417   7.149  15.045 -0.0227 -0.4145 -0.2761
31011W        W46820   9.979   5.514  15.600  0.2284  0.0681 -0.2163
31012W        W46821  11.937  17.014  13.705 -0.0601 -0.0370 -0.1000
31013W        W46822  11.591  12.592   0.991 -0.2537 -0.0100 -0.0657
31014W        W46823  13.763   3.163  15.204  0.1531  0.0582 -0.3577
31015W        W46824  10.999   8.264   2.102 -0.1175 -0.2596 -0.2265
31016W        W46825  16.229   4.165  14.910 -0.1377  0.2409 -0.1237
31017W        W46826   1.567  13.118  14.762  0.1983  0.5764  0.0924
31018W        W46827   1.504   3.781   0.301  0.1671  0.1664  0.6059
31019W        W46828   8.168  16.702  13.142 -0.0367  0.3058  0.0705
31020W        W46829   0.388  15.774   3.708  0.0425  0.3234  0.2407
31021W        W46830   6.211   2.087   0.883 -0.0633  0.1012 -0.0072
31022W        W46831   4.522   8.043  15.857 -0.1116 -0.2127  0.0688
31023W        W46832   1.423   5.956   1.999  0.1951  0.0905  0.3056
31024W        W46833   1.477  14.190  11.069  0.1093 -0.1599 -0.2188
31025W        W46834  10.925   9.805  14.154  0.4731 -0.0610  0.2121
31026W        W46835   8.368   5.132   4.735  0.1387 -0.3186  0.0084
31027W        W46836  15.224   4.417   4.162  0.0555  0.1242 -0.0147
31028W        W46837  14.301  17.438  13.689  0.0639 -0.0161 -0.1009
31029W        W46838   4.432   9.273  13.398 -0.3628  0.3119 -0.0629
31030W        W46839  17.647   4.256  14.660  0.0521 -0.0301  0.3256
31031W        W46840   9.259   6.106  11.791  0.0307  0.1325 -0.0305
31032W        W46841  15.906   0.561  15.542 -0.1648  0.3721 -0.0642
31033W        W46842   2.511  10.014   3.111 -0.0189 -0.1404  0.1437
31034W        W46843  15.931  16.628  16.650  0.0649 -0.0760 -0.1020
31035W        W46844  11.635  11.901  13.350 -0.1120 -0.2892  0.2052
31036W        W46845   4.247  12.307   2.394 -0.2485  0.2464 -0.1061
31037W        W46846  17.128   2.413   3.225 -0.0279 -0.1252 -0.1299
31038W        W46847   6.462   9.372   5.968  0.0830 -0.0141 -0.1499
31039W        W46848   8.175  11.836  16.294  0.1420 -0.1455  0.0230
31040W        W46849   3.544  10.291   0.984 -0.0721 -0.0304 -0.0508
31041W        W46850   8.873   2.772   3.592  0.1388 -0.1182  0.0772
31042W        W46851   1.140  17.276   4.873  0.1318 -0.0375  0.3208
31043W        W46852  14.614   2.306   1.667 -0.3930  0.0716  0.0162
31044W        W46853  17.792  15.602   6.623  0.0277 -0.1959  0.1196
31045W        W46854  12.946   7.076   0.599 -0.1322 -0.2294  0.1246
31046W        W46855  14.211   8.450   0.797  0.0437  0.3471 -0.0119
31047W        W46856  12.540   3.247   1.298 -0.0184  0.0636 -0.2296
31048W        W46857  16.861  15.899  13.443 -0.0310 -0.3911  0.1530
31049W        W46858   1.544   3.703   2.908  0.1085  0.1989  0.1608
31050W        W46859  11.188  11.856   5.102  0.0219  0.3082  0.1945
31051W        W46860   2.679  13.460  12.296  0.1340  0.2057  0.1044
31052W        W46861   6.365   3.855   3.327  0.0530  0.1568 -0.1257
31053W        W46862  14.134  16.421  15.241  0.2623 -0.0973 -0.0353
31054W        W46863   4.133   8.374   1.699  0.1303  0.0949 -0.0106
31055W        W46864  14.556  16.971  12.522 -0.3425  0.1901  0.4604
31056W        W46865   2.351   1.066  15.380 -0.1010 -0.0764  0.1367
31057W        W46866   4.036   3.181   1.757  0.3328 -0.1754  0.2641
31058W        W46867  16.883   0.333   1.257 -0.3148  0.1051  0.2417
31059W        W46868  16.973   1.002   0.403 -0.2213 -0.1737 -0.1102
31060W        W46869   1.798  15.644  16.133  0.0331  0.0209 -0.2015
31061W        W46870  11.535   4.949   3.923 -0.0817 -0.1763 -0.0641
31062W        W46871  11.608  11.849  15.823  0.0584  0.4571 -0.1085
31063W        W46872  16.196   1.481   2.486  0.0117  0.0557  0.0512
31064W        W46873   4.742  14.753   0.840  0.1317  0.2378  0.2573
31065W        W46874   9.358   6.762  13.475 -0.1111  0.1344  0.0130
31066W        W46875   9.970  14.735   0.461  0.0905 -0.3745  0.1361
31067W        W46876  15.079  11.045   3.828  0.1805 -0.1802  0.1789
31068W        W46877  11.111   9.856   1.192 -0.1517  0.0219 -0.1388
31069W        W46878   3.434   8.705  15.667  0.1582  0.0598  0.1096
31070W        W46879   2.023  17.664  15.855  0.2444 -0.0447 -0.0552
31071W        W46880   2.075   2.229   3.061  0.2073  0.1313  0.0026
31072W        W46881  10.657   9.731   2.324  0.2041  0.0973  0.1247
31073W        W46882  14.947   2.742  16.517 -0.0918 -0.2272  0.2856
31074W        W46883   2.706   9.800   9.926  0.1908 -0.1443 -0.0760
31075W        W46884  12.442   3.121  14.640 -0.0485  0.3672 -0.0949
31076W        W46885  12.795   9.349  14.888  0.2021  0.1420  0.1577
31077W        W46886  17.625  11.111   0.466  0.2236  0.4815 -0.1722
31078W        W46887   3.334   7.888   3.481  0.1529  0.1435 -0.0704
31079W        W46888   2.436   1.910  12.468 -0.3483  0.0487 -0.2319
31080W        W46889   6.033  15.275  12.787 -0.0041  0.1165 -0.2114
31081W        W46890   3.734   2.127   1.657  0.1098 -0.0903  0.0880
31082W        W46891   9.990   0.974   5.656  0.1522  0.3947 -0.0805
31083W        W46892   2.197  12.616  12.728 -0.0187 -0.2498 -0.1371
31084W        W46893   9.677   1.277   3.341  0.1258 -0.3886  0.0775
31085W        W46894   0.479   4.805  12.986  0.0294  0.3152  0.5089
31086W        W46895   4.808   3.296  13.123  0.0109 -0.1285 -0.0676
31087W        W46896   8.423   4.905   5.359  0.3442  0.4005  0.3082
31088W        W46897  11.435  16.810   6.110 -0.0962  0.4414 -0.0505
31089W        W46898  16.573  14.929  12.118  0.2766  0.1028 -0.0165
31090W        W46899   5.738   0.024  14.285 -0.1180 -0.0140 -0.1261
31091W        W46900  13.386   4.846   5.385  0.0089 -0.1079  0.4235
31092W        W46901  17.694  13.180   1.219 -0.0638  0.2186  0.1037
31093W        W46902  11.057   6.184   5.321  0.0551 -0.0068 -0.1819
31094W        W46903  14.723  11.055  13.183  0.2406 -0.2296 -0.4132
31095W        W46904  17.387  12.571   5.537  0.1084  0.0460 -0.0945
31096W        W46905  16.272  15.360  12.843 -0.1998  0.3447  0.1253
31097W        W46906   6.288   4.763   4.387 -0.2184 -0.3275 -0.0529
31098W        W46907  15.975  14.983   3.830 -0.0824  0.0423  0.2102
31099W        W46908  10.006   3.875  12.276  0.0052  0.1285  0.0058
31100W        W46909   0.407   6.169   0.428  0.3397  0.0842  0.1659
31101W        W46910  11.168   9.318  14.467 -0.0332  0.1656  0.0737
31102W        W46911   3.868   6.695   2.851 -0.0216  0.0980 -0.0653
31103W        W46912   9.057   3.391  15.415 -0.0469 -0.0980  0.1985
31104W        W46913   1.625  10.293  14.846  0.2511 -0.0091 -0.1879
31105W        W46914  11.913   7.565  13.713  0.0118 -0.0316  0.0836
31106W        W46915  17.518  14.999   0.664  0.1068 -0.0480  0.3343
31107W        W46916   3.601  10.145  12.058  0.1136  0.1581 -0.0105
31108W        W46917  16.815   8.150  14.543 -0.1905  0.0502 -0.2783
31109W        W46918  14.141   8.439  11.459 -0.0126  0.3234 -0.4356
31110W        W46919   7.837  12.594  16.525 -0.0161 -0.1701 -0.0714
31111W        W46920   7.997   5.448   4.718 -0.1082 -0.0582  0.4237
31112W        W46921   1.631  12.671   2.911 -0.1276 -0.2683 -0.6226
31113W        W46922   2.092   2.955  13.218  0.1399 -0.0243  0.5754
31114W        W46923   9.162   2.967  13.899  0.0011 -0.2125 -0.1066
31115W        W46924  14.001  17.339   0.629  0.0940 -0.0563  0.2518
31116W        W46925  16.156  17.857   1.669  0.0230  0.2924  0.3364
31117W        W46926  15.247  12.055  15.545  0.0597  0.3500 -0.0143
31118W        W46927  16.932   3.297   1.990  0.3844 -0.1087 -0.0178
31119W        W46928   4.080  17.909  14.738  0.1615  0.2670  0.1858
31120W        W46929   3.373   8.303   3.190 -0.2082  0.3210 -0.2131
31121W        W46930   7.280   7.514  15.409 -0.4359  0.0016 -0.2536
31122W        W46931   2.790  13.927  16.502  0.0398  0.0922 -0.0071
31123W        W46932  16.097  14.090   2.990  0.0736 -0.0232 -0.0895
31124W        W46933  14.959  11.488   0.325  0.0812  0.0778  0.1564
31125W        W46934  15.154   2.228   4.372  0.4356  0.3271  0.3175
31126W        W46935   2.707   4.687   4.201  0.0566 -0.0056  0.3080
31127W        W46936  10.387  12.751   0.020 -0.0326 -0.3031 -0.0005
31128W        W46937  12.780  12.174  14.828 -0.2997  0.2181  0.1111
31129W        W46938  16.758   9.389   2.025  0.0236  0.1393 -0.0315
31130W        W46939  11.019   8.924  12.684 -0.1224 -0.1942  0.1420
31131W        W46940  16.914  16.192   0.565 -0.0000  0.1949 -0.2571
31132W        W46941  17.493   1.457   1.656  0.0713 -0.1075 -0.2098
31133W        W46942  16.381  13.742  13.517  0.2850 -0.1301 -0.3216
31134W        W46943   3.596   6.361  13.799  0.2358  0.1215  0.0475
31135W        W46944   5.408   0.014   0.943  0.0464  0.1213  0.0117
31136W        W46945  14.555   4.429  11.107 -0.0313 -0.1049  0.1484
31137W        W46946  15.999   6.704  13.731  0.0364 -0.3090  0.2366
31138W        W46947   0.716   9.916   3.831 -0.0755  0.0919  0.2010
31139W        W46948   6.795  14.018  14.506  0.2265  0.0730  0.1214
31140W        W46949  10.470  16.049   2.214  0.0874 -0.4573  0.3860
31141W        W46950   6.146   8.364   2.260  0.1000 -0.4113  0.0572
31142W        W46951   7.468   9.740  11.352 -0.0459 -0.0754 -0.1140
31143W        W46952   1.310   9.076  14.107 -0.4352 -0.0660  0.0165
31144W        W46953  15.086   8.441   3.116 -0.2113  0.3965  0.2035
31145W        W46954  13.787  13.486   4.470  0.0744  0.3208 -0.1823
31146W        W46955   1.735   5.632  15.282  0.0757  0.0303 -0.1140
31147W        W46956  15.344  16.172  14.070 -0.6849  0.0880 -0.2140
31148W        W46957   5.480  15.525   3.052  0.0765  0.1007 -0.1979
31149W        W46958   8.328   0.207  13.123  0.0440 -0.4194 -0.0253
31150W        W46959  12.495  14.815  15.970 -0.2265 -0.0543 -0.0317
31151W        W46960   7.381   8.133   2.432 -0.1912 -0.1862 -0.1936
31152W        W46961   3.009  15.576  15.383  0.0241 -0.0302  0.0766
31153W        W46962  16.413  17.582  13.044  0.1324  0.3633  0.1109
31154W        W46963  16.328   0.407  12.884 -0.0531 -0.1830 -0.0917
31155W        W46964  15.326  12.857  12.441  0.2802 -0.1738  0.1120
31156W        W46965   2.265   0.709   2.074 -0.0738  0.1699 -0.1775
31157W        W46966   2.319   3.724  12.029 -0.0574  0.0036  0.1412
31158W        W46967  11.174   2.409   1.722  0.1668 -0.0466 -0.1463
31159W        W46968  13.080   4.276   0.356  0.0463  0.0217 -0.2542
31160W        W46969  16.026   4.728   3.830  0.1473  0.2325 -0.0038
31161W        W46970  17.520  14.203  12.630 -0.2805 -0.0112  0.2046
31162W        W46971  10.022  11.886   2.111  0.0003  0.0209 -0.1216
31163W        W46972   6.426  13.154   4.920 -0.0725 -0.0662  0.1585
31164W        W46973   6.301  10.522  13.206 -0.1586  0.1155 -0.1672
31165W        W46974  15.788  17.770   3.267 -0.2245 -0.1451 -0.0201
31166W        W46975   8.494   3.855   1.269  0.0994  0.1570 -0.0391
31167W        W46976  16.756  12.724   5.674  0.0574  0.1075 -0.0936
31168W        W46977  17.004   4.146  15.267  0.0779 -0.0131  0.0012
31169W        W46978   5.252  16.415   2.565  0.0975 -0.2519  0.3077
31170W        W46979   3.853   6.029   3.885  0.0210  0.0375 -0.0130
31171W        W46980   4.281  15.696  13.162  0.0258 -0.0041 -0.3017
31172W        W46981   7.816  12.608   4.932  0.0603  0.1865  0.0191
31173W        W46982   4.464   6.318  15.920  0.0028 -0.1322  0.1836
31174W        W46983   0.745  11.293   5.713 -0.1215 -0.3380  0.2236
31175W        W46984  12.888   0.203  11.900  0.3405  0.1772 -0.0806
31176W        W46985   0.292   8.435  14.718  0.4052 -0.2169 -0.0502
31177W        W46986  10.681  13.262  13.299 -0.2497  0.0225 -0.0888
31178W        W46987   4.943   9.279  14.990 -0.1124 -0.2983  0.3030
31179W        W46988  16.797   7.637  12.437  0.0063 -0.0845 -0.0801
31180W        W46989   2.057   0.604  14.650 -0.2448 -0.5477  0.0161
31181W        W46990  15.898  16.905  12.025  0.0345  0.1259 -0.2695
31182W        W46991  12.122   5.265   0.891  0.1528  0.0294  0.1134
31183W        W46992   6.867   3.640  16.633 -0.1458 -0.5536 -0.2491
31184W        W46993  13.818   5.725  12.386 -0.1341  0.1197  0.0170
31185W        W46994  14.446   3.358   0.183 -0.1248 -0.0080  0.1331
31186W        W46995  10.801  14.137   3.324 -0.3009 -0.0438  0.2419
31187W        W46996  10.693   2.320  13.763  0.0617 -0.2044  0.2262
31188W        W46997   1.527  11.341  15.096 -0.1063  0.0468  0.0403
31189W        W46998   6.870  14.237   2.485 -0.2113 -0.1493  0.0681
31190W        W46999   6.891   6.013  14.175 -0.0511  0.1941 -0.1916
31191W        W47000  13.810  12.712  11.509  0.3497  0.4014  0.0770
31192W        W47001   8.217   0.855   2.692 -0.1813  0.1402  0.2357
31193W        W47002  12.947  15.010  12.493 -0.2946 -0.2170  0.2366
31194W        W47003   8.945  11.192  15.826 -0.2154 -0.0453  0.2702
31195W        W47004  10.581   7.078   1.246 -0.0359 -0.1399 -0.1960
31196W        W47005   0.027   5.433  11.385 -0.0066 -0.0141  0.0565
31197W        W47006   8.319  13.343   1.707  0.1875 -0.0537 -0.2054
31198W        W47007   2.121  15.916  11.212 -0.2607 -0.0635  0.1699
31199W        W47008  17.306   5.025  10.474  0.3618 -0.1984 -0.4190
31200W        W47009  11.882  14.010   4.189 -0.4393  0.1423 -0.0372
31201W        W47010   2.296   7.147  13.209  0.0463 -0.0408  0.3067
31202W        W47011   8.740   2.217  12.255  0.4811 -0.1921 -0.1915
31203W        W47012  13.040   2.742   1.052 -0.2530 -0.1983  0.0857
31204W        W47013  10.067   2.534   1.705 -0.0105  0.3844  0.1656
31205W        W47014   9.867   1.654  14.262  0.0255 -0.2859 -0.0976
31206W        W47015   1.984   4.925  11.150 -0.0534  0.4771 -0.0887
31207W        W47016   4.199   0.213  13.160  0.2744 -0.0321 -0.2266
31208W        W47017   0.732   2.213  14.056  0.1138 -0.1214 -0.1487
31209W        W47018   0.321  14.161  16.289 -0.1778 -0.2261  0.1410
31210W        W47019  14.476   6.197   1.880 -0.2106  0.0733  0.1206
31211W        W47020   4.096   4.327   3.338  0.2513  0.3332 -0.1067
31212W        W47021   8.597  10.222   4.957  0.1682  0.1049 -0.2203
31213W        W47022  13.482  11.906   3.591  0.2499  0.3848  0.1505
31214W        W47023  17.310  17.646   4.677 -0.2140  0.0346 -0.3161
31215W        W47024   2.291  12.090  14.691 -0.0946 -0.0372 -0.1903
31216W        W47025   7.308  10.297   5.762  0.0202 -0.1078  0.2512
31217W        W47026   8.400  12.432  15.370  0.0036  0.0433 -0.5183
31218W        W47027   0.306   1.029  16.124  0.3547  0.0732  0.1478
31219W        W47028   1.655   8.552  13.174 -0.1772  0.2249  0.4135
31220W        W47029   5.960   7.831  15.420 -0.1176 -0.3913  0.2665
31221W        W47030   8.663   9.297  14.416 -0.1907 -0.1601  0.0588
31222W        W47031   9.960   4.091  15.428 -0.1836 -0.3775  0.3506
31223W        W47032   3.470   3.865  15.968 -0.2544  0.1245  0.0227
31224W        W47033   7.387  17.395  15.866  0.1690  0.3337  0.0128
31225W        W47034  13.979   9.579  15.332  0.0303 -0.0970 -0.0162
31226W        W47035  10.433  12.118   0.302 -0.0829  0.2212 -0.0385
31227W        W47036  15.230   2.871   4.169  0.3814 -0.0247  0.0786
31228W        W47037  10.833  13.543  16.135  0.0954 -0.0943 -0.2814
31229W        W47038   0.562  13.226   4.278 -0.1000 -0.0317  0.3951
31230W        W47039   0.686   0.004   4.932  0.3754 -0.1119  0.2517
31231W        W47040   0.264   3.712   0.533  0.3130  0.1179 -0.1014
31232W        W47041   1.776   3.650  11.618 -0.0568 -0.0623  0.0174
31233W        W47042  10.484   7.527   4.354 -0.2745  0.0365 -0.1023
31234W        W47043  17.597  13.023  12.452 -0.0965  0.1196 -0.1816
31235W        W47044   3.367  16.816   5.201 -0.0641 -0.0038  0.2815
31236W        W47045  15.148   9.506   4.507  0.1356 -0.2028  0.0004
31237W        W47046   2.807   1.973   1.792  0.1787 -0.2249 -0.0622
31238W        W47047   1.343  10.386   3.416 -0.0925 -0.2121 -0.0511
31239W        W47048   1.427  15.231   2.244 -0.1597 -0.1086  0.2406
31240W        W47049  17.301  12.554   2.581  0.0275  0.1098  0.1488
31241W        W47050  15.041   4.039   2.569  0.3420  0.0607  0.0252
31242W        W47051  16.465  10.123  15.033 -0.0575  0.0536  0.0722
31243W        W47052  17.197   5.061   3.283  0.0234 -0.0007  0.1748
31244W        W47053   7.767  13.592  14.206  0.0196 -0.3717 -0.1806
31245W        W47054   1.313  14.314  14.838  0.0726 -0.3380 -0.1576
31246W        W47055   0.456   6.619  12.334 -0.0139 -0.1430  0.3862
31247W        W47056  11.329  15.048  16.692 -0.0872  0.2029  0.1559
31248W        W47057  13.908   9.179   5.540  0.0946  0.0650 -0.2264
31249W        W47058   9.449  10.989  12.971  0.0300  0.3180  0.5050
31250W        W47059   1.963  15.344   2.466  0.2214  0.2065 -0.0248
31251W        W47060  14.685  10.008  14.398  0.6815  0.1005 -0.1310
31252W        W47061  17.913   0.605  12.897  0.2413  0.0739  0.1920
31253W        W47062   1.160   9.778   0.279 -0.1694 -0.0552  0.0359
31254W        W47063  15.436  17.378   4.840  0.1246 -0.0358  0.0918
31255W        W47064  14.440   1.956  15.471  0.0466  0.1336  0.1045
31256W        W47065   2.315  13.224  15.731  0.1960  0.0316 -0.1268
31257W        W47066  14.153  15.537  12.255  0.1949 -0.1624 -0.0572
31258W        W47067   0.336  11.390   4.953  0.0370  0.0807  0.1302
31259W        W47068  14.339   3.628  15.908  0.2634 -0.0649  0.3104
31260W        W47069   2.929   5.827   0.274 -0.0919  0.4539 -0.1625
31261W        W47070   5.962   9.146  12.581 -0.2311  0.1001  0.1499
31262W        W47071  15.792   2.732  16.013  0.1672  0.1723  0.1400
31263W        W47072  14.090   4.341  16.407 -0.1954 -0.0249  0.0849
31264W        W47073  14.677  14.830  13.504  0.1514  0.2793 -0.0312
31265W        W47074  14.784   9.220  11.694 -0.0297 -0.0201  0.0344
31266W        W47075  12.266   6.347  15.163  0.2262  0.0313 -0.0125
31267W        W47076   0.767   1.912  13.162  0.0280 -0.0859 -0.0332
31268W        W47077  12.517  13.949  12.486 -0.2520 -0.3733  0.1442
31269W        W47078  13.840  10.398   2.239 -0.0288  0.2235  0.1300
31270W        W47079  15.698   7.506   0.465  0.1867  0.4731  0.0462
31271W        W47080   3.078  17.896   1.862  0.1358 -0.0434 -0.1855
31272W        W47081   7.336  15.879   2.618  0.2467  0.2731 -0.1699
31273W        W47082  13.356   3.462  13.898 -0.1908  0.0141  0.0861
31274W        W47083   7.127  12.156   0.401  0.1493  0.1878  0.0461
31275W        W47084   8.037  14.515  14.987  0.1194  0.2387 -0.1543
31276W        W47085  14.147   7.807  15.451 -0.0279 -0.1216 -0.3683
31277W        W47086   7.607   4.872  12.733  0.1336 -0.3325 -0.0376
31278W        W47087   3.345   2.657  14.194 -0.3666 -0.0174  0.0212
31279W        W47088  14.311   1.965  12.902 -0.1010  0.0907 -0.1640
31280W        W47089  10.089   9.828   0.253  0.0304  0.1560 -0.0589
31281W        W47090   8.473   4.081  14.582 -0.1354 -0.2049 -0.0456
31282W        W47091  16.466   0.037  16.644 -0.1141  0.2010  0.0583
31283W        W47092  15.994   1.914  14.499 -0.3398 -0.0878  0.1434
31284W        W47093   4.904   5.712  12.385  0.0316 -0.3311 -0.0303
31285W        W47094  13.053   5.129  15.808  0.0609  0.0521  0.2689
31286W        W47095  16.889  16.595  11.785 -0.3110  0.1336  0.0254
31287W        W47096   2.506   2.823  13.545  0.0633 -0.0246  0.0813
31288W        W47097   9.336   0.335  15.554 -0.2201  0.1363 -0.1243
31289W        W47098   9.678   4.154   4.808  0.1013 -0.1503  0.2143
31290W        W47099  14.712   4.820  14.711 -0.0453 -0.1202  0.2370
31291W        W47100   6.305   6.320  11.999  0.1271 -0.2988 -0.1710
31292W        W47101  14.695  17.747   2.334  0.3380  0.0255 -0.0439
31293W        W47102   1.705  15.506  16.634 -0.0858  0.0346 -0.0603
31294W        W47103  12.372  12.924  14.938  0.1144 -0.1482 -0.0571
31295W        W47104   8.563  16.763   1.488  0.0995  0.0230 -0.2537
31296W        W47105  11.765  16.686   4.925  0.0116  0.0650 -0.0698
31297W        W47106   6.506   4.900   3.835 -0.0640 -0.0412 -0.0786
31298W        W47107  10.077  17.023  13.730  0.0205 -0.0427  0.1224
31299W        W47108   3.097  16.882  11.222  0.2275 -0.0804 -0.3930
31300W        W47109  13.718  15.702   5.736  0.1795 -0.2400  0.3116
31301W        W47110  16.226   7.473  14.419  0.0545  0.3580  0.1702
31302W        W47111   2.381   3.228  15.963 -0.2208  0.1541 -0.1061
31303W        W47112  13.074  15.166  11.961 -0.4072  0.0585  0.0774
31304W        W47113  12.912   3.355  13.630 -0.1297  0.0492 -0.2500
31305W        W47114   5.948  17.433   2.669 -0.1068  0.1408  0.2706
31306W        W47115   4.001   2.403   2.369  0.1577  0.1488 -0.0127
31307W        W47116   4.344   9.214   1.922  0.1932  0.0352 -0.0958
31308W        W47117  10.368   3.873  16.268 -0.0891  0.1559 -0.0608
31309W        W47118  14.579  11.467   1.063 -0.1337 -0.3380  0.0047
31310W        W47119   7.506  13.059  14.265 -0.3516 -0.0579 -0.0639
31311W        W47120  17.420   0.445   4.259 -0.0176 -0.1043  0.0562
31312W        W47121   6.111   2.080  13.991 -0.0690 -0.0913 -0.0222
31313W        W47122   7.820   1.326  12.672 -0.0470  0.0446  0.1454
31314W        W47123   9.218   9.446  13.822 -0.0563 -0.2385  0.1613
31315W        W47124  12.446   0.231  12.096 -0.0257  0.1470 -0.1122
31316W        W47125  17.223   4.502   1.960 -0.4105 -0.1921 -0.0632
31317W        W47126   8.742  10.329  16.496  0.3691  0.1494  0.0688
31318W        W47127   2.291   8.288   0.384 -0.0366  0.0438  0.1384
31319W        W47128   6.526   6.911  13.742  0.1677  0.0999 -0.0558
31320W        W47129   9.220   5.738   0.447 -0.5661 -0.0181  0.1060
31321W        W47130  16.522   6.095  16.062  0.0645  0.1590 -0.1166
31322W        W47131   8.748   5.434  12.310  0.2166 -0.0712  0.0882
31323W        W47132   4.282  13.170   1.496 -0.2092  0.0808  0.2745
31324W        W47133  12.537   4.703   5.655  0.0639  0.0535 -0.1355
31325W        W47134   1.863  14.348  16.117 -0.2132 -0.0484  0.0358
31326W        W47135  15.337  16.990   2.888  0.0917  0.2222  0.1677
31327W        W47136   2.764  10.425  12.316 -0.1269  0.1543 -0.2857
31328W        W47137   6.953  14.255   1.232  0.1065 -0.0624 -0.1560
31329W        W47138   1.188   5.070   1.331 -0.0284 -0.0496 -0.0815
31330W        W47139  14.863   6.337  16.009  0.1654  0.0379  0.1689
31331W        W47140   2.847   3.566  12.457  0.0372  0.0500  0.2109
31332W        W47141  11.190   4.307  16.036 -0.2395  0.1565 -0.0481
31333W        W47142   2.146   5.122  11.624 -0.3119  0.1250  0.0486
31334W        W47143   4.341   5.897   4.393  0.2876  0.0978 -0.1139
31335W        W47144   6.804   9.025  15.342  0.2838  0.2079 -0.0653
31336W        W47145  15.852   0.721   1.921  0.1098  0.0341  0.1624
31337W        W47146   6.045   8.815   2.783 -0.0066 -0.1341  0.0199
31338W        W47147  13.507  12.072  10.429 -0.2187 -0.1614 -0.0491
31339W        W47148  12.236   1.523   2.250 -0.2282  0.2495 -0.0140
31340W        W47149  12.127  16.694  15.911  0.0729 -0.3908  0.0470
31341W        W47150   9.592  14.007   3.564 -0.2236  0.5197  0.0298
31342W        W47151  10.348   2.776  12.912  0.4012 -0.2678  0.0024
31343W        W47152  15.590   5.056   5.553 -0.3020  0.1388 -0.2506
31344W        W47153   9.276  14.804   4.852 -0.0439 -0.4940  0.0400
31345W        W47154   8.887   0.025  13.076 -0.1232 -0.2992  0.2465
31346W        W47155   5.698   0.153   4.862  0.0604  0.0011  0.2256
31347W        W47156   2.993   9.696  14.596 -0.0722 -0.0260 -0.0225
31348W        W47157  13.235   0.583  12.990 -0.3594  0.0092  0.0876
31349W        W47158  11.695  15.356   0.122  0.1800  0.1269  0.0207
31350W        W47159   6.167  12.283   0.438  0.0322  0.0462 -0.0388
31351W        W47160   9.564   9.443  12.914 -0.1017 -0.2096 -0.0189
31352W        W47161   0.612  15.794  12.499 -0.0971 -0.4728 -0.0145
31353W        W47162  17.902   8.548  11.357 -0.2306  0.6230  0.0639
31354W        W47163  16.861   2.515  11.698  0.0185 -0.1983 -0.1133
31355W        W47164  12.023  10.275  13.868  0.0147  0.1254 -0.0064
31356W        W47165  14.775   6.419  12.555 -0.1427 -0.0461  0.0570
31357W        W47166  14.511  16.830  13.883  0.1552 -0.0232  0.0017
31358W        W47167   4.869   3.595   5.990 -0.0749 -0.2542  0.2829
31359W        W47168   7.246   4.227   4.755 -0.2155  0.1949  0.1291
31360W        W47169  17.704  17.887   3.804  0.1446 -0.1401  0.0501
31361W        W47170   3.317  12.797   4.890  0.2096 -0.0074 -0.1381
31362W        W47171   1.096   5.598   2.286 -0.0871  0.0475 -0.2155
31363W        W47172  12.526  10.571  14.797 -0.3405 -0.2838  0.0896
31364W        W47173   9.048  15.603  12.954  0.0759  0.0086  0.1366
31365W        W47174   8.522   6.591  16.263 -0.2504  0.4314  0.1441
31366W        W47175   0.544  11.897   4.304 -0.2052 -0.0876 -0.1837
31367W        W47176  11.020  17.703  15.714  0.1037 -0.0502 -0.0361
31368W        W47177  15.506  10.023  13.658 -0.0437 -0.0774 -0.1299
31369W        W47178   2.179   2.076   3.570  0.0906 -0.3742 -0.1007
31370W        W47179  11.892  16.017   6.008 -0.2759 -0.3669 -0.2040
31371W        W47180   6.384   9.453  12.214 -0.0957  0.1248 -0.0434
31372W        W47181  16.666  14.508   4.694  0.3495 -0.0113 -0.1554
31373W        W47182  12.659  12.685  12.315 -0.1268  0.0367  0.2790
31374W        W47183   6.616  10.810  15.067 -0.1312 -0.0735  0.3818
31375W        W47184   5.282   7.756  14.180  0.1602 -0.0163 -0.1374
31376W        W47185  16.925   3.548  11.660 -0.4409 -0.0917 -0.0291
31377W        W47186   2.857  15.705   3.596  0.4211  0.0867 -0.1901
31378W        W47187   7.547  13.559   1.059  0.2971 -0.0235  0.0550
31379W        W47188   1.280  15.534  11.384  0.0163  0.2217  0.0986
31380W        W47189  15.811  13.987  11.829 -0.2945  0.1082 -0.0766
31381W        W47190   6.918  12.571   4.325 -0.1244  0.1554  0.0212
31382W        W47191  13.404  12.339  12.688  0.3542  0.1602  0.0126
31383W        W47192   7.834   5.663  14.619  0.0515  0.1641 -0.0373
31384W        W47193   3.679  12.283  10.401  0.0608  0.0743 -0.2569
31385W        W47194   0.777   1.069   4.229 -0.1215  0.1174  0.0040
31386W        W47195   0.972  12.773  13.778 -0.4455 -0.3231 -0.0631
31387W        W47196  14.047   4.317   1.669  0.1855  0.1100  0.3581
31388W        W47197   3.084  13.661  13.103 -0.1283  0.1287  0.0265
31389W        W47198   2.718   6.651   3.784 -0.1117 -0.0589  0.3164
31390W        W47199   9.916  14.178  15.816 -0.0061 -0.0004 -0.1032
31391W        W47200   8.269   9.668  12.110  0.2743  0.0238  0.0230
31392W        W47201  12.280  13.994  14.759  0.0020  0.0274 -0.1681
31393W        W47202  16.318   7.355  12.543  0.4374 -0.0845  0.3105
31394W        W47203  17.878  15.098   4.084 -0.0630 -0.0364 -0.1693
31395W        W47204   0.135   8.251  15.149 -0.0327  0.0234 -0.0324
31396W        W47205  12.019  12.512   0.201 -0.0541 -0.0633 -0.0075
31397W        W47206  11.585  11.073  14.335  0.2354  0.1449 -0.1382
31398W        W47207  14.333  12.385   0.994  0.1036 -0.1284  0.2683
31399W        W47208   6.450   1.634   4.139  0.2407 -0.0255 -0.0683
31400W        W47209   6.926  13.885  15.107  0.0869 -0.2771 -0.0181
31401W        W47210  12.750   1.304  13.473 -0.0859  0.0217 -0.1041
31402W        W47211   8.846   5.558   0.188  0.0802  0.1359 -0.4162
31403W        W47212  14.230  10.328   3.134 -0.0268  0.5121 -0.4772
31404W        W47213   0.952  12.449  12.671  0.1869  0.0267 -0.2524
31405W        W47214  17.648  16.782  15.252  0.2716  0.0960 -0.0499
31406W        W47215  17.137   6.741  14.747 -0.2084 -0.2480  0.4451
31407W        W47216  16.546   9.315   4.772 -0.0720 -0.0283 -0.0067
31408W        W47217   7.328   9.695  16.469 -0.0759 -0.0082  0.0758
31409W        W47218   1.698  17.517   4.222 -0.0190 -0.1529 -0.1026
31410W        W47219   8.596   9.587  16.212 -0.0561 -0.2350 -0.2415
31411W        W47220   2.701  12.110  11.939  0.2213  0.1509  0.0375
31412W        W47221  12.854   4.773   5.220  0.0646  0.3675 -0.0989
31413W        W47222   6.498   2.241  14.192 -0.1401 -0.0861 -0.0172
31414W        W47223  16.399   5.614  13.370  0.0073  0.2028  0.2955
31415W        W47224  10.921   7.796  11.882 -0.2871  0.0245  0.2808
31416W        W47225   6.939  16.111  12.140 -0.0820  0.0310 -0.0580
31417W        W47226   1.619  11.932   4.276 -0.1913  0.0230 -0.1514
31418W        W47227  12.423  15.655  11.574 -0.1939 -0.1145 -0.1155
31419W        W47228   8.634   8.788  15.663  0.0644 -0.1869  0.0440
31420W        W47229  15.733  14.979   1.553  0.3072 -0.1714 -0.1847
31421W        W47230   8.640  17.362   1.461 -0.1579  0.0526  0.1037
31422W        W47231  10.655   0.122   2.824  0.0279 -0.0287 -0.4385
31423W        W47232   3.972   7.029   0.231 -0.2961 -0.1944  0.0242
31424W        W47233   5.002  11.330   3.260  0.0174  0.3546  0.1192
31425W        W47234   4.832   6.749  11.929  0.2205  0.0356 -0.1804
31426W        W47235  13.144  15.337  15.758  0.0756  0.0325 -0.1080
31427W        W47236  13.118   7.321  11.911  0.1057 -0.1843 -0.2379
31428W        W47237   6.555   5.311  12.325  0.0239  0.2059  0.1914
31429W        W47238   6.990   2.107   1.603  0.0567  0.0085 -0.1050
31430W        W47239   9.000   1.742   0.548  0.2826 -0.0557 -0.0618
31431W        W47240  14.607   4.561   4.729 -0.0284 -0.0358  0.1896
31432W        W47241   9.462   2.097  14.155  0.1172  0.2058 -0.1023
31433W        W47242  15.632  12.581  14.160 -0.0882  0.2375 -0.0495
31434W        W47243   6.016   3.945   5.433 -0.0271  0.1201 -0.0714
31435W        W47244  16.223  15.736  13.812 -0.2463 -0.0701 -0.2834
31436W        W47245  17.918   8.676   2.190  0.3071 -0.0653  0.1634
31437W        W47246  11.090  15.794   4.834  0.0303  0.1638 -0.0762
31438W        W47247   0.892  17.120  14.845  0.0201  0.4421  0.0208
31439W        W47248  13.284   8.132  16.043  0.1074  0.2578  0.0947
31440W        W47249   9.488   7.005  13.030 -0.0873  0.0110  0.1373
31441W        W47250   9.388   8.421  15.980 -0.3650  0.0158 -0.3216
31442W        W47251   5.398  10.272  11.594  0.2799  0.3337  0.1957
31443W        W47252   4.011   1.990  11.166 -0.1285 -0.2508  0.0506
31444W        W47253  17.847  11.923   0.849  0.0296 -0.0491 -0.0204
31445W        W47254  10.816  13.638   3.576 -0.1664 -0.2092  0.0272
31446W        W47255   4.064  17.924  14.163  0.1860 -0.4942  0.3336
31447W        W47256   7.675   2.142  16.230 -0.0872 -0.1181 -0.0630
31448W        W47257   1.305  13.918   5.460  0.4041 -0.0071 -0.0210
31449W        W47258   6.454  13.743   1.868  0.0092 -0.1026 -0.0170
31450W        W47259   1.811   4.168  13.725 -0.2591  0.2003  0.3398
31451W        W47260  14.638  17.388  12.052 -0.1396  0.2740  0.1751
31452W        W47261  14.670   5.867  12.452 -0.1827 -0.1082 -0.1105
31453W        W47262   7.983  12.815  15.224 -0.1232  0.1455  0.2463
31454W        W47263   7.413  17.507  14.924 -0.0787  0.0524  0.1332
31455W        W47264  10.872   3.600  16.511 -0.0832  0.2830 -0.1682
31456W        W47265   6.424   2.362  14.706 -0.2878  0.1565 -0.1369
31457W        W47266  10.323  14.495   3.940  0.2861  0.1270 -0.2637
31458W        W47267  15.671   2.975   4.370  0.0569 -0.0622 -0.2236
31459W        W47268  11.846  16.110   0.569 -0.2372 -0.0768  0.3274
31460W        W47269  13.480   4.086   1.756  0.0019 -0.1810 -0.1704
31461W        W47270  10.148  11.867   3.197 -0.3498  0.2095 -0.1749
31462W        W47271  13.778  10.076  11.311  0.0770 -0.2027  0.0172
31463W        W47272  11.990   8.340   1.693 -0.1119  0.0161  0.3076
31464W        W47273   7.355   7.202  12.916 -0.1310  0.0183 -0.1985
31465W        W47274   3.143   9.280  14.883 -0.0283  0.1931 -0.0273
31466W        W47275  13.450  13.680  12.109 -0.2468 -0.0465 -0.2586
31467W        W47276  10.157  16.011  12.142 -0.2796 -0.0141  0.2717
31468W        W47277   3.294  10.783  14.055  0.1098 -0.1011 -0.2892
31469W        W47278  16.000   0.073  12.275 -0.0547  0.3097  0.2569
31470W        W47279  16.779   6.312  12.565  0.0493  0.1380 -0.3604
31471W        W47280   3.326  12.349  11.702  0.1856 -0.3324 -0.1868
31472W        W47281   8.691   4.051  15.914  0.0248 -0.0319  0.2040
31473W        W47282   7.419   9.493   4.839  0.0766 -0.0097  0.1681
31474W        W47283  12.338   0.803  15.235 -0.0645 -0.0262  0.1398
31475W        W47284   0.985   2.592   1.449  0.1164  0.0760  0.0506
31476W        W47285   4.197  13.701   3.401  0.3287  0.1079  0.2023
31477W        W47286   5.815  12.515  11.698 -0.0266 -0.2630 -0.1414
31478W        W47287   6.463  12.782  11.769  0.0564 -0.2007 -0.0561
31479W        W47288   9.594   7.766   1.508  0.2973 -0.0958  0.2484
31480W        W47289   4.826  15.527   0.431  0.0108  0.3330 -0.3715
31481W        W47290   7.182   5.980  16.225  0.1421 -0.1558  0.1581
31482W        W47291  11.679   8.188   4.551  0.0579  0.0504  0.0370
31483W        W47292  12.904  15.018  14.297  0.0263 -0.0433  0.1219
31484W        W47293  14.193  14.542   5.000  0.0715  0.0270 -0.0312
31485W        W47294  14.706  14.120  15.266 -0.1189 -0.3172 -0.2468
31486W        W47295   5.158  10.618  11.299 -0.0089 -0.1807 -0.2016
31487W        W47296  11.390   3.569  12.777  0.1140  0.0027 -0.0419
31488W        W47297  10.475   5.375  12.730 -0.1585 -0.0742  0.1395
31489W        W47298   9.989   0.467   5.659  0.0452 -0.1135  0.0323
31490W        W47299   5.541   4.234   4.506 -0.0502 -0.0024  0.3508
31491W        W47300  10.438   4.504   5.573  0.2743 -0.0722  0.0817
31492W        W47301  12.512   5.072   4.988 -0.1474  0.1632  0.0341
31493W        W47302   3.032   1.290  12.234  0.2571 -0.0548  0.0776
31494W        W47303  13.623   6.555   4.598 -0.0140 -0.0971  0.0686
31495W        W47304   9.013  12.677  13.924 -0.1199  0.0382  0.1510
31496W        W47305  13.016   8.844   5.156 -0.1427  0.3564  0.0502
31497W        W47306  16.045  12.360   0.459 -0.0769 -0.1877 -0.0070
31498W        W47307   6.488   1.400  15.084 -0.1294  0.0261 -0.1280
31499W        W47308  16.080  13.415  16.390  0.2122 -0.1379  0.3247
31500W        W47309   0.661   5.170  15.768  0.0151 -0.1952  0.0987
31501W        W47310  12.015   6.901   3.216  0.1074  0.0090 -0.1372
31502W        W47311   6.382  12.984   0.907 -0.0603 -0.0482  0.0001
31503W        W47312  13.811  11.966   3.184 -0.1036 -0.1545  0.2261
31504W        W47313  11.332   7.395   2.493 -0.1800 -0.0093 -0.0822
31505W        W47314  15.522  11.567   3.070  0.0350 -0.1197  0.2912
31506W        W47315   7.082  16.484  15.750  0.3635  0.0663  0.1631
31507W        W47316   9.231   2.130  12.149 -0.1029  0.1614 -0.0014
31508W        W47317  17.556  14.605  15.647 -0.0146 -0.2591 -0.0001
31509W        W47318  15.557  12.005  12.510  0.1508  0.0542 -0.1254
31510W        W47319  14.303  12.774   1.314 -0.3265  0.1320 -0.0348
31511W        W47320   8.076  12.561  11.625 -0.4147 -0.2081  0.1863
31512W        W47321   4.499  14.931   5.420 -0.0305 -0.3798 -0.2128
31513W        W47322  12.444   7.556  12.825  0.2996  0.4107 -0.0396
31514W        W47323  16.490  14.720   1.038  0.2846 -0.1345 -0.1723
31515W        W47324  14.547   8.816  13.933  0.0640  0.3335 -0.0539
31516W        W47325  12.110   2.322   4.807 -0.0123 -0.0170  0.0633
31517W        W47326   8.727  12.711   1.133 -0.1041  0.0642 -0.0722
31518W        W47327   7.642   2.614  14.298  0.2338 -0.2695  0.3766
31519W        W47328  16.438  11.417  15.881  0.1392  0.1209  0.0052
31520W        W47329   8.028   2.077  13.252  0.3751 -0.1694  0.1323
31521W        W47330  12.637  10.808   5.456  0.0029  0.3722 -0.0823
31522W        W47331   8.834   2.219   4.059  0.1356  0.3855  0.2963
31523W        W47332   4.950  10.956   0.699  0.1561  0.2375 -0.1590
31524W        W47333  13.560  10.306   5.322  0.0658  0.3117  0.0419
31525W        W47334  11.020  10.633   4.500  0.0624  0.0501  0.0829
31526W        W47335  16.778  15.488  16.094 -0.1233 -0.0495  0.2909
31527W        W47336   7.597   0.757   5.741 -0.1337  0.2189  0.2932
31528W        W47337   6.897  14.160  16.416  0.0015  0.3443  0.2164
31529W        W47338  16.206   8.742   4.285 -0.0342  0.1722 -0.0207
31530W        W47339   0.929   8.376   4.052  0.2510  0.0635 -0.0333
31531W        W47340  15.335  17.938   3.337  0.1576 -0.1093 -0.4130
31532W        W47341   5.879  15.521  15.752  0.1898  0.2738  0.0741
31533W        W47342   3.512   0.878  15.449 -0.2384  0.3496 -0.2767
31534W        W47343  12.438  14.988   6.058  0.0372 -0.0540 -0.1947
31535W        W47344   9.696   5.361   4.054  0.1276 -0.1608  0.1909
31536W        W47345   0.720   8.204  12.452 -0.0409  0.1388  0.3957
31537W        W47346   7.500   0.525   3.046  0.3487  0.1194  0.0944
31538W        W47347   4.023   8.712   0.849  0.3165 -0.1437  0.1603
31539W        W47348   4.672  11.735   3.193 -0.2602  0.1598  0.2752
31540W        W47349   2.348   4.513  14.597 -0.0596  0.1162 -0.0423
31541W        W47350   6.029   0.196  15.129  0.2329 -0.0839 -0.0084
31542W        W47351   1.973   3.295  14.891  0.1224 -0.0717 -0.0927
31543W        W47352  12.517   3.125  13.896  0.1869 -0.2048  0.0080
31544W        W47353   3.140   5.322   2.637  0.2328  0.0398  0.1799
31545W        W47354  15.858   8.888  13.454  0.1056  0.1175  0.0502
31546W        W47355  11.133   3.396   0.637 -0.2244 -0.2549 -0.2156
31547W        W47356  11.940  10.094   3.622 -0.0706 -0.0543 -0.0376
31548W        W47357   8.793  15.132  15.822 -0.3122  0.3688 -0.0673
31549W        W47358   7.115   6.811  12.441  0.3020 -0.2199 -0.2701
31550W        W47359   8.623   3.589  14.488  0.2000  0.3695 -0.2755
31551W        W47360  11.907   6.922  16.349  0.0375  0.0438  0.1379
31552W        W47361   6.869  10.849  12.235  0.2414 -0.1958 -0.2350
31553W        W47362  15.691   9.628   3.969 -0.1639 -0.3187  0.0701
31554W        W47363  17.652  10.781  12.329  0.1652 -0.3407 -0.0490
31555W        W47364   5.113   2.582   1.004  0.4124  0.1356  0.0712
31556W        W47365   0.823   9.530   4.120  0.1180 -0.1747 -0.0598
31557W        W47366  15.322   2.326   0.522 -0.0264  0.0663 -0.3664
31558W        W47367   9.228  15.148   0.008  0.1083 -0.2885  0.3330
31559W        W47368   1.889   6.246   5.724 -0.0003  0.1370  0.4143
31560W        W47369  12.605  13.068  15.758  0.1759 -0.0504 -0.1487
31561W        W47370   9.989  15.363   2.342 -0.2155  0.0170 -0.0493
31562W        W47371   8.986   0.843  16.400 -0.3406 -0.1519  0.2039
31563W        W47372   3.790  17.247  12.010  0.0670  0.0594 -0.1303
31564W        W47373  13.941   9.739  15.873 -0.2422 -0.0139 -0.2182
31565W        W47374  12.695   0.586   1.490  0.0398 -0.0506  0.1820
31566W        W47375  11.563   7.971   2.666 -0.2631  0.0128  0.1167
31567W        W47376   0.374   7.864   3.507 -0.0402  0.0646  0.0064
31568W        W47377  14.147   4.660  15.629 -0.1211 -0.1522 -0.3143
31569W        W47378   4.190  12.026  12.060 -0.3452  0.0950 -0.0727
31570W        W47379   0.957   5.177  16.364  0.0080  0.1344 -0.1224
31571W        W47380  15.481  13.270  13.535  0.0520  0.0627  0.2553
31572W        W47381   1.160   1.936   5.181  0.0028 -0.1249 -0.1918
31573W        W47382   7.003  11.957   2.679  0.2355 -0.0548 -0.0004
31574W        W47383   7.849   6.821   3.891 -0.1188  0.1203  0.1740
31575W        W47384  13.440   2.285  12.821 -0.0723  0.0249  0.1564
31576W        W47385   8.922  10.508  12.236 -0.1866  0.3611 -0.0804
31577W        W47386  13.678   6.873   1.278  0.1751 -0.1770  0.1286
31578W        W47387   7.914  10.271  13.564 -0.1723 -0.2970  0.1880
31579W        W47388  14.420   7.172  12.669  0.1001  0.0718  0.0840
31580W        W47389   3.749  10.660  13.289  0.0236 -0.0031 -0.1521
31581W        W47390   3.214   7.413   2.476 -0.0224 -0.2431  0.2718
31582W        W47391   1.006  15.096  13.909 -0.1808  0.1372  0.2030
31583W        W47392  15.587  13.676   1.346 -0.1110  0.0020 -0.1056
31584W        W47393  16.307  17.676  16.237 -0.1215 -0.1340  0.0104
31585W        W47394  14.087   6.927  15.988  0.1819  0.1743  0.3082
31586W        W47395   0.340  17.440   4.799  0.3828 -0.0237 -0.3889
31587W        W47396  11.408   0.684  15.312  0.2598  0.1540 -0.0764
31588W        W47397  15.066  12.259  13.760  0.3407 -0.5308  0.2055
31589W        W47398  12.419  10.826  12.599  0.3663  0.0883  0.0851
31590W        W47399   4.755  10.608  12.617 -0.2474  0.2279  0.1026
31591W        W47400   1.504   3.843  16.543  0.1060 -0.1669 -0.0706
31592W        W47401   8.587  12.510  12.116 -0.1704  0.0712  0.2494
31593W        W47402  16.951   5.704  12.986  0.1344  0.0570  0.1105
31594W        W47403   6.131   2.517   0.656 -0.1762 -0.0395  0.3574
31595W        W47404   1.081   5.959  13.521  0.1041 -0.0726 -0.0810
31596W        W47405  10.322  11.048  12.848  0.0311 -0.2355 -0.1419
31597W        W47406  14.384   7.850   1.032  0.0159  0.0002 -0.0570
31598W        W47407  17.574   9.409   4.698 -0.2219 -0.0485  0.1625
31599W        W47408   7.924   6.309   1.723  0.2478 -0.2235 -0.2914
31600W        W47409   6.832   7.433   3.363 -0.0288 -0.1735 -0.1078
31601W        W47410   6.060   3.868   1.086  0.0454  0.0821  0.0165
31602W        W47411   0.834  13.420  14.994  0.3920  0.2482  0.2058
31603W        W47412   2.209  12.103  14.135 -0.0757  0.1657 -0.2061
31604W        W47413   4.245  13.416  15.346  0.0294  0.1443  0.3907
31605W        W47414   8.727  15.400  13.303  0.2098  0.0276  0.0696
31606W        W47415   5.652  10.957  12.264  0.0408  0.0712  0.1666
31607W        W47416   9.593  15.980  12.646 -0.4349  0.1169 -0.0062
31608W        W47417   4.704  17.940   1.955 -0.2138  0.1402  0.0056
31609W        W47418   1.356  12.462  14.053 -0.2657 -0.1863  0.0477
31610W        W47419   9.853  12.859   2.401  0.2228 -0.1214  0.0527
31611W        W47420   1.908   1.043   6.335  0.0973 -0.0093 -0.1101
31612W        W47421  13.425   5.802  10.964  0.1487  0.4516 -0.0376
31613W        W47422  10.228  10.658   6.064 -0.1628 -0.3121 -0.2701
31614W        W47423   2.994  17.058  14.557  0.0465 -0.2050 -0.2420
31615W        W47424   5.535   8.396  13.751  0.3684 -0.0431 -0.0619
31616W        W47425  15.783  13.738   6.045  0.0017 -0.4120  0.0523
31617W        W47426  16.788  11.048  12.152  0.2061  0.0579 -0.3034
31618W        W47427   4.459   2.753  16.330 -0.1163 -0.1757  0.2450
31619W        W47428  12.935  13.249   4.583  0.1117  0.0063  0.0897
31620W        W47429  12.778  13.799  16.361  0.1067  0.1339  0.2195
31621W        W47430  17.298  15.817  13.740 -0.3013  0.2493  0.0997
31622W        W47431  15.516   5.965  15.020  0.3127  0.1373 -0.0462
31623W        W47432   7.233   8.856  12.112 -0.0666  0.0169 -0.1946
31624W        W47433   2.365   3.530  14.029 -0.2842 -0.1859  0.1777
31625W        W47434   6.295   3.543  12.300  0.0172  0.1163  0.0747
31626W        W47435   2.597   7.012  10.376  0.0136 -0.2214  0.0601
31627W        W47436   0.023  12.644  16.418  0.2172 -0.0178 -0.0246
31628W        W47437  17.906   3.300   2.432  0.2130  0.4496 -0.1451
31629W        W47438  16.302  15.827  13.314 -0.2035  0.0870 -0.1632
31630W        W47439  14.367  17.716  12.308 -0.0988 -0.0395  0.0561
31631W        W47440  17.659   4.603  15.889 -0.0140  0.3037 -0.1804
31632W        W47441   8.736   5.905  13.783  0.2532 -0.2247 -0.0408
31633W        W47442   5.842   6.573  11.119 -0.1196 -0.1347  0.1576
31634W        W47443   1.562  11.699  16.035 -0.2090  0.4021 -0.0368
31635W        W47444  10.879  12.556   0.055  0.0213  0.1867  0.0256
31636W        W47445   5.216   3.945   2.462 -0.1056 -0.0280  0.1902
31637W        W47446   2.111  10.699   0.386 -0.1722  0.4313  0.2554
31638W        W47447   7.484   5.202  16.234 -0.3100 -0.0618  0.0459
31639W        W47448   7.584   5.872   5.511 -0.0076 -0.0247  0.1118
31640W        W47449   6.294  11.646  16.584 -0.0331  0.0629 -0.0092
31641W        W47450   8.015   9.817  14.345  0.0867  0.0536  0.1653
31642W        W47451   5.978  17.651  16.050  0.1656  0.1430  0.1973
31643W        W47452   2.651   7.332   1.827 -0.0162 -0.0024 -0.5142
31644W        W47453   2.411   0.661  12.444 -0.0500  0.1749  0.0939
31645W        W47454  15.147   3.020  12.949  0.1907  0.3229  0.0921
31646W        W47455  13.930   0.963  11.579 -0.1579  0.0180 -0.2148
31647W        W47456  15.552   7.338   6.097 -0.0010 -0.0391 -0.0431
31648W        W47457   2.818  15.152   3.607 -0.1010  0.1453  0.1692
31649W        W47458  11.037   6.817  14.088  0.1513 -0.1495 -0.0965
31650W        W47459   8.840   7.433   0.080 -0.1037 -0.2994  0.0190
31651W        W47460  13.099   9.250   0.212 -0.0320 -0.1396 -0.0365
31652W        W47461  11.616   2.942  16.135 -0.1049  0.0556  0.3193
31653W        W47462  11.409   6.101   3.139 -0.2027 -0.2032 -0.2079
31654W        W47463   4.372  15.665   1.124  0.0493  0.0388 -0.1114
31655W        W47464  12.637  15.661   2.556 -0.3818 -0.3900  0.0743
31656W        W47465   0.925   4.339   4.263  0.0450 -0.0985  0.0570
31657W        W47466   1.053   3.639  13.401 -0.1891  0.1978  0.0585
31658W        W47467   7.693  16.111  14.490 -0.3345  0.0609 -0.0260
31659W        W47468   1.030   0.566   2.892  0.1402 -0.0883  0.2204
31660W        W47469   0.949  10.425   3.749  0.2145  0.2565  0.0832
31661W        W47470  17.109   2.099   0.332  0.0831 -0.0688  0.0281
31662W        W47471  13.788  13.363   3.881  0.1149  0.2442  0.1382
31663W        W47472   5.817  17.065  15.282 -0.2292 -0.0735  0.2231
31664W        W47473   9.965  14.688   6.973  0.0833 -0.0431  0.1189
31665W        W47474  12.758  16.436  12.973  0.2168 -0.3530 -0.2589
31666W        W47475   1.325  14.842  12.599 -0.0831  0.2462 -0.0861
31667W        W47476   8.350   5.436  13.921 -0.1848 -0.2799  0.0973
31668W        W47477   4.621   7.065  16.310 -0.0909  0.1054  0.0375
31669W        W47478   8.930  15.219  14.336  0.4071  0.0554  0.3189
31670W        W47479  13.670  14.367  15.038  0.1008  0.2421  0.0532
31671W        W47480   3.531   8.067  14.245 -0.0728  0.2748  0.0974
31672W        W47481   9.646   9.729  16.678  0.3897  0.0543  0.0920
31673W        W47482   3.249   8.554  16.682  0.1160 -0.1277 -0.2207
31674W        W47483   9.564  12.132   2.591  0.2161 -0.0886  0.1074
31675W        W47484  17.454   1.514   4.917 -0.1239  0.1797  0.0047
31676W        W47485   7.925  16.672   5.545 -0.2475  0.0048  0.1112
31677W        W47486   6.144  13.719   0.070  0.0994  0.1444 -0.2415
31678W        W47487   3.025   8.815  10.984  0.2100 -0.0335 -0.3718
31679W        W47488  15.057   1.814  15.364 -0.0008  0.1632  0.0215
31680W        W47489  11.124  11.418   2.391 -0.0321 -0.1161  0.1418
31681W        W47490   8.864  16.631   3.972 -0.2510  0.1650  0.1797
31682W        W47491   6.757   7.297  16.121 -0.0858  0.2642 -0.0322
31683W        W47492  16.616   1.050  13.324 -0.1761  0.3033  0.3805
31684W        W47493   5.081   9.811  16.507 -0.2084  0.1553  0.0627
31685W        W47494  17.703   4.923  11.293 -0.4018  0.1867  0.0487
31686W        W47495  15.619   3.769   1.361 -0.1605  0.1988  0.1048
31687W        W47496   5.231   4.835  16.345  0.1475 -0.1435 -0.1211
31688W        W47497  11.115   3.967   3.225 -0.0471 -0.1733 -0.5366
31689W        W47498   5.933  17.484  15.570 -0.3624  0.0494  0.1142
31690W        W47499   1.925   7.410  10.679  0.0968  0.2933  0.2622
31691W        W47500   5.871   5.526  12.548  0.2015  0.0894 -0.1998
31692W        W47501  15.247   6.829   5.467 -0.2977 -0.1291  0.1365
31693W        W47502  15.289   2.927   2.025 -0.0311  0.2617  0.3625
31694W        W47503   6.287  10.099   4.520  0.0345 -0.1288 -0.0498
31695W        W47504  14.614  14.699   5.207  0.0223  0.0073  0.1288
31696W        W47505  12.026   0.361   2.114 -0.0340 -0.3610 -0.1156
31697W        W47506  11.987   4.814  14.352  0.1644 -0.2720 -0.1052
31698W        W47507  10.146   9.630  13.675  0.0844 -0.0510 -0.0749
31699W        W47508  11.361   3.785   5.190  0.2375 -0.1587 -0.2408
31700W        W47509  17.669   1.077   1.960 -0.1953  0.1466  0.1908
31701W        W47510  11.114  10.168   2.863  0.0292 -0.0162 -0.1422
31702W        W47511   7.430   0.715  14.016  0.0536  0.3643  0.3543
31703W        W47512   0.309   6.733  11.197  0.0380  0.1976  0.2528
31704W        W47513   3.841   3.903   3.086  0.0885 -0.2496  0.4510
31705W        W47514   7.323  16.257  14.180  0.3914  0.1656 -0.3343
31706W        W47515  16.698   1.116  12.174 -0.0426 -0.2639  0.0062
31707W        W47516   7.974  15.697   5.374  0.0816 -0.0691 -0.1452
31708W        W47517  10.161   3.286   1.184 -0.1231 -0.1922  0.2030
31709W        W47518   2.548   7.954   0.082 -0.0989 -0.3852  0.3890
31710W        W47519  13.500  14.244   1.871  0.0011 -0.1274 -0.2986
31711W        W47520   5.974   3.836  15.957  0.0707 -0.0552  0.0182
31712W        W47521   6.182  10.932  12.992 -0.1360 -0.1357 -0.0623
31713W        W47522  14.939  15.119   6.639  0.0056 -0.2125 -0.2077
31714W        W47523   7.266   6.658   5.952 -0.0491 -0.3083 -0.1210
31715W        W47524  17.167   6.370   4.045  0.0393 -0.1047  0.1405
31716W        W47525  10.726   7.474   2.418 -0.2887  0.0611 -0.0131
31717W        W47526  15.481  15.721  12.883  0.2381  0.2433  0.3135
31718W        W47527  16.629   1.779   2.510  0.0709 -0.0533 -0.1902
31719W        W47528  11.412  11.877  14.374  0.0061 -0.0164 -0.0338
31720W        W47529   4.540   7.564  15.696  0.1376  0.2046 -0.0115
31721W        W47530   9.896   8.833   4.069 -0.4832 -0.0141 -0.0671
31722W        W47531  13.897   4.773   1.577 -0.0663 -0.1671  0.1678
31723W        W47532  12.859   6.852  14.760  0.0074 -0.1720  0.1118
31724W        W47533  10.663   5.095   4.962 -0.0055 -0.0529  0.0590
31725W        W47534   2.101   5.654  12.457 -0.2806  0.0525  0.0185
31726W        W47535   2.844   9.769   2.398  0.1666  0.1722 -0.1946
31727W        W47536   1.651   5.380   3.353 -0.0786 -0.2923 -0.0080
31728W        W47537   3.082  10.528  15.086  0.0957  0.2218  0.2620
31729W        W47538  17.409   4.718  14.442  0.0497 -0.0019  0.2342
31730W        W47539  14.114   0.929   5.442  0.1347 -0.2779 -0.2867
31731W        W47540   1.745  16.107   5.811 -0.2279 -0.0142  0.1897
31732W        W47541   9.403  17.406   3.097 -0.0929  0.1196  0.0630
31733W        W47542  17.423   2.468   4.947 -0.1658  0.0925 -0.1654
31734W        W47543  11.671  14.236   0.761  0.1693 -0.0840 -0.0838
31735W        W47544  14.991  16.560  13.680  0.1527  0.2167 -0.1619
31736W        W47545   1.074  14.766  14.625 -0.0590  0.1264  0.3783
31737W        W47546   7.667  10.673  15.724 -0.0424 -0.1081 -0.0958
31738W        W47547  10.248  11.105  13.765 -0.0681 -0.2829 -0.0742
31739W        W47548  13.417  16.744  12.414  0.0496 -0.0163 -0.4920
31740W        W47549  13.106   1.652  13.675  0.1045  0.0758  0.0924
31741W        W47550   7.586  13.341  12.551  0.3054 -0.1010  0.1364
31742W        W47551   2.643  12.324  15.987 -0.2055 -0.1856  0.1533
31743W        W47552  10.255   6.316   3.170 -0.2063  0.2612  0.0218
31744W        W47553   2.089   4.577   5.005  0.3240  0.2369  0.0646
31745W        W47554  12.664   2.595   0.758 -0.0499 -0.1061 -0.0419
31746W        W47555   0.369  10.626  14.485  0.0155  0.1188 -0.1834
31747W        W47556  10.539  14.064   2.780  0.1144 -0.1725 -0.0668
31748W        W47557  16.163   2.084   5.179 -0.1685  0.1323 -0.1305
31749W        W47558   9.349   1.715  16.067  0.0886  0.0577 -0.0026
31750W        W47559   9.791   2.594   3.343  0.1097  0.0003 -0.0157
31751W        W47560   6.839  13.519  11.744 -0.1353 -0.0844 -0.0805
31752W        W47561  15.565  12.341   3.213  0.0690 -0.3526 -0.1230
31753W        W47562   6.806   9.153  13.698 -0.0474  0.3656 -0.0058
31754W        W47563   6.757   8.066  13.740 -0.1691  0.3003 -0.0235
31755W        W47564  15.199   9.292   4.974  0.2707 -0.3311  0.1757
31756W        W47565  12.662  13.839   4.933  0.1613  0.1639  0.3056
31757W        W47566  11.670   1.158  16.018 -0.3484  0.1687  0.0415
31758W        W47567   3.418   6.577  11.222 -0.0260  0.1568  0.1124
31759W        W47568   3.559   7.720  16.077  0.0525  0.0720 -0.0165
31760W        W47569   3.703   1.169  14.807  0.2679 -0.0122  0.1801
31761W        W47570   8.398  17.645  12.989 -0.0080  0.1651  0.0021
31762W        W47571   5.153  12.297   1.514 -0.0096  0.2367 -0.1190
31763W        W47572  12.600  13.846  13.369 -0.1788  0.0618  0.0255
31764W        W47573   3.733   8.722  11.814  0.1341  0.0924  0.1559
31765W        W47574   2.441  14.381  15.426 -0.2767  0.0613 -0.0914
31766W        W47575  14.386  14.369   0.418 -0.0498  0.1915 -0.0616
31767W        W47576   8.816  10.623  11.183 -0.0644 -0.0921 -0.0130
31768W        W47577  13.945  12.491   4.769  0.1924 -0.2695 -0.0448
31769W        W47578  17.230   9.750   3.739 -0.2594 -0.0403 -0.1361
31770W        W47579  16.972  17.059  10.894 -0.3983 -0.0207  0.0941
31771W        W47580  17.654  13.586   2.803 -0.1011  0.1251  0.0507
31772W        W47581   3.128   3.117   5.274  0.0716  0.0053  0.1700
31773W        W47582   0.223   0.978  13.662  0.1337 -0.3248  0.0925
31774W        W47583  12.030  15.057   6.378 -0.2494 -0.1844  0.2253
31775W        W47584   7.923   9.310   4.181  0.0200  0.2419 -0.1254
31776W        W47585  14.962  11.573  13.212  0.2615  0.0444  0.0128
31777W        W47586   5.152  17.524  12.592  0.3078 -0.1023 -0.0984
31778W        W47587  14.168   4.490   2.985 -0.0871  0.0225  0.1434
31779W        W47588  10.327  15.538   5.158  0.0734 -0.3258 -0.1080
31780W        W47589  13.203   1.730  16.515  0.0251 -0.0696 -0.0516
31781W        W47590   9.895  15.620   2.782  0.2906  0.1111  0.0847
31782W        W47591   3.427   2.863   4.968  0.2383  0.0761 -0.0506
31783W        W47592  17.127   4.085   1.156 -0.0495 -0.2127 -0.1310
31784W        W47593  17.770  17.504   1.519  0.0972  0.1354  0.1515
31785W        W47594   0.477  16.148   4.028  0.6191 -0.0916  0.1529
31786W        W47595  14.950  13.240   0.007 -0.1749 -0.0453 -0.0305
31787W        W47596  16.241   8.520   2.098  0.0693 -0.1651 -0.0016
31788W        W47597   5.608  16.461   3.408  0.0743 -0.2666  0.1249
31789W        W47598  13.665  16.324  13.521 -0.0251 -0.1660 -0.0917
31790W        W47599   6.028  17.095   3.300  0.2423 -0.2319 -0.0108
31791W        W47600   5.835  11.765  16.541  0.2114 -0.0631  0.3401
31792W        W47601  16.874   1.590  16.276  0.0739  0.0153  0.1402
31793W        W47602  14.801   7.893  16.552  0.2913 -0.1588 -0.0790
31794W        W47603   7.868  17.659  12.126 -0.1407 -0.1068 -0.2042
31795W        W47604   6.732   6.872   6.177 -0.2668  0.0781  0.1546
31796W        W47605  13.037  11.644  11.555 -0.0258 -0.0877 -0.2726
31797W        W47606  13.081   9.957   5.969  0.0735  0.0361  0.1033
31798W        W47607  10.618  13.330   3.254 -0.1586 -0.2178 -0.1674
31799W        W47608   1.213   2.280  11.739 -0.3136 -0.2454 -0.1626
31800W        W47609   9.947   4.603   2.397 -0.0143  0.3099  0.0513
31801W        W47610  16.410  10.230  16.514  0.0636  0.0196  0.0167
31802W        W47611   9.465  14.453   3.756 -0.2829 -0.1774 -0.1490
31803W        W47612   9.063  16.850  13.493 -0.0791  0.2122 -0.0134
31804W        W47613   9.036   6.266  13.537  0.1094  0.0554  0.2653
31805W        W47614   7.136  16.092   4.782  0.1763  0.0659  0.3298
31806W        W47615   5.503  14.863  13.614  0.0973  0.1116  0.0407
31807W        W47616   0.072  15.920   2.835  0.0648  0.0870  0.2942
31808W        W47617  10.405   7.917   5.128  0.1738  0.0556  0.0484
31809W        W47618   9.134  12.590   5.964 -0.0880 -0.0370 -0.2203
31810W        W47619   7.946   2.484   3.339  0.3371  0.0141  0.2158
31811W        W47620  13.546  15.604   2.035  0.1442  0.1090 -0.0717
31812W        W47621   2.677  15.802  12.237 -0.1513 -0.1737 -0.0914
31813W        W47622  15.260   5.373   4.059 -0.0976  0.0050  0.2297
31814W        W47623  10.928   1.404  13.521 -0.1877 -0.1365  0.0793
31815W        W47624   5.477   5.918   4.878 -0.0533  0.0796  0.3257
31816W        W47625   6.759  13.849   0.189 -0.2380 -0.0653  0.1932
31817W        W47626   2.261  14.140  13.703 -0.2368  0.1134  0.1632
31818W        W47627  10.605  12.603   0.461 -0.1641  0.0871 -0.2983
31819W        W47628   7.465   8.298  10.520 -0.1024  0.1535 -0.1698
31820W        W47629  16.709  14.588   3.688  0.1453  0.1612 -0.1044
31821W        W47630   3.818   0.941  13.899  0.0851  0.0353 -0.0634
31822W        W47631   8.002  11.105  12.325  0.2296 -0.2017 -0.2546
31823W        W47632  12.513   6.974   4.311 -0.0081 -0.0238  0.2955
31824W        W47633  12.500  17.108  14.947  0.1114  0.0078  0.0365
31825W        W47634   3.050   7.814   5.039  0.0189  0.0424 -0.0011
31826W        W47635   3.135   5.305   5.176 -0.0335  0.0256  0.2135
31827W        W47636  17.443  12.994   5.172 -0.0584 -0.4065 -0.1146
31828W        W47637  11.004  12.577  14.708 -0.0179  0.0740 -0.0824
31829W        W47638   1.609   3.487  13.940  0.1087  0.1904 -0.0454
31830W        W47639  15.147   8.278  14.567 -0.1894  0.0222 -0.0590
31831W        W47640   0.474  17.249   5.612 -0.0633 -0.4870  0.3307
31832W        W47641   3.336   4.867   0.764  0.1266  0.1456  0.1480
31833W        W47642   3.464   6.783  15.722  0.0379  0.1283  0.0181
31834W        W47643  10.666  10.323   5.806  0.0645 -0.0038 -0.1183
31835W        W47644  11.309  15.099  13.142  0.0949  0.3810 -0.1017
31836W        W47645  17.410  11.782  13.914 -0.0260 -0.0131  0.1156
31837W        W47646   8.586  15.750  12.828 -0.0293 -0.2893  0.1297
31838W        W47647   3.373  17.748  16.263 -0.1011 -0.0898 -0.0845
31839W        W47648   5.998   9.673  12.388  0.0460  0.5122 -0.1977
31840W        W47649  16.401  16.628   3.558  0.0403  0.1083 -0.1936
31841W        W47650   9.940   1.967   2.296  0.1144 -0.0687  0.0272
31842W        W47651   1.667   4.455  11.968  0.1679 -0.3021  0.2262
31843W        W47652   0.273  11.283  14.792  0.2806 -0.1474 -0.1622
31844W        W47653  14.057   2.944   2.174  0.3396 -0.1387 -0.0638
31845W        W47654   5.416   2.652   2.552  0.3442  0.1901  0.4367
31846W        W47655   8.720   2.710   2.908  0.0036 -0.0488 -0.3056
31847W        W47656   4.944  16.816  15.184 -0.2857 -0.0777 -0.0675
31848W        W47657   6.196   4.111  14.511  0.2336 -0.0876  0.0072
31849W        W47658   8.342   3.473  13.759 -0.2362 -0.0485  0.1610
31850W        W47659   6.432   1.798   0.453 -0.0607 -0.1069  0.3510
31851W        W47660  16.481   8.191  16.422  0.3510  0.0773 -0.0215
31852W        W47661  12.117   6.230   5.872 -0.2186  0.1025 -0.0714
31853W        W47662   3.277   0.485  16.212 -0.2307 -0.1177 -0.3473
31854W        W47663  13.393   7.107   2.690  0.1991 -0.0568 -0.0901
31855W        W47664   9.676  13.917   4.768 -0.0569 -0.2604 -0.0080
31856W        W47665   3.475   5.901  14.893 -0.0580 -0.0301  0.0121
31857W        W47666  10.668   0.890  11.043  0.2601  0.0853 -0.1499
31858W        W47667  14.035  17.637   3.368 -0.0843 -0.1487 -0.1233
31859W        W47668  14.660  10.973  12.170  0.0832 -0.1376 -0.2173
31860W        W47669   2.206   5.890  12.041 -0.0730 -0.2369  0.0200
31861W        W47670   1.936  13.126   3.000  0.2623 -0.5512 -0.0052
31862W        W47671   0.130   2.909   4.848 -0.0640  0.0889 -0.2800
31863W        W47672  16.908   2.205  11.032  0.1846 -0.0052 -0.0965
31864W        W47673   7.434  15.077   5.533  0.0115 -0.1375  0.0705
31865W        W47674   4.568  12.077   4.522 -0.1265 -0.0565  0.1595
31866W        W47675  16.529   2.125  15.374 -0.1141 -0.1115  0.0683
31867W        W47676  10.305   0.455   4.126  0.1294 -0.0188  0.1342
31868W        W47677   4.879  10.254  11.558 -0.1026 -0.1075  0.2497
31869W        W47678   4.129   5.773   1.875 -0.0993 -0.1890 -0.0539
31870W        W47679   6.060   1.374   1.743  0.3030  0.0687  0.1662
31871W        W47680  10.788  16.985  10.990 -0.0999 -0.0326 -0.0266
31872W        W47681  11.489   8.165   5.617 -0.2079  0.1247  0.2279
31873W        W47682   4.052   8.939   3.434 -0.2328  0.0040 -0.2780
31874W        W47683   1.617  17.350   4.717  0.0240  0.0664 -0.2685
31875W        W47684   7.916  15.028   1.848 -0.1039  0.0196 -0.2935
31876W        W47685   1.993  11.939   0.628 -0.2193 -0.0542  0.1537
31877W        W47686   7.213  17.041   4.773 -0.0807  0.2121 -0.0284
31878W        W47687   5.891   9.915  15.981  0.0948  0.0646 -0.1317
31879W        W47688  17.549   4.010   1.458  0.0599  0.0273 -0.0692
31880W        W47689   0.851  11.474   5.146 -0.2562 -0.2047  0.0235
31881W        W47690  11.188   4.449   0.247  0.1755  0.2511 -0.2695
31882W        W47691  13.040   9.116  15.695 -0.0229  0.3997  0.0730
31883W        W47692  13.941   9.292  12.559 -0.0482  0.1948 -0.2089
31884W        W47693   9.091   8.869   0.194  0.0970  0.2403  0.1150
31885W        W47694  13.922   8.616   6.692  0.3072  0.0650  0.2048
31886W        W47695  13.163  10.666  16.542 -0.0912  0.4163  0.2218
31887W        W47696  13.710  12.338  16.548 -0.1835 -0.3682  0.2351
31888W        W47697  14.781   0.451  11.964  0.4636 -0.0867  0.1068
31889W        W47698  11.144   9.803  13.119 -0.1289 -0.0945 -0.0063
31890W        W47699   7.767   4.112   5.080  0.1032 -0.1257  0.2175
31891W        W47700   6.771   2.898  11.933  0.1921  0.0549  0.0449
31892W        W47701   0.011  14.233  13.589  0.1617 -0.0777 -0.0779
31893W        W47702  15.353   7.036   6.426 -0.0046  0.3458  0.1417
31894W        W47703  16.260  14.707   3.501  0.0113 -0.0939  0.0762
31895W        W47704  17.786   8.988  15.865  0.0574 -0.2033 -0.1699
31896W        W47705   3.144   6.055  15.305 -0.0875 -0.1444  0.0513
31897W        W47706  12.002  13.239  13.374  0.0029  0.1500  0.3258
31898W        W47707  16.334   4.724  13.438 -0.0338  0.1239 -0.1086
31899W        W47708  17.601   6.366   2.577  0.0401  0.0510 -0.1988
31900W        W47709   8.490  12.514   1.940  0.0651 -0.2734  0.3532
31901W        W47710   9.892   9.223  11.569 -0.2414 -0.0932 -0.0814
31902W        W47711   1.592   3.847  12.027 -0.3070 -0.2088 -0.0489
31903W        W47712  12.400  16.842  14.141  0.2540  0.1224  0.3570
31904W        W47713   3.489  16.022   4.603  0.0623  0.2922  0.1806
31905W        W47714   1.041   0.779  12.250  0.2207  0.1003  0.1516
31906W        W47715   9.969  14.323   3.595 -0.2590 -0.2938  0.2076
31907W        W47716  12.990  15.436  15.302 -0.0395  0.1271 -0.0414
31908W        W47717   0.894  14.263  14.557  0.0422  0.1958  0.0938
31909W        W47718   0.812  10.400   1.788 -0.0496 -0.4737 -0.0077
31910W        W47719   0.015  13.714  13.490 -0.2025 -0.0203  0.1001
31911W        W47720   1.670   8.948  11.344  0.2196 -0.2052 -0.0480
31912W        W47721   2.454   9.235  11.878  0.0124 -0.0671  0.0882
31913W        W47722  11.718   1.917  12.376  0.2901 -0.4775 -0.3032
31914W        W47723   0.324  10.672   0.165  0.0639 -0.1423 -0.2498
31915W        W47724   8.152   2.722   6.613  0.1011  0.1036  0.0016
31916W        W47725   5.445   5.200   5.285 -0.0828 -0.1065  0.2661
31917W        W47726   7.694  10.626   3.656 -0.0254 -0.0189  0.0878
31918W        W47727  10.444  13.301   5.405  0.3526  0.2873 -0.2619
31919W        W47728   8.206   7.271   1.055  0.1545 -0.1065  0.0833
31920W        W47729  15.694  14.031  12.745  0.2861  0.2384  0.0244
31921W        W47730  13.980  12.676   0.716 -0.3354 -0.1215  0.0730
31922W        W47731  17.681  13.724   4.368  0.1389 -0.1412 -0.0405
31923W        W47732   7.631  13.816   5.849 -0.1011 -0.1949  0.0528
31924W        W47733   7.003   8.847   1.971 -0.0019  0.1992  0.0445
31925W        W47734  15.086  15.771  13.167  0.0177 -0.1472  0.1655
31926W        W47735   2.582   6.570   0.379  0.4726 -0.0587 -0.3359
31927W        W47736  17.871  10.146  13.250  0.0287  0.0157  0.2682
31928W        W47737  10.612  16.994  15.067  0.0185  0.4924 -0.1683
31929W        W47738  15.973   7.542   1.355 -0.1784 -0.0268 -0.2382
31930W        W47739  15.079   9.837   1.254  0.0140 -0.1525 -0.1891
31931W        W47740   7.091  11.503   5.082 -0.0695  0.0710 -0.0186
31932W        W47741   8.062   8.760  11.129  0.0433  0.2319  0.2480
31933W        W47742  14.486   9.191   2.191  0.3815  0.0890 -0.2605
31934W        W47743   1.175   0.832   1.416  0.1638  0.0767  0.0779
31935W        W47744   5.455   2.176  15.240 -0.2070 -0.0530 -0.2737
31936W        W47745   7.372  16.195   4.070  0.1644  0.2817  0.1659
31937W        W47746   4.932  12.629   2.609 -0.3568  0.1131  0.1235
31938W        W47747  10.258   4.327   2.076 -0.2713 -0.0171  0.2715
31939W        W47748  14.516   8.891   3.208  0.0439 -0.1212  0.1425
31940W        W47749   3.088  15.023   4.077 -0.0552  0.0025  0.2513
31941W        W47750  14.822   4.870   3.354  0.0231  0.2314 -0.3009
31942W        W47751  14.658  11.587   4.209 -0.0891 -0.0289  0.3770
31943W        W47752   0.781  12.343  13.099  0.2025  0.1396  0.1364
31944W        W47753  14.625   0.071   1.887 -0.0986  0.0488  0.1540
31945W        W47754   7.028   5.313  13.113  0.2121 -0.0233 -0.1967
31946W        W47755  17.595   6.264  11.917 -0.2572  0.2381  0.0482
31947W        W47756  16.317  15.010  13.224 -0.0703  0.0236 -0.1206
31948W        W47757   3.832   9.189   1.651 -0.0251  0.2347  0.0804
31949W        W47758  16.200  10.024  15.839  0.0321  0.0956  0.2379
31950W        W47759   6.479  11.302  13.074  0.0554 -0.1258  0.1508
31951W        W47760  12.570  11.368   1.185  0.0982 -0.1934 -0.2403
31952W        W47761   9.602   5.993   4.316  0.0367 -0.1840 -0.0684
31953W        W47762  11.108   1.712   0.066 -0.0224  0.0621  0.0627
31954W        W47763  16.761   7.222  13.960  0.1284  0.1514 -0.2018
31955W        W47764   6.509   7.062  15.689 -0.0043 -0.2753  0.0395
31956W        W47765  10.494   4.722   3.467  0.0252 -0.0340 -0.0895
31957W        W47766   5.736  10.360   1.153  0.0926  0.2378  0.0341
31958W        W47767  15.867   4.277  15.891 -0.1004 -0.1704 -0.0720
31959W        W47768   2.800   2.241  15.062  0.0653 -0.0184 -0.0431
31960W        W47769   2.192   7.215  11.780 -0.1785 -0.1497  0.1481
31961W        W47770   6.628   1.813   3.033  0.1647  0.1015  0.2670
31962W        W47771  10.824  16.120   0.188  0.1299 -0.3244 -0.0727
31963W        W47772   9.759  16.606  16.376 -0.1071  0.0931  0.2425
31964W        W47773   6.249  16.682   2.181  0.0111  0.0651  0.2257
31965W        W47774  17.937  16.861  13.063  0.4063 -0.0488  0.0778
31966W        W47775   1.235  16.632   1.307  0.0708  0.1952 -0.2943
31967W        W47776   2.635  14.719  12.456  0.0237 -0.1201 -0.2836
31968W        W47777  14.001   3.060  10.992 -0.0841  0.1416 -0.0334
31969W        W47778  10.249   6.797  13.385  0.1318  0.1404 -0.0517
31970W        W47779   5.766  12.127  13.501 -0.1366 -0.0677 -0.4253
31971W        W47780   1.860  16.769   4.842 -0.1699  0.0283  0.1354
31972W        W47781  15.478   9.200  12.399  0.1014 -0.1017  0.3904
31973W        W47782  14.563  11.939  14.995  0.2803 -0.0821 -0.1353
31974W        W47783   6.637  14.727  11.004  0.0795  0.1918 -0.3608
31975W        W47784  13.683  14.680   0.344 -0.0009  0.1867 -0.2406
31976W        W47785  16.591  14.207   2.770 -0.0451  0.0252  0.0401
31977W        W47786  15.842   8.473  15.349 -0.0967  0.1004  0.1844
31978W        W47787   6.500   5.018   1.071 -0.5358 -0.3734  0.0941
31979W        W47788  11.248  13.346   3.178  0.2275 -0.0463 -0.2200
31980W        W47789   2.780  11.705  16.357 -0.1214 -0.0795 -0.0168
31981W        W47790  13.055   1.186   5.328 -0.0155 -0.0888 -0.0394
31982W        W47791  13.484   6.285  16.102  0.0867 -0.1665 -0.0265
31983W        W47792   0.800   9.263   4.582 -0.1097 -0.0143 -0.0172
31984W        W47793  14.586  13.950  11.587 -0.1859 -0.3012 -0.1040
31985W        W47794   7.239   0.986  15.521 -0.1363 -0.3900  0.0319
31986W        W47795   9.990   7.885  15.747  0.1389  0.1475  0.1237
31987W        W47796   2.533  10.833  11.096 -0.0348  0.2704  0.0533
31988W        W47797   9.446  13.466  13.916 -0.0625 -0.0819 -0.0163
31989W        W47798  14.321  10.164  15.906  0.0988 -0.0269  0.0048
31990W        W47799   7.812   5.406   5.697  0.1713  0.0833 -0.2093
31991W        W47800  10.579   2.604   1.743 -0.4376  0.0457 -0.1523
31992W        W47801   0.378   7.584   0.869 -0.0102  0.0432 -0.1197
31993W        W47802  13.341   9.237   3.425  0.0362 -0.2619  0.2186
31994W        W47803  11.957   6.352  11.780 -0.2752  0.3379 -0.1372
31995W        W47804   8.986   7.142   0.480 -0.1422  0.0106 -0.2064
31996W        W47805  13.143  13.336   2.672  0.2170 -0.1470  0.0046
31997W        W47806  16.919   2.400   4.933 -0.3135  0.0973  0.0141
31998W        W47807   7.391   7.277   5.245 -0.0154  0.2641  0.1171
31999W        W47808   6.946   6.271  14.711 -0.1366 -0.1397 -0.0065
32000W        W47809  11.541   4.163   3.347 -0.3301  0.3684  0.0257
32001W        W47810   7.458   3.560  12.230 -0.0164  0.0372  0.1191
32002W        W47811  11.436   9.585   6.578 -0.0112  0.2694  0.2088
32003W        W47812  14.230  17.347   5.366  0.0363  0.1308  0.0117
32004W        W47813  17.136   4.724  14.058  0.2664  0.0480 -0.1951
32005W        W47814  17.860  14.639   1.674  0.1434 -0.1435  0.0661
32006W        W47815  16.044   2.912  12.612  0.3334 -0.3479 -0.1659
32007W        W47816  11.147  10.727  12.120 -0.0735  0.0212  0.0711
32008W        W47817  10.884  16.467  12.994  0.0438  0.2158 -0.0950
32009W        W47818  17.781   0.810  16.148  0.0745 -0.0341  0.0211
32010W        W47819   8.433   9.201   0.719 -0.0587 -0.0817 -0.1858
32011W        W47820  12.655   9.309  13.011  0.2238 -0.0180 -0.0649
32012W        W47821   0.485   2.426   2.254  0.2008 -0.2746 -0.2337
32013W        W47822   4.231  10.688  10.929  0.0751 -0.2407 -0.1609
32014W        W47823   1.966   1.195  12.724 -0.5328  0.2200  0.5542
32015W        W47824  11.697   2.493  15.428  0.3588  0.0963 -0.0740
32016W        W47825  11.815  16.049   1.818 -0.0970  0.0271 -0.1354
32017W        W47826   7.962  12.094  11.458  0.2133 -0.2455  0.1215
32018W        W47827   8.338  12.484   3.828  0.1788 -0.1730 -0.1949
32019W        W47828   9.427   1.614  15.572  0.2251 -0.0230 -0.2313
32020W        W47829  10.154   3.463  12.048  0.0737 -0.0175  0.2522
32021W        W47830  16.541  11.359  15.267  0.1572 -0.1389 -0.0911
32022W        W47831   1.860   5.246  14.354  0.0530  0.1326  0.1306
32023W        W47832   7.832  10.325   5.750 -0.0372 -0.2821  0.3009
32024W        W47833   3.318  11.981  12.925  0.1933 -0.1983 -0.0189
32025W        W47834   3.507  16.919   0.620  0.3438 -0.0017 -0.0806
32026W        W47835  17.312  15.905   2.572  0.0571  0.0652 -0.0412
32027W        W47836   2.213   3.275   3.158  0.0058  0.0019 -0.1302
32028W        W47837   1.631   3.686  16.049 -0.1781  0.0380  0.2067
32029W        W47838   3.723   8.725  16.509  0.1922  0.0076  0.0053
32030W        W47839   1.488   6.200  11.535  0.2672  0.1631  0.1509
32031W        W47840  10.349   4.926   1.112  0.0666  0.1528  0.0056
32032W        W47841   9.686  15.827   4.791 -0.2323  0.1723  0.0779
32033W        W47842   7.053  10.231   3.205  0.1180  0.4329 -0.0169
32034W        W47843  17.545  11.536   0.736  0.2042 -0.0435  0.2115
32035W        W47844   2.442  17.639   0.501 -0.0503  0.3073 -0.3574
32036W        W47845  11.047   2.731   0.037  0.2490 -0.0312  0.0017
32037W        W47846   8.589  15.410   6.041 -0.2917 -0.0077 -0.1539
32038W        W47847   5.162  10.032   2.004  0.2895  0.1330 -0.0718
32039W        W47848   0.571  13.552   1.716 -0.1455 -0.0950  0.1189
32040W        W47849  17.613   7.078   0.762 -0.2992  0.0459  0.0830
32041W        W47850   3.526   0.796   1.398 -0.0361 -0.1912 -0.1816
32042W        W47851   6.038  11.084   4.055  0.0872 -0.3234  0.0830
32043W        W47852   9.439   0.548   4.443 -0.1659 -0.0414  0.0635
32044W        W47853  14.355   3.913   3.261  0.0731 -0.1973 -0.0803
32045W        W47854   0.901  12.347   3.986  0.0206  0.1952 -0.0201
32046W        W47855   7.979   6.325  13.487 -0.0562  0.0146  0.0781
32047W        W47856  16.714  11.849   3.406  0.2762  0.2432 -0.0287
32048W        W47857  12.064  15.682  15.144  0.0459 -0.0904 -0.2298
32049W        W47858   3.051   4.225  15.154 -0.0378 -0.1533 -0.1385
32050W        W47859   5.374  16.197  11.305  0.0574  0.2491  0.1488
32051W        W47860   8.472  14.805  13.855  0.0838 -0.0718  0.1220
32052W        W47861  10.166   3.073  16.407  0.1157 -0.1914  0.0632
32053W        W47862  16.065   5.174  13.300 -0.4007 -0.1574 -0.0204
32054W        W47863   9.313  14.349  12.472 -0.0659  0.0226  0.1824
32055W        W47864  12.968  16.942   3.743 -0.0238  0.1693  0.0825
32056W        W47865   5.945   3.658   3.999  0.2375 -0.1421 -0.1602
32057W        W47866   8.094   5.302  14.956  0.2361 -0.1223  0.0292
32058W        W47867  16.592   2.328   2.491  0.3479  0.0701  0.0315
32059W        W47868   1.809   2.418   3.997  0.0473  0.1487 -0.1451
32060W        W47869  11.562  14.236   5.353 -0.1286  0.1434  0.0090
32061W        W47870  15.540  14.792  15.758 -0.1844 -0.0336 -0.4476
32062W        W47871   4.834   2.112   5.580  0.0492 -0.2643  0.0493
32063W        W47872   4.631  10.415   3.254 -0.0618  0.0908 -0.1876
32064W        W47873   4.483   1.239   5.284  0.2348 -0.2628  0.2272
32065W        W47874  17.775  16.573  13.431 -0.3138  0.1048 -0.1000
32066W        W47875  13.718   3.221   5.669  0.1009  0.0799  0.2690
32067W        W47876  16.560  16.698  15.445 -0.1235 -0.0458  0.0913
32068W        W47877  14.366  10.463   2.242 -0.1999  0.0852  0.1659
32069W        W47878   0.182  15.419  15.423  0.1269 -0.3915  0.0798
32070W        W47879   0.862  17.152   6.024  0.3766  0.1498  0.2591
32071W        W47880  16.885   4.521   1.589  0.3601  0.1423 -0.0143
32072W        W47881  11.371   5.456   3.846  0.2249  0.1241 -0.2876
32073W        W47882   7.888  12.466  15.553  0.0773 -0.0719 -0.4060
32074W        W47883  15.297   2.958   3.619 -0.1241  0.0813  0.0569
32075W        W47884   7.330   4.546  14.215  0.0182  0.0348 -0.0892
32076W        W47885   3.972   9.103  13.539  0.2207  0.0444 -0.3123
32077W        W47886   0.423   4.086  11.677  0.1952 -0.1136  0.0117
32078W        W47887  16.547   4.814  15.645  0.0907 -0.0394  0.0550
32079W        W47888  15.143  15.187  14.720 -0.0575 -0.1964 -0.2495
32080W        W47889   7.318   0.162  12.717  0.3246  0.0284 -0.0788
32081W        W47890  15.134   1.596  13.500  0.0547  0.0110  0.0048
32082W        W47891   4.722  14.199  15.879  0.1053 -0.1354 -0.1833
32083W        W47892   4.706  17.881   2.918  0.0735 -0.0793  0.2904
32084W        W47893   0.895   8.709   2.603  0.3170 -0.3561  0.2793
32085W        W47894   3.535   9.905   3.329  0.5325 -0.0065 -0.0395
32086W        W47895  13.431  14.406   0.741  0.0033  0.0988  0.1638
32087W        W47896  15.215   7.717   3.985 -0.1053  0.1109  0.2000
32088W        W47897   1.804   5.198  13.659  0.0860  0.1958 -0.0330
32089W        W47898   3.351  17.883   2.379  0.1648  0.0274  0.0438
32090W        W47899   8.763  11.552  15.483  0.2077  0.0378 -0.0592
32091W        W47900   8.443   2.219   2.029  0.0626 -0.1364  0.1256
32092W        W47901   4.298   7.199  14.809  0.0889 -0.2725 -0.1812
32093W        W47902  17.899  14.471  12.378  0.0998 -0.1188 -0.1534
32094W        W47903  11.410   8.948  14.175  0.1772  0.0437 -0.0243
32095W        W47904  17.160  11.172  13.777 -0.0448 -0.2691  0.0149
32096W        W47905   4.918  17.655  14.814  0.1234  0.2511  0.1963
32097W        W47906  13.047  13.294  12.792  0.1110  0.0124  0.2402
32098W        W47907  17.136   1.266  12.368 -0.1231 -0.1430 -0.0380
32099W        W47908   4.206  12.959   2.883  0.2028 -0.0538  0.0811
32100W        W47909  11.633   4.969  16.196 -0.1735 -0.1003 -0.0014
32101W        W47910  14.328  11.607  11.553 -0.0437 -0.3704 -0.2143
32102W        W47911   3.095   8.834   0.517 -0.1691  0.0421 -0.2449
32103W        W47912   8.917   3.635   5.981 -0.1229  0.2059 -0.2106
32104W        W47913   4.553  10.039  16.079 -0.0564 -0.0737 -0.2804
32105W        W47914   6.036  14.978   4.760  0.2159  0.2060 -0.2704
32106W        W47915   4.253   4.573   4.583 -0.1307  0.0903 -0.1299
32107W        W47916  10.802  10.373   1.147 -0.1323 -0.0566  0.0212
32108W        W47917  14.933  10.215   5.951  0.2007 -0.2382 -0.1415
32109W        W47918   7.624   7.843   0.453  0.1561 -0.1161  0.2308
32110W        W47919   2.729  13.802  11.214 -0.0076  0.2510  0.0175
32111W        W47920  12.046   8.003   4.953 -0.2060 -0.1014 -0.1758
32112W        W47921   2.410  16.719   1.479 -0.1856 -0.0853  0.1279
32113W        W47922  11.028   3.786  13.955  0.1253 -0.0413  0.5342
32114W        W47923  13.842  15.074  12.397  0.1508  0.1083  0.1603
32115W        W47924   7.331   4.786  15.291  0.1820  0.2439  0.2113
32116W        W47925   7.696   7.807  15.476 -0.2431  0.1286 -0.2115
32117W        W47926  10.586  17.629   1.140  0.0986 -0.2437 -0.2329
32118W        W47927   2.449   5.793  16.373  0.0891  0.0273 -0.2466
32119W        W47928   2.355   1.949  13.890  0.0583  0.0149  0.0232
32120W        W47929   3.465   9.791   0.821 -0.2219  0.1298 -0.0689
32121W        W47930  16.412  15.434   2.258 -0.1055  0.3933 -0.4291
32122W        W47931   9.986   9.384   4.148  0.1954 -0.0156 -0.0361
32123W        W47932  14.958   1.245  12.695  0.1276 -0.1230  0.2073
32124W        W47933   8.646   7.014   0.879  0.2487  0.0765 -0.0044
32125W        W47934   1.861   9.832  12.092  0.3639  0.2545 -0.0430
32126W        W47935  16.468   4.587  14.709 -0.1914 -0.0092  0.1493
32127W        W47936  17.354   5.521   2.981  0.0449 -0.0394 -0.0543
32128W        W47937   8.123  13.047   0.103 -0.0516  0.2477  0.1596
32129W        W47938  14.032   5.721   3.624  0.0122  0.0976  0.4407
32130W        W47939  12.304   3.431  12.922 -0.0379 -0.0619 -0.1931
32131W        W47940   2.394  12.418  13.773  0.0222  0.1602  0.1460
32132W        W47941  13.753   8.598  13.623  0.0897  0.0505  0.4756
32133W        W47942  15.848   6.075   2.952 -0.0960 -0.0018 -0.4751
32134W        W47943   9.481   8.580   4.570 -0.1247 -0.0065 -0.1384
32135W        W47944   3.492  15.966  11.915  0.0563  0.1936 -0.0770
32136W        W47945   9.793   5.830   0.467 -0.0637  0.2082 -0.0430
32137W        W47946  17.840   1.217   1.023  0.1994  0.0983  0.0370
32138W        W47947   6.848   8.048  11.771 -0.1114  0.1532  0.1067
32139W        W47948   6.971  14.671  13.998  0.0430  0.1455 -0.0928
32140W        W47949   8.315  13.633  11.292 -0.0824 -0.0967 -0.2076
32141W        W47950   6.910  14.126   5.636 -0.1871  0.0110  0.3025
32142W        W47951   2.319   2.684   3.147 -0.0767 -0.2924 -0.0669
32143W        W47952   7.211   7.989   0.049  0.0015 -0.2489 -0.1075
32144W        W47953  10.241   9.597  16.561  0.0542  0.2710  0.1103
32145W        W47954   1.036   1.770  13.883  0.0443  0.0136 -0.0894
32146W        W47955   2.256  12.888  12.231 -0.0476  0.2209  0.0740
32147W        W47956   1.501   3.613   2.206 -0.0239  0.1286 -0.1510
32148W        W47957  11.757   9.240  13.193 -0.0038  0.1449  0.1310
32149W        W47958   9.204   1.285  14.815  0.1668 -0.0974 -0.0289
32150W        W47959  15.357  11.458   3.600  0.4170  0.1849  0.1186
32151W        W47960  14.993  15.175   5.677  0.2886 -0.0621 -0.1996
32152W        W47961   8.932  15.099  12.035 -0.1208 -0.0602 -0.0946
32153W        W47962  12.969  12.529   3.160  0.1600  0.1532  0.0558
32154W        W47963   6.051   6.923   5.841 -0.1722 -0.3640  0.0211
32155W        W47964   0.719  14.106   2.064  0.1599  0.1659  0.1080
32156W        W47965   0.951   6.738   4.873 -0.1004  0.0141 -0.0131
32157W        W47966  10.604   6.538  15.223  0.0508 -0.0421 -0.2067
32158W        W47967  14.046   4.058  14.939 -0.3318 -0.2556 -0.2609
32159W        W47968  13.068   6.114   6.231 -0.3225  0.0597 -0.0220
32160W        W47969   9.205   3.556   3.250 -0.2804 -0.3353  0.1806
32161W        W47970   4.086  11.955   5.733 -0.0192  0.1111  0.2394
32162W        W47971   8.618   4.482   2.841 -0.1259 -0.0602  0.0338
32163W        W47972   3.548  17.686   0.033  0.4171 -0.1571 -0.1803
32164W        W47973  15.178   3.164   0.166 -0.3367  0.0448 -0.1128
32165W        W47974  12.319  11.553   3.884  0.0186  0.1786  0.2334
32166W        W47975  16.740   4.615  13.723  0.0007  0.4294 -0.1179
32167W        W47976   2.842   8.847  11.935 -0.0171  0.1791 -0.0237
32168W        W47977  12.130   8.522  13.088  0.1617  0.1539 -0.0357
32169W        W47978   2.599  16.407   5.799  0.0137  0.0745  0.1897
32170W        W47979  11.317   1.297   2.367  0.1176 -0.0730  0.1997
32171W        W47980   9.976   7.870  11.521  0.0065  0.1286  0.1518
32172W        W47981  15.140  15.066  16.038 -0.0280  0.0605  0.0718
32173W        W47982   3.437   5.039  14.218 -0.0346 -0.1043  0.3220
32174W        W47983   7.590   3.757   4.150 -0.3447 -0.2663  0.0107
32175W        W47984  14.405   4.993   3.070 -0.2815  0.0102 -0.2624
32176W        W47985  14.963   3.074  12.361 -0.1613  0.3579 -0.0506
32177W        W47986  11.201   9.150   6.431 -0.2329  0.1876 -0.0882
32178W        W47987   9.455   1.776   2.953  0.2526  0.0625 -0.0562
32179W        W47988   3.435   5.169  11.248 -0.1183  0.2599 -0.2315
32180W        W47989  14.720   4.162   0.492  0.1013  0.2093 -0.1466
32181W        W47990  11.171   1.611   1.871  0.0647  0.2540 -0.2826
32182W        W47991   3.767  11.337  15.932  0.0096 -0.2918 -0.1059
32183W        W47992   1.688   7.854  14.008  0.0552  0.0938 -0.0242
32184W        W47993  16.467   7.657   5.475  0.0825  0.1001 -0.0295
32185W        W47994   9.957  17.022  12.798 -0.1303  0.0232 -0.1185
32186W        W47995   3.245   6.847  16.442 -0.1209  0.0556  0.0694
32187W        W47996   1.519  14.381   3.740  0.0422  0.1566  0.0305
32188W        W47997  16.059   0.529   6.067  0.2300 -0.1546  0.1176
32189W        W47998   5.846   2.484   4.087  0.1914 -0.1978  0.2178
32190W        W47999   0.080   7.022  16.554 -0.0561  0.2743  0.2386
32191W        W48000   8.201   2.707   5.198 -0.2237  0.0176  0.2061
32192W        W48001  15.622   1.209  14.925 -0.0726  0.0696 -0.1778
32193W        W48002   9.709  15.893   2.439  0.2325 -0.1834  0.0526
32194W        W48003   5.685   8.551   3.010 -0.1968 -0.3818  0.0521
32195W        W48004   9.692  15.540  12.923  0.0607 -0.2277  0.0382
32196W        W48005  17.089  14.683   4.317  0.1833  0.1092 -0.1659
32197W        W48006  12.837   4.711  15.585  0.2212  0.0861 -0.0960
32198W        W48007   0.633   8.965   9.938  0.1848 -0.3201 -0.1946
32199W        W48008  15.807   3.972  13.145 -0.1009 -0.0472  0.0840
32200W        W48009   8.380  10.249   4.130  0.0355 -0.1910 -0.2183
32201W        W48010  13.189  14.636   2.099  0.0018 -0.1947  0.1116
32202W        W48011   0.172   1.941  12.161  0.0046 -0.6078 -0.0348
32203W        W48012  16.573  11.926   4.656 -0.3006 -0.2111 -0.0899
32204W        W48013  10.657   7.877  14.878  0.2436  0.0166 -0.2558
32205W        W48014  14.164  15.124  12.001 -0.1252  0.1872  0.1605
32206W        W48015  11.593   4.388  14.417  0.1609  0.1866  0.1178
32207W        W48016   4.397  12.419  11.696  0.1674 -0.1250  0.3398
32208W        W48017  10.527  12.958   2.895  0.4741 -0.2190  0.0615
32209W        W48018  14.426   8.780   3.748  0.0778  0.0303  0.0766
32210W        W48019  13.740   3.884  14.643  0.0413 -0.1285  0.1216
32211W        W48020  12.511  11.949   1.803 -0.3311 -0.3638 -0.2320
32212W        W48021   4.084   9.371  13.108  0.3660 -0.0034  0.0861
32213W        W48022   5.302   4.787  14.449 -0.2785  0.1494  0.0047
32214W        W48023   5.304  11.983   5.028  0.1397  0.1307 -0.2428
32215W        W48024  15.504   4.652   0.281 -0.0687  0.1715 -0.0773
32216W        W48025   0.452   8.820  14.358  0.0783  0.0639  0.2360
32217W        W48026   2.721  14.338  16.163  0.1772  0.1122  0.1083
32218W        W48027   4.114   1.624  15.807 -0.1776 -0.0013  0.0541
32219W        W48028   1.875  17.718  12.333 -0.3681 -0.0912  0.1179
32220W        W48029  11.559  11.752   0.980 -0.2273 -0.0764 -0.2714
32221W        W48030  15.752   1.346   5.677  0.3299  0.1896  0.1068
32222W        W48031   2.984  10.804   1.968 -0.4828 -0.0794  0.1212
32223W        W48032   2.007   6.170  10.534  0.0555 -0.0386  0.1970
32224W        W48033  16.864  11.337   5.730 -0.0155 -0.1789  0.0124
32225W        W48034  14.336   6.078   0.099 -0.2032 -0.1269  0.1847
32226W        W48035  10.863   0.680   5.815 -0.2660  0.0260 -0.2286
32227W        W48036  10.838   8.309   3.907 -0.0405  0.0301 -0.3015
32228W        W48037   4.266   1.970   4.449 -0.0375  0.0735 -0.1357
32229W        W48038  12.709   8.679   5.530 -0.2788 -0.1278 -0.2369
32230W        W48039   4.201   7.758  14.911  0.2126 -0.1513  0.1270
32231W        W48040  11.975   1.186   0.264 -0.0474 -0.0687 -0.2502
32232W        W48041   1.727  16.155  15.518 -0.2076  0.1178  0.1852
32233W        W48042   7.303  16.579   4.911  0.1788 -0.1197  0.0016
32234W        W48043  12.188  14.403  11.533 -0.0932 -0.3067 -0.0649
32235W        W48044  12.450   7.661  13.491 -0.1724 -0.1564 -0.1414
32236W        W48045   5.892  10.866   4.736 -0.2175 -0.0211  0.0889
32237W        W48046   1.488  11.791  11.254 -0.3333  0.0102 -0.4365
32238W        W48047   4.827   7.203  12.234 -0.3140  0.1899  0.2413
32239W        W48048   1.665   0.282  13.062 -0.1499 -0.2258  0.1369
32240W        W48049  15.036  15.809  14.192 -0.1279 -0.1282  0.0890
32241W        W48050  14.448  13.459  15.747  0.1802  0.1617 -0.1214
32242W        W48051   2.562   2.669   1.031 -0.0555 -0.3490 -0.1491
32243W        W48052   0.698  14.990  12.464  0.1550 -0.1114 -0.0285
32244W        W48053  13.657   1.722   6.347  0.1464  0.3724 -0.3212
32245W        W48054   4.804   7.502  16.662  0.2042  0.1601 -0.2013
32246W        W48055  13.089  15.976   4.815 -0.2825  0.3497  0.2676
32247W        W48056   5.112  11.747   1.521 -0.0231 -0.1429 -0.1383
32248W        W48057  12.985  15.839  16.618 -0.2610 -0.0817 -0.2036
32249W        W48058   4.456   2.499  15.307  0.1194 -0.0520  0.0759
32250W        W48059   8.921  16.327   3.527  0.0338 -0.1020  0.1976
32251W        W48060   1.279   1.738   3.712  0.1414  0.5377  0.1351
32252W        W48061  14.206   0.054   3.033  0.2496  0.1639  0.0063
32253W        W48062   7.499   4.476  11.986 -0.4037  0.1850 -0.0475
32254W        W48063   5.056  14.020  11.637  0.2446 -0.0274 -0.1904
32255W        W48064  15.265   5.188   5.969  0.1923 -0.0399  0.0953
32256W        W48065   7.257  10.127  11.679  0.0842  0.1983  0.1222
32257W        W48066   3.964   7.813   2.819  0.1328  0.0770 -0.0354
32258W        W48067   8.436  16.745   4.591  0.2168 -0.2621  0.0363
32259W        W48068  14.473   2.773  16.232 -0.1162  0.0859 -0.0437
32260W        W48069   6.693   9.552   3.694  0.4251  0.2037  0.1383
32261W        W48070  10.473  13.773  14.710  0.0814 -0.1736 -0.0938
32262W        W48071   5.319   8.367   0.227 -0.0464  0.2517 -0.1262
32263W        W48072   6.462   8.600  12.261  0.1454 -0.0678 -0.2107
32264W        W48073  13.917  12.045   1.093  0.2890  0.0356 -0.2847
32265W        W48074  15.864   9.722  13.007  0.0308 -0.2506  0.0344
32266W        W48075   9.756   7.886  12.714 -0.3805  0.0950 -0.2180
32267W        W48076   3.897  11.559   4.906  0.1177 -0.0185  0.1537
32268W        W48077   3.868  17.089   2.301  0.1931  0.1353 -0.2633
32269W        W48078   2.370   4.125   3.120 -0.4848  0.0662  0.0682
32270W        W48079   6.050   2.044   5.645  0.1141 -0.1596 -0.0401
32271W        W48080   8.714   5.884   2.834 -0.3381  0.0544  0.0525
32272W        W48081  10.089   8.000  12.026 -0.4397 -0.2571  0.0648
32273W        W48082   0.559   0.297   2.399 -0.0229  0.0452  0.2499
32274W        W48083  14.498  17.340   1.333 -0.2174 -0.1681 -0.0985
32275W        W48084  11.666   5.883   4.387  0.0104  0.1203 -0.1036
32276W        W48085   2.359  14.819   4.488  0.0656  0.2204 -0.1826
32277W        W48086   7.980  14.608  12.817 -0.0037  0.0623  0.0123
32278W        W48087   0.475   2.806   2.676 -0.0127  0.3488 -0.0037
32279W        W48088   2.857  14.019   3.126 -0.0617 -0.1843 -0.2582
32280W        W48089   8.041   1.902  14.238  0.0554 -0.0795 -0.2438
32281W        W48090   7.081   9.773   3.874 -0.0899 -0.0668 -0.1110
32282W        W48091   2.298   1.501  11.735 -0.3575  0.0886 -0.2150
32283W        W48092  16.594   5.387   1.996  0.0843  0.1207  0.1406
32284W        W48093   1.739   9.627   3.659 -0.3051 -0.0838 -0.1542
32285W        W48094   9.962   2.921   2.420 -0.1943  0.2021 -0.1324
32286W        W48095  14.674   8.345  14.004 -0.3514 -0.0001  0.1680
32287W        W48096   6.368  14.567  14.966  0.1015  0.0322  0.0541
32288W        W48097   6.450  12.033  16.192 -0.1297 -0.1358 -0.0611
32289W        W48098   3.883  17.670  15.169  0.0812  0.0971 -0.1928
32290W        W48099   9.591  11.420  16.042  0.2299  0.2090  0.2510
32291W        W48100  15.122   6.773   0.816  0.0984  0.0813  0.0518
32292W        W48101  10.139  11.595   5.224 -0.4137  0.1105 -0.1073
32293W        W48102   5.385   4.277  11.905 -0.0578 -0.0548 -0.1153
32294W        W48103   8.209  12.988   3.083  0.0963 -0.3886 -0.1169
32295W        W48104   4.823   6.397  14.074 -0.1347 -0.2073  0.2385
32296W        W48105   4.235   3.820   3.339 -0.1457 -0.2282 -0.0797
32297W        W48106  17.098  14.493   3.379  0.0578  0.2133  0.2126
32298W        W48107  16.301   1.740   4.682  0.2341  0.3184 -0.2241
32299W        W48108   3.728   6.418   4.257  0.2362  0.2064  0.1082
32300W        W48109   1.980  12.488  12.282 -0.1973 -0.0484 -0.1354
32301W        W48110  15.163   8.120  16.262 -0.2643 -0.0595 -0.2228
32302W        W48111   1.828   5.432  11.152 -0.0669  0.0329  0.0347
32303W        W48112   4.376   5.862  14.797  0.1489 -0.0581  0.1639
32304W        W48113   4.837  13.091   2.308  0.0154 -0.3962  0.1703
32305W        W48114   0.273  16.160  11.571 -0.5738 -0.0856  0.1611
32306W        W48115   4.249  11.185  12.541 -0.1583  0.1274  0.0268
32307W        W48116  13.414   1.157   4.459 -0.1930  0.2313 -0.1290
32308W        W48117  16.425   3.055  15.124 -0.2523 -0.2952 -0.0031
32309W        W48118   2.037  16.112  11.670 -0.0579  0.1121 -0.2617
32310W        W48119  12.518  14.612  14.186 -0.1988  0.1070  0.0417
32311W        W48120  10.245  10.960   2.457 -0.2018 -0.1004 -0.0729
32312W        W48121  16.382   5.533   0.031 -0.2023  0.0976  0.1599
32313W        W48122   6.416  11.280  12.171 -0.1884  0.0412 -0.0627
32314W        W48123  15.080  11.337  13.944  0.0684 -0.2816 -0.0405
32315W        W48124  12.896  13.366   3.466  0.0432  0.0255  0.0487
32316W        W48125  12.417  14.446   2.596 -0.2277  0.1937 -0.0630
32317W        W48126  16.649   4.846   3.307 -0.0565  0.0902 -0.1407
32318W        W48127  17.336   2.752   0.774  0.2078  0.2383 -0.0041
32319W        W48128  14.588  15.395  11.950  0.0513  0.0591 -0.1232
32320W        W48129   5.360   6.368  15.841 -0.0191  0.2501 -0.0062
32321W        W48130   4.641   5.428   4.094  0.0667  0.2827 -0.2088
32322W        W48131   3.261   2.140  14.856  0.2400 -0.2134 -0.0697
32323W        W48132   8.074   4.565   4.653  0.0705 -0.0049  0.0187
32324W        W48133  16.462   6.088   1.578  0.2336  0.2281  0.1234
32325W        W48134   2.908   5.073   2.978 -0.2235 -0.1294 -0.0640
32326W        W48135   8.021  16.888   2.214  0.2068 -0.0497  0.0727
32327W        W48136  17.929   2.482   3.540 -0.1738  0.1565 -0.1905
32328W        W48137  12.394  16.212  13.930 -0.3604 -0.0796 -0.2200
32329W        W48138   0.911  12.346   3.454  0.1705  0.3700  0.5975
32330W        W48139  14.048   7.378   5.398  0.2711  0.0494 -0.0426
32331W        W48140  16.612   7.142  14.393 -0.4196 -0.0701 -0.0873
32332W        W48141  14.308   8.126  14.894 -0.3232 -0.1806 -0.0337
32333W        W48142   7.486   8.659  12.674  0.2817  0.2598 -0.1034
32334W        W48143  15.660   4.491  13.017 -0.0088  0.0922 -0.1406
32335W        W48144   2.323  11.763   3.712  0.1027  0.0421  0.1980
32336W        W48145  15.877   9.699   1.130  0.0426  0.0792  0.0179
32337W        W48146  11.201   3.060   4.158 -0.2114 -0.1769 -0.1728
32338W        W48147  12.961   4.171  15.808 -0.0382 -0.1846  0.2127
32339W        W48148   4.053   9.271  10.961 -0.0122  0.4406 -0.1243
32340W        W48149  13.375  16.617   2.062  0.1558  0.1751  0.0768
32341W        W48150   0.611  16.380   2.348  0.0766  0.0698  0.0823
32342W        W48151   2.420   5.382  15.021  0.2692  0.2993 -0.4437
32343W        W48152  13.390  17.620  15.046  0.0128  0.0047  0.1506
32344W        W48153  13.101   5.354  11.693 -0.2589  0.0438 -0.1361
32345W        W48154   7.246  10.096   2.690 -0.3550 -0.2693  0.1978
32346W        W48155   8.359  13.438  14.135  0.0011 -0.2309  0.1241
32347W        W48156  17.515  15.843  15.059 -0.0375  0.1234 -0.1695
32348W        W48157  15.255  13.348  14.806  0.2385 -0.0258 -0.5585
32349W        W48158   4.146  13.717   3.905 -0.3069  0.0607 -0.2349
32350W        W48159   6.712  17.403   5.086 -0.1066  0.0711 -0.1759
32351W        W48160   1.572   3.278   0.503  0.1508 -0.1654  0.0449
32352W        W48161   7.753   5.480  12.325 -0.0758 -0.1189 -0.0864
32353W        W48162   3.510   6.256   2.594  0.1214 -0.3322  0.0976
32354W        W48163  16.914  13.387  14.952 -0.1907 -0.0750 -0.0128
32355W        W48164   7.489  15.518   5.237 -0.1367  0.4755  0.0404
32356W        W48165  13.383  13.902   0.873 -0.1331 -0.1984 -0.0276
32357W        W48166  15.308   7.528  13.933 -0.2260  0.2493 -0.0782
32358W        W48167  12.761  16.811   0.399  0.0153 -0.1182  0.0462
32359W        W48168   1.064   0.773   4.511 -0.0385 -0.0469  0.1291
32360W        W48169   2.158   0.831   3.142 -0.3896 -0.1149 -0.2886
32361W        W48170   4.998   3.003  16.476  0.0877 -0.0184  0.0608
32362W        W48171   0.379   7.556  14.085  0.0998 -0.0235  0.1818
32363W        W48172   4.810  10.113  12.790 -0.0570 -0.0194 -0.1570
32364W        W48173  13.031   5.563   0.548  0.1537 -0.2263 -0.2342
32365W        W48174  10.352   6.483  13.036 -0.1259  0.2089  0.1574
32366W        W48175   4.328   5.187  14.449  0.2179 -0.0966 -0.0045
32367W        W48176   2.716   9.428  10.703  0.0449  0.0544  0.0160
32368W        W48177   7.715   4.080   0.188 -0.0185  0.4975  0.2252
32369W        W48178   2.507   1.518   5.058  0.0212 -0.2127  0.0201
32370W        W48179   2.436   4.115  13.792  0.0524 -0.3072 -0.0137
32371W        W48180   5.951   3.939  14.049 -0.1000  0.3281 -0.1497
32372W        W48181  12.712  15.536   5.893 -0.2376 -0.0625  0.1201
32373W        W48182  17.550  13.659  12.701 -0.2288 -0.1761 -0.0636
32374W        W48183   3.812   1.984   2.688 -0.0622  0.4831  0.4827
32375W        W48184  14.214   0.742   2.365  0.0410  0.0299  0.0494
32376W        W48185  12.616   0.639   6.638 -0.1503 -0.1103  0.0519
32377W        W48186   7.538   7.721   4.333  0.0094  0.1244  0.1871
32378W        W48187   0.149   8.189   4.055  0.1383 -0.0418  0.0979
32379W        W48188  12.907   5.005   5.665 -0.5280 -0.2804  0.2173
32380W        W48189   5.897  12.150   0.844 -0.0443  0.0561  0.1274
32381W        W48190   0.222   6.759  15.132 -0.0579  0.0056  0.4630
32382W        W48191  16.011   0.391  11.883  0.0692  0.1853 -0.0224
32383W        W48192  10.905   3.603   5.294  0.0556  0.1008  0.1521
32384W        W48193   4.352   0.724   3.604 -0.1379  0.0782 -0.3471
32385W        W48194  17.583   7.599   1.071 -0.0525 -0.0880  0.0203
32386W        W48195  14.700   8.485   3.442  0.0055 -0.0125 -0.0406
32387W        W48196   8.363  17.856   4.035 -0.1661 -0.2524 -0.1811
32388W        W48197   9.420   8.307   0.360  0.3566  0.1513  0.0006
32389W        W48198  15.554   2.439  13.813  0.0280 -0.1254 -0.3280
32390W        W48199  17.634   7.374  12.929  0.1674 -0.1677 -0.0652
32391W        W48200   7.793   4.618   3.093  0.0538  0.2103 -0.0154
32392W        W48201   1.747  15.210   3.050  0.0211 -0.0830  0.0295
32393W        W48202   7.058  13.929  11.567  0.2449 -0.0084  0.2744
32394W        W48203  13.035   9.785  15.473 -0.0298 -0.2875 -0.1121
32395W        W48204  12.113   8.845  14.571 -0.0628 -0.1880 -0.0826
32396W        W48205   4.901   7.752  12.452  0.0344 -0.0254 -0.3309
32397W        W48206   6.489  15.337  14.096  0.0084 -0.2365  0.1791
32398W        W48207   1.862  17.753  13.330  0.3336 -0.2255 -0.1576
32399W        W48208   5.793   6.726   3.549 -0.1944  0.0876  0.0335
32400W        W48209  13.969  14.263  13.713 -0.5526 -0.1001 -0.3745
32401W        W48210   9.232   5.706  13.600  0.1109 -0.3855 -0.0632
32402W        W48211   9.711   6.263   2.475 -0.3712  0.1463  0.1245
32403W        W48212   7.041   2.954   4.821 -0.0148  0.2404 -0.1846
32404W        W48213  13.539   9.922   4.794  0.4628  0.0684  0.2836
32405W        W48214   3.150   6.156  11.389  0.1524 -0.2228 -0.1353
32406W        W48215   7.308   2.080   1.213 -0.1452  0.0187 -0.1667
32407W        W48216   1.031  16.615   2.218  0.0719  0.1910 -0.3025
32408W        W48217   3.889  14.730  14.549  0.0895  0.1275  0.1921
32409W        W48218  11.521   9.203   0.106  0.0603 -0.3712  0.0309
32410W        W48219   8.922  12.171  10.488  0.0712 -0.1696 -0.0040
32411W        W48220   6.505  17.674   0.180  0.3985 -0.2116  0.0826
32412W        W48221   8.375  10.275   2.395 -0.0982 -0.1047  0.1662
32413W        W48222   1.010   8.489   3.031 -0.1637  0.0638 -0.0357
32414W        W48223   2.089   7.922   2.499 -0.0530  0.0249 -0.1511
32415W        W48224   8.192  15.949  12.585  0.2805 -0.2072  0.2297
32416W        W48225   3.462   4.450   1.229  0.4300  0.1011 -0.2524
32417W        W48226  11.506   1.951   0.349  0.0163  0.0295  0.1018
32418W        W48227  13.155  16.250  16.371 -0.1064 -0.1806 -0.2425
32419W        W48228  12.263   3.235  11.971  0.2679 -0.3723  0.0146
32420W        W48229   0.763   1.637   3.564  0.1811  0.1023 -0.2354
32421W        W48230  15.304  11.489   5.200 -0.1146 -0.4417 -0.1365
32422W        W48231   1.081   0.085  14.531  0.1630 -0.3310  0.1568
32423W        W48232   2.264  16.111  10.750  0.2037  0.2187 -0.0835
32424W        W48233   0.624   2.192   5.409  0.2514 -0.0082 -0.1763
32425W        W48234  16.668  15.814  11.692 -0.0208  0.0133  0.0604
32426W        W48235  16.785   7.736  13.794 -0.2622  0.2077 -0.1885
32427W        W48236  15.513  17.497   6.149 -0.3214 -0.2368  0.3079
32428W        W48237   6.997   1.357  15.904  0.3838 -0.0298  0.2446
32429W        W48238   5.470   2.872   4.242  0.1635  0.1777 -0.1533
32430W        W48239   2.345  14.873  12.853  0.0726 -0.0962  0.2924
32431W        W48240  14.067   3.515  14.961  0.1136 -0.1970  0.0355
32432W        W48241  15.849   4.186   3.723 -0.0625 -0.1032 -0.1497
32433W        W48242   4.826   2.443  13.797 -0.1350  0.0041  0.1902
32434W        W48243   7.581   2.587   2.957  0.1207 -0.1685 -0.1895
32435W        W48244  15.748  11.659   5.770  0.0479  0.3761 -0.0176
32436W        W48245   7.821  13.613  15.330 -0.2695  0.3132 -0.1226
32437W        W48246   5.697   7.723   1.926 -0.0326 -0.0093  0.1948
32438W        W48247   5.687  12.864  15.341  0.0826  0.1202  0.0268
32439W        W48248   3.137   9.548   3.323 -0.1025  0.0445  0.0687
32440W        W48249   8.125  16.544   2.757 -0.0453 -0.2511 -0.3990
32441W        W48250   8.667  13.712  11.597 -0.0196 -0.0068  0.2757
32442W        W48251   9.237  14.323  13.706  0.0324 -0.0202 -0.3005
32443W        W48252   0.062  17.181  15.180  0.1263  0.0883  0.0992
32444W        W48253   1.647   6.539   1.038 -0.3628  0.3028  0.0850
32445W        W48254   7.248   4.817   3.006  0.0154 -0.2171  0.0957
32446W        W48255  16.999  14.736  15.544  0.0100 -0.0337 -0.2513
32447W        W48256   6.146  16.069  13.693  0.2618 -0.2196  0.2946
32448W        W48257  12.004  17.571  14.471 -0.1532 -0.0004 -0.1659
32449W        W48258  13.925   0.985   4.519  0.0208  0.0467  0.0779
32450W        W48259  10.758   0.324   3.907  0.1251 -0.1274  0.1343
32451W        W48260  13.296   7.742   3.858 -0.0622  0.2027  0.1419
32452W        W48261  13.452  11.818   1.896  0.0482  0.0698  0.1286
32453W        W48262   7.932   4.684   2.208 -0.0439 -0.1223 -0.0612
32454W        W48263   3.826   3.147  13.514  0.2151 -0.1401  0.1190
32455W        W48264  11.585   7.002  12.317  0.0182  0.1572  0.0464
32456W        W48265   3.659   2.918  12.260  0.1423  0.0432 -0.0820
32457W        W48266   3.770   0.731  12.989  0.0617 -0.0851 -0.3331
32458W        W48267   6.845  17.594  13.121 -0.0910  0.0137  0.1353
32459W        W48268   3.279   9.833  11.712 -0.1163  0.0417  0.1269
32460W        W48269   1.376  11.526  14.248  0.2458  0.0677  0.0398
32461W        W48270   5.285  13.591  16.237  0.0015 -0.0901 -0.2333
32462W        W48271   4.590  10.786  16.579 -0.0053  0.1106 -0.3876
32463W        W48272  14.605   8.155   4.471  0.1251  0.0179  0.0270
32464W        W48273  15.558   5.156  14.753 -0.3683  0.0636  0.3431
32465W        W48274   9.344   9.676  12.252  0.0359  0.4311 -0.2371
32466W        W48275   7.535   7.910  14.431  0.0536 -0.2454 -0.0142
32467W        W48276   8.444   6.721  15.409  0.0931 -0.3629  0.2900
32468W        W48277   7.221   3.375  12.657  0.5671 -0.1176  0.1206
32469W        W48278  11.218  15.157   0.988 -0.0887 -0.1163  0.0210
32470W        W48279  17.374   7.822  16.258  0.0638 -0.1407 -0.2239
32471W        W48280   4.940   1.196   2.843 -0.0412  0.0626 -0.1349
32472W        W48281  16.149   8.043   1.968  0.1653  0.0728  0.0065
32473W        W48282   8.959   8.573  13.837  0.2601 -0.2297  0.0232
32474W        W48283  16.407   0.160  13.716  0.0772  0.0195  0.3707
32475W        W48284  10.321  13.697   5.153 -0.0584 -0.2211  0.3587
32476W        W48285   9.463  14.510  11.678  0.0939  0.2632 -0.2061
32477W        W48286   4.071  14.431  14.989 -0.0711 -0.2545  0.1238
32478W        W48287   7.583   3.241   2.390 -0.2857 -0.2827  0.1052
32479W        W48288   6.442  15.908   2.627  0.2961  0.1123 -0.1230
32480W        W48289   9.750   5.308   2.913 -0.2432 -0.0634 -0.2469
32481W        W48290  12.183   6.047   2.361 -0.2337  0.3727 -0.1086
32482W        W48291   1.293  10.324   2.939 -0.1004 -0.1215  0.2182
32483W        W48292   5.777   8.323   2.612  0.0040 -0.2400  0.0440
32484W        W48293   9.520   2.626  12.128  0.0024 -0.0913  0.1047
32485W        W48294  12.198  11.858  12.186  0.0543 -0.2653  0.0526
32486W        W48295   4.075   7.869   2.274  0.0501  0.1563  0.2538
32487W        W48296   7.728   3.963   2.931  0.2081  0.1638 -0.0246
32488W        W48297   1.852  16.666  13.599  0.0799  0.1092 -0.2547
32489W        W48298  14.162   8.611   2.529 -0.3075  0.1893 -0.0037
32490W        W48299  15.219  11.090  13.422  0.3336  0.2346  0.2420
32491W        W48300   3.630   7.497  13.548  0.0093 -0.4236  0.2807
32492W        W48301   4.205   1.052   0.794 -0.3645  0.2985 -0.0135
32493W        W48302   4.810  11.371  13.764  0.0802 -0.2125 -0.3959
32494W        W48303   7.915   6.665  15.492  0.1684 -0.0620  0.1243
32495W        W48304  17.445  12.875  15.045 -0.0581 -0.0842 -0.1524
32496W        W48305  12.812   7.709  13.160  0.0136 -0.0446 -0.1858
32497W        W48306  12.550  16.883   4.221 -0.1799  0.0759  0.2787
32498W        W48307  16.821  17.951   0.247  0.0394  0.0618  0.1058
32499W        W48308   2.671  16.011  12.732 -0.2047 -0.1067 -0.1150
32500W        W48309  11.541   6.679   5.291  0.1322 -0.0105  0.0748
32501W        W48310  14.570   1.475   1.767  0.1319  0.1965 -0.1562
32502W        W48311   0.024   4.407  13.361 -0.1492 -0.3143  0.0209
32503W        W48312   4.414  15.890   3.621 -0.0037  0.0656  0.3139
32504W        W48313  12.458   8.581  11.697  0.0333 -0.0737 -0.0784
32505W        W48314  14.790  15.082  15.077 -0.2816 -0.0319 -0.0607
32506W        W48315  11.615  17.194   1.453 -0.1617 -0.2365  0.1662
32507W        W48316  11.809   3.396  12.073 -0.1291 -0.0307 -0.0971
32508W        W48317   1.678   9.877   4.045  0.0095 -0.3113 -0.0291
32509W        W48318   7.155   0.582   2.612  0.3619  0.0228  0.2676
32510W        W48319   6.070   4.955   3.604  0.1087 -0.1581 -0.0156
32511W        W48320   5.630  15.365  12.536  0.1931  0.2287 -0.0340
32512W        W48321  15.936  13.365   4.168  0.3888  0.0956  0.3056
32513W        W48322  14.454  16.982  15.359 -0.3625  0.0111 -0.0545
32514W        W48323  17.942   6.495  12.466  0.0928  0.1358  0.3127
32515W        W48324   9.254  17.558   6.277  0.0333  0.0434  0.0914
32516W        W48325  14.524   7.408   5.190 -0.1324  0.0856 -0.0460
32517W        W48326  14.411   8.206   4.986 -0.1316 -0.1821  0.2789
32518W        W48327  14.455   0.473  12.330  0.1954 -0.1822 -0.3127
32519W        W48328   9.813  10.427   5.498 -0.2014 -0.1512  0.0206
32520W        W48329  13.746   4.834  13.401 -0.1461 -0.2477 -0.2768
32521W        W48330   9.191  13.378   3.342 -0.1596  0.1710  0.0603
32522W        W48331  14.566   4.497   1.920  0.0845 -0.4097  0.0123
32523W        W48332   8.372   9.375  13.006 -0.2274  0.0890 -0.0463
32524W        W48333  11.146   2.765  13.298  0.0346 -0.0713 -0.2788
32525W        W48334   7.456  10.525   4.149  0.1024  0.2247 -0.1677
32526W        W48335  11.746   3.158   6.043 -0.0011 -0.0228  0.0313
32527W        W48336   1.627  11.753  14.751  0.0402  0.0193 -0.3639
32528W        W48337   7.599   3.608   5.210  0.1410 -0.0451  0.1131
32529W        W48338   6.107   7.833   2.230 -0.0013 -0.3649 -0.0521
32530W        W48339   5.570  10.730  15.708 -0.1713  0.0433 -0.2348
32531W        W48340   1.694  12.012  15.704 -0.1147 -0.1423 -0.5022
32532W        W48341  14.071  16.552  16.679  0.0397  0.1955 -0.3600
32533W        W48342   4.117   8.575  12.727 -0.4939  0.3334 -0.2159
32534W        W48343   5.112  16.014  13.870  0.1009 -0.1851  0.3721
32535W        W48344  15.962   6.710   4.911 -0.3266 -0.2314 -0.0821
32536W        W48345   6.331  17.394   0.609 -0.2125  0.0023 -0.3831
32537W        W48346  10.617   6.700   0.372 -0.3139  0.0757  0.0858
32538W        W48347   2.048   5.160   0.660  0.1415  0.2073  0.0654
32539W        W48348   5.861   2.921   5.213 -0.0162 -0.1646 -0.3728
32540W        W48349   1.568  16.107   3.207 -0.1869  0.1438 -0.1142
32541W        W48350  15.496   0.946  15.427 -0.1342  0.1636  0.0456
32542W        W48351   2.350   9.200   1.426  0.2364  0.2371  0.2947
32543W        W48352   4.234  16.762   4.052  0.2127  0.2242  0.0781
32544W        W48353  15.929  12.479   5.099  0.0741  0.1321 -0.2445
32545W        W48354  13.813  10.721   0.390  0.2911 -0.0014  0.0420
32546W        W48355  16.100   9.753   4.181 -0.0595 -0.1179 -0.0347
32547W        W48356  13.894  11.079  15.304  0.1246  0.0170  0.0157
32548W        W48357  10.582  17.678   0.473  0.0181 -0.1318 -0.0284
32549W        W48358   9.793  16.268   0.496 -0.1027 -0.1392  0.2066
32550W        W48359   7.845  11.341  13.598  0.2539  0.1464 -0.1495
32551W        W48360   3.138   7.929   2.368 -0.1196 -0.3084  0.0315
32552W        W48361   3.371  15.468   2.186 -0.0742 -0.0225 -0.0484
32553W        W48362   2.271   1.495   2.396 -0.2112 -0.3317  0.3402
32554W        W48363   1.558   4.160  15.350  0.1452  0.3512  0.5396
32555W        W48364  13.574   7.447   5.626 -0.0859 -0.1589  0.0857
32556W        W48365  16.553   2.674   5.230  0.2182  0.1822  0.3027
32557W        W48366  13.047  16.743  12.124 -0.2221  0.2103  0.0719
32558W        W48367  17.834   9.753   4.471 -0.0079 -0.1463  0.1364
32559W        W48368  12.128   2.628  14.526 -0.3557  0.1277 -0.0118
32560W        W48369  16.317   5.132  12.007  0.2161  0.3723  0.2036
32561W        W48370   8.013   9.306   1.088  0.0033  0.0327 -0.0114
32562W        W48371   9.718   2.309  13.425 -0.1307  0.0553  0.0259
32563W        W48372   8.670   6.828  11.749 -0.5432 -0.1285  0.0598
32564W        W48373   8.004  14.986  13.164  0.2301 -0.1180  0.1439
32565W        W48374  16.849  14.476   1.279 -0.1617  0.2366 -0.2750
32566W        W48375  17.525  17.200   0.659 -0.1154  0.0464 -0.2411
32567W        W48376  12.883   7.319   4.015  0.0092 -0.0888  0.1741
32568W        W48377   1.591  17.681  10.393 -0.1467  0.0066 -0.0191
32569W        W48378   2.388   3.477  11.161  0.0791  0.1014  0.0497
32570W        W48379   7.982  13.361  16.147  0.5269  0.1755 -0.0325
32571W        W48380  14.867   6.819  14.314 -0.2689  0.0838  0.1021
32572W        W48381   8.969   9.035   4.969  0.2148  0.0385  0.1396
32573W        W48382   3.319  10.166  11.211 -0.0642  0.1890  0.0363
32574W        W48383  10.450  10.440   3.276 -0.2257 -0.1604 -0.0368
32575W        W48384   1.439   0.957   3.761 -0.1733  0.1688  0.0310
32576W        W48385   0.840  12.898  13.153  0.1234  0.1363  0.0895
32577W        W48386   5.800  15.288   3.379  0.3199 -0.1240 -0.1009
32578W        W48387   9.631   1.125  16.437  0.1482  0.0911  0.3424
32579W        W48388   1.217   9.033   0.525  0.0502  0.5057 -0.2237
32580W        W48389  14.312  14.548   3.257  0.2990 -0.0662 -0.0177
32581W        W48390   9.894  10.070  13.854  0.3872 -0.4097 -0.1638
32582W        W48391   4.552  15.669  12.691 -0.0971  0.1871 -0.0144
32583W        W48392  15.876   4.086  13.824 -0.3981 -0.3676 -0.3371
32584W        W48393  16.195   3.649  15.114  0.1175 -0.0006  0.3488
32585W        W48394   9.152  15.871  16.171  0.0686 -0.0358  0.5130
32586W        W48395  15.929  11.683   3.893  0.0317 -0.0347  0.0605
32587W        W48396   4.083   0.908  11.545  0.1493  0.0034  0.0953
32588W        W48397   7.142  14.284   5.180 -0.2105 -0.0200  0.4593
32589W        W48398   3.732   0.552   0.957 -0.0267 -0.1028 -0.3150
32590W        W48399   5.836   8.381   3.540 -0.3279  0.1849 -0.1458
32591W        W48400   8.665   6.972  15.825  0.0942  0.2297 -0.2891
32592W        W48401  16.792   1.412   3.340  0.0001  0.1986 -0.0879
32593W        W48402  15.560  12.523   5.449 -0.0529 -0.1751 -0.0263
32594W        W48403  17.247   9.125  12.522 -0.0380 -0.0647 -0.0093
32595W        W48404  17.326  14.013   3.583 -0.0891 -0.0941 -0.0575
32596W        W48405   3.401  13.448  14.867  0.3886  0.3030 -0.3532
32597W        W48406  13.729  15.546   0.580 -0.4769 -0.1751 -0.3129
32598W        W48407  12.917  11.762  13.991 -0.0095  0.1035  0.1674
32599W        W48408   5.345  10.619   1.372  0.0799  0.0085  0.3119
32600W        W48409  10.080  16.751   0.427  0.2402 -0.0285  0.1395
32601W        W48410  16.577   5.869  14.291  0.2608  0.2260  0.0480
32602W        W48411  16.968   2.346   1.890 -0.0241 -0.2141  0.0033
32603W        W48412   2.532  13.188   2.589 -0.0618  0.1874 -0.0261
32604W        W48413  10.225   2.540   5.125 -0.4070  0.2407  0.2256
32605W        W48414   0.271   9.019  11.542 -0.1677 -0.0044  0.2913
32606W        W48415   6.575   2.939   4.576  0.1533  0.2245  0.1276
32607W        W48416   2.085  14.729   6.118 -0.2447 -0.0594  0.0678
32608W        W48417   0.692   3.840   3.918  0.1411 -0.0010  0.0570
32609W        W48418  13.699   3.238   2.600  0.2548  0.0857  0.1068
32610W        W48419   0.221   9.796  13.471 -0.1709  0.0679  0.1323
32611W        W48420   1.659   2.019   5.128 -0.1872  0.0072  0.1927
32612W        W48421   6.985   3.447   0.383  0.3569 -0.0494 -0.2786
32613W        W48422   8.652  15.708  13.737  0.0280 -0.2483  0.1052
32614W        W48423   8.698   8.255   2.929  0.2270  0.1292 -0.0049
32615W        W48424   8.227  16.973  14.598  0.1317 -0.1195  0.4187
32616W        W48425  10.264   5.388   0.421  0.0239  0.0269  0.1988
32617W        W48426   7.006   0.191   2.304 -0.0633 -0.1385  0.4087
32618W        W48427   9.339  10.760   1.807  0.1107  0.0433 -0.1659
32619W        W48428  11.241  16.644  12.051 -0.3060 -0.1157 -0.1038
32620W        W48429   9.719  12.236  13.365 -0.1034  0.3892  0.1089
32621W        W48430   2.071  15.846  16.484  0.3678  0.2752 -0.3699
32622W        W48431  12.970  15.854  14.485 -0.1419 -0.3280  0.0169
32623W        W48432  10.217   1.118   5.174  0.2282 -0.0475 -0.4201
32624W        W48433   3.222   3.990   3.841  0.0874  0.1810 -0.0381
32625W        W48434  16.118   9.005  12.998  0.0862 -0.0774 -0.0993
32626W        W48435  13.025  13.926  14.214  0.0498 -0.2321  0.1255
32627W        W48436  16.346   7.073   0.698  0.1762  0.2381  0.4330
32628W        W48437  11.521   6.682  14.901 -0.1298 -0.1030  0.2609
32629W        W48438   0.181  11.936   5.591 -0.0180  0.0062  0.0568
32630W        W48439  10.571   4.550   2.418  0.2634 -0.0292 -0.1490
32631W        W48440   5.158  12.735   1.811  0.1943 -0.2039  0.1545
32632W        W48441   5.955   2.514   0.147 -0.0819  0.1550  0.1765
32633W        W48442   3.990  16.468  16.621  0.0087 -0.1348  0.1001
32634W        W48443  10.662   0.891   0.242  0.2473  0.2214  0.1791
32635W        W48444   4.138  17.613  15.994  0.0782  0.1189 -0.0247
32636W        W48445  10.519   3.354   0.771  0.0122  0.0076 -0.1379
32637W        W48446   3.876   5.944  11.620 -0.1951 -0.2604 -0.1000
32638W        W48447  14.796   7.410  13.592  0.2789 -0.0721 -0.1285
32639W        W48448  16.186  13.985  12.207  0.1779  0.1693 -0.1014
32640W        W48449   9.456  12.839  14.824  0.0923  0.1254 -0.1052
32641W        W48450  12.096   6.245   1.906  0.2505 -0.0415 -0.0624
32642W        W48451  14.543  12.930   3.976 -0.1815 -0.3430  0.1104
32643W        W48452   6.067   8.623  12.614  0.4292  0.0515  0.1344
32644W        W48453   9.403   0.120   4.111  0.0827  0.1424  0.2769
32645W        W48454   2.926  17.369  14.118 -0.4127 -0.3358  0.1597
32646W        W48455   5.485  10.531  12.637 -0.0484  0.0361 -0.1697
32647W        W48456  17.315   6.324  14.856  0.2239 -0.0031 -0.2131
32648W        W48457  17.489   3.438   5.672 -0.0864  0.4261 -0.0919
32649W        W48458  14.106   2.806  15.554 -0.1400 -0.3854 -0.4786
32650W        W48459   6.984   9.520  15.538  0.0278  0.0119  0.0381
32651W        W48460  16.606   0.065   1.960  0.2139 -0.0239  0.0430
32652W        W48461   3.045   3.229  16.452  0.2309  0.0041 -0.2464
32653W        W48462   5.360   7.603   3.612 -0.1324  0.1732  0.1192
32654W        W48463   7.043  12.520  15.030 -0.1707 -0.2530 -0.0130
32655W        W48464   8.094  14.045   5.178  0.1821 -0.0500  0.0824
32656W        W48465   3.464   1.269  13.724 -0.2731 -0.0827  0.3194
32657W        W48466  10.595  13.602   4.710 -0.1191 -0.1494 -0.3625
32658W        W48467   0.143   5.088  15.344 -0.1032  0.1879 -0.0271
32659ION     NA48468  10.782   4.763  13.727  0.0204 -0.1850 -0.0967
32660ION     NA48469  12.671   1.623  10.849 -0.2162  0.0588  0.1130
32661ION     NA48470   0.139   1.573  11.867  0.3655 -0.0333  0.0984
32662ION     NA48471   5.347   5.464  12.377 -0.1347 -0.1658  0.2219
32663ION     NA48472  12.485  14.816   0.545 -0.0754 -0.0664  0.1499
32664ION     NA48473   7.812   9.117   2.013 -0.1938 -0.2759  0.1539
32665ION     NA48474   8.323   6.431  10.666  0.0197  0.2791 -0.1299
32666ION     NA48475  16.231   3.881  10.526 -0.3039 -0.2628  0.2093
32667ION     NA48476   6.411  14.440  10.647 -0.3178  0.0922 -0.0394
32668ION     NA48477  12.509   6.308  10.938 -0.1279  0.2103  0.1333
32669ION     NA48478   0.426   0.855  10.349 -0.0357  0.4420 -0.0130
32670ION     NA48479   7.021   8.235   4.208 -0.0323 -0.0360  0.1849
32671ION     NA48480  13.315   3.318  10.624  0.1808 -0.2550  0.0081
32672ION     NA48481  17.279  10.598  13.711 -0.1211 -0.3218 -0.0907
32673ION     NA48482   8.171  10.195  10.540 -0.3050 -0.3190 -0.0730
32674ION     NA48483   4.298  10.302  13.649 -0.0989  0.1327  0.2234
32675ION     NA48484  13.282   9.272  11.008 -0.0319 -0.3163  0.0077
32676ION     NA48485  11.652   5.965  10.907 -0.0007  0.1060 -0.1378
32677ION     NA48486   7.462   6.899  10.606 -0.3546 -0.0157 -0.2441
32678ION     NA48487  17.661   9.568  10.517 -0.0264  0.0041 -0.1461
32679ION     NA48488   3.543   2.308   5.706  0.0223 -0.0612  0.3054
32680ION     NA48489  14.342   9.481  14.370  0.2026 -0.0917 -0.1678
32681ION     NA48490  14.635  10.891  10.825 -0.0071 -0.1928 -0.1817
32682ION     NA48491   0.836  15.571  10.889 -0.3430 -0.0755  0.0471
32683ION     NA48492   1.143  13.397   5.628  0.1316 -0.0657 -0.2587
32684ION     NA48493   5.083   8.724  10.056  0.1359 -0.2447 -0.2718
32685ION     NA48494   7.662   4.625   1.625 -0.2010 -0.0222  0.2962
32686ION     NA48495  14.771   8.806   6.267 -0.3458 -0.2310 -0.0721
32687ION     NA48496   0.264  16.265  10.710  0.1070 -0.2811 -0.0149
32688ION     NA48497  15.799  15.007  10.909 -0.5378  0.0065 -0.0237
32689ION     NA48498  13.367  12.332  10.910  0.0301 -0.2652 -0.1424
32690ION     NA48499   1.033  12.578   5.930 -0.0306  0.0516  0.2179
32691ION     NA48500   6.863  12.187  10.502  0.4225  0.0461 -0.0904
32692ION     NA48501  13.297   4.594  14.093  0.2268 -0.2953  0.0761
32693ION     NA48502  17.815  12.565  10.618 -0.1117  0.0927  0.2571
32694ION     NA48503   6.499   0.369   5.432 -0.1191  0.0211  0.2414
32695ION     NA48504  13.263   0.070  10.877 -0.0566 -0.1398  0.0820
32696ION     NA48505  14.055   8.689  10.919  0.0500 -0.1614 -0.0784
32697ION     NA48506  14.293   3.433  10.867  0.0713  0.1617  0.2416
32698ION     NA48507  17.054   5.928  10.227  0.0553  0.5788 -0.1293
32699ION     NA48508   0.017   3.302  10.551  0.1859  0.5269  0.1275
32700ION     NA48509  14.033   7.114  10.995  0.0487  0.1189  0.1472
32701ION     NA48510   0.723   0.060  10.518 -0.0404  0.1646 -0.0274
32702ION     NA48511   3.853   1.635  10.359 -0.2129  0.0351 -0.0886
32703ION     NA48512   2.664   0.298   3.731  0.0552 -0.3144  0.0451
32704ION     NA48513   2.973   1.229  10.461  0.0463  0.2572  0.3068
32705ION     NA48514  10.329   1.897  10.840  0.3625  0.0203  0.0931
32706ION     NA48515  12.313  14.840  11.846  0.1678 -0.0830  0.1038
32707ION     NA48516  13.820  13.940  14.769 -0.1629 -0.1338 -0.1017
32708ION     NA48517  11.588   4.064  11.182 -0.0833  0.1789  0.0993
32709ION     NA48518  16.967  15.864   6.285  0.0281  0.0328  0.1979
32710ION     NA48519   5.841   6.487   5.544  0.0424  0.1165  0.0014
32711ION     NA48520   3.090  13.384  10.430 -0.1636 -0.2214  0.1229
32712ION     NA48521   0.001  11.176   3.548 -0.0095 -0.0016  0.0744
32713ION     NA48522  16.833  11.876  10.666 -0.4342  0.1707 -0.0023
32714ION     NA48523  15.884  17.778   3.763 -0.0057  0.4423 -0.4260
32715ION     NA48524   3.391   8.918   9.889 -0.0384  0.1268  0.1673
32716ION     NA48525  16.151   2.573  12.973 -0.1681  0.3430 -0.1168
32717ION     NA48526   0.078  17.293  10.783  0.0761 -0.0034  0.2660
32718ION     NA48527   7.998  14.471  10.798  0.0265 -0.1805 -0.1259
32719ION     NA48528   5.404  11.889  10.204 -0.2342  0.1256 -0.0142
32720ION     NA48529  11.367   7.997  10.983 -0.0167  0.0510  0.0775
32721ION     NA48530  12.671  10.598  10.802  0.3228  0.1080 -0.1993
32722ION     NA48531  10.769   0.445  10.796  0.1602 -0.3418  0.3562
32723ION     NA48532  15.407   7.807  10.632 -0.2724 -0.1441  0.0809
32724ION     NA48533   2.961   7.028   2.154  0.4219  0.0705  0.2265
32725ION     NA48534  14.667   7.424  13.128  0.2507  0.3692 -0.1367
32726ION     NA48535   7.881   3.128  11.001  0.0099  0.0511  0.1387
32727ION     NA48536   9.731  15.238  11.146  0.1058  0.0992  0.0083
32728ION     NA48537   7.738   1.176   5.999 -0.1101 -0.0345  0.1558
32729ION     NA48538   7.705   7.276  16.367 -0.0571  0.0813  0.0865
32730ION     NA48539  17.591  13.322  11.019  0.2394  0.0974 -0.0063
32731ION     NA48540   2.624  10.284  10.204  0.2967  0.1674  0.2376
32732ION     NA48541   5.389  13.192  15.021  0.1937 -0.2122 -0.0599
32733ION     NA48542  11.878  17.794  10.973 -0.2269 -0.1548 -0.1024
32734ION     NA48543   8.419   5.135  11.269  0.1572  0.1166  0.0372
32735ION     NA48544  12.267   3.835  10.672 -0.2683  0.1449  0.1325
32736ION     NA48545   9.685   5.181  11.161 -0.3310 -0.0260  0.0520
32737ION     NA48546   8.484   0.976  10.975 -0.0884  0.0641  0.0512
32738ION     NA48547   2.041   4.787   9.944  0.1008 -0.2173 -0.0439
32739ION     NA48548   2.955  10.467  13.838 -0.2082  0.0202 -0.2526
32740ION     NA48549   6.794  17.272  10.832 -0.0936  0.1603  0.2233
32741ION     NA48550  12.676   0.739  11.066  0.1455  0.0205  0.1466
32742ION     NA48551  10.502   9.869   2.844 -0.4277  0.0548  0.1931
32743ION     NA48552   2.528   8.974   9.836 -0.0749  0.0393  0.0377
32744ION     NA48553   1.258  13.119  10.291  0.2323 -0.2076 -0.1275
32745ION     NA48554   4.474   6.332  12.679  0.0077  0.1004 -0.1043
32746ION     NA48555   5.121  15.167  10.436 -0.2620 -0.0375 -0.1037
32747ION     NA48556  15.821   8.665  10.834 -0.0870 -0.0793 -0.1152
32748ION     NA48557  14.893   6.041   6.059  0.3030  0.0493 -0.1191
32749ION     NA48558   0.518   5.189  10.902  0.1646  0.2124  0.1971
32750ION     NA48559   4.528  11.875  10.128  0.2715 -0.2839 -0.1145
32751ION     NA48560   3.317  14.258  10.476 -0.1480 -0.1326 -0.2555
32752ION     NA48561  17.562   2.687  11.651 -0.0131  0.2741 -0.1585
32753ION     NA48562  14.509   4.720  10.703  0.3570 -0.1616  0.3068
32754ION     NA48563  17.265  12.821   5.962  0.2113 -0.0061  0.0006
32755ION     NA48564   7.329   8.573   3.276 -0.2204  0.0601  0.0532
32756ION     NA48565   2.094  14.526   3.234 -0.1801 -0.2429 -0.2619
32757ION     NA48566   0.106  14.525  15.581 -0.1179  0.0948 -0.2017
32758ION     NA48567  11.602  11.762  10.658 -0.1013 -0.3852 -0.1123
32759ION     NA48568  12.617   5.726  10.902 -0.3988 -0.1037 -0.0296
32760ION     NA48569   0.211  10.296  10.405  0.1714  0.0735 -0.2036
32761ION     NA48570   9.650   8.025  10.892  0.0724  0.1431  0.2233
32762ION     NA48571  13.108  12.026   5.962  0.1706 -0.0937 -0.0671
32763ION     NA48572   6.991   3.475  10.806  0.1695  0.0681 -0.1300
32764ION     NA48573   0.360   6.225  11.297  0.1827  0.0212 -0.4296
32765ION     NA48574  14.602   6.479  10.768  0.1211 -0.1150 -0.1162
32766ION     NA48575   1.967  15.407   1.482  0.0732 -0.0648 -0.2918
32767ION     NA48576  12.090  16.941  10.809 -0.1316 -0.1769 -0.0312
32768ION     NA48577  12.138   2.886  10.839 -0.0923  0.3340 -0.2214
32769ION     NA48578  17.880   8.323  12.572 -0.2567 -0.1902 -0.2087
32770ION     NA48579  15.150   1.627  10.541 -0.0461  0.2006  0.0695
32771ION     NA48580   9.411   4.237  15.734 -0.3609 -0.1272  0.0925
32772ION     NA48581   6.448   5.217   5.348  0.0144 -0.1526  0.0225
32773ION     NA48582   4.048   9.686   9.858  0.0941 -0.1642 -0.1316
32774ION     NA48583   2.447   0.361  10.331  0.0265  0.1901  0.1349
32775ION     NA48584  10.374   2.727  11.019 -0.0258 -0.1745 -0.4092
32776ION     NA48585  11.295  16.708   4.831  0.2191 -0.1228 -0.1384
32777ION     NA48586   4.563   3.703  10.507  0.0952  0.0680 -0.0198
32778ION     NA48587   6.785   7.720   5.858  0.2152  0.1453  0.0751
32779ION     NA48588  11.408   4.951  10.908  0.0302 -0.0015  0.0594
32780ION     NA48589  14.547   7.761  10.811  0.1694  0.2576 -0.1132
32781ION     NA48590   2.107   6.725  10.368  0.1727 -0.1813  0.0674
32782ION     NA48591  16.883   7.402  10.549 -0.0227  0.0360  0.1040
32783ION     NA48592  14.250   9.493   5.108 -0.0978  0.3361 -0.2012
32784ION     NA48593   0.758   0.519   5.554  0.0025 -0.1340 -0.2271
32785ION     NA48594   9.426   7.706  14.864 -0.1492  0.3186 -0.1614
32786ION     NA48595   3.521  17.949  10.374 -0.1095 -0.0179 -0.2595
32787ION     NA48596  16.894  12.254  14.942 -0.0101  0.0094 -0.0772
32788ION     NA48597  16.283   7.824  10.810 -0.0448  0.0351 -0.2162
32789ION     NA48598  10.303  10.712  11.159 -0.0570  0.0759  0.0115
32790ION     NA48599   5.078   7.702   9.588 -0.1202  0.2355  0.0579
32791ION     NA48600  11.676   5.261   6.110 -0.0466 -0.2055  0.1985
32792ION     NA48601   7.978   1.653  15.222 -0.0672  0.0711 -0.1406
32793ION     NA48602  10.944  14.268  11.122 -0.1272 -0.1830  0.2478
32794ION     NA48603   4.289  15.671  10.672  0.1676  0.1321 -0.0207
32795ION     NA48604   7.703   4.769  10.770  0.1788 -0.1459  0.0083
32796ION     NA48605   9.794  10.942  13.550 -0.2960  0.0322  0.1199
32797ION     NA48606   1.187  10.912  10.210 -0.1568  0.0374 -0.1236
32798ION     NA48607   8.971   8.538  10.991  0.1953  0.1624 -0.0403
32799ION     NA48608   0.962   8.554  11.128  0.2864  0.0391  0.0270
32800ION     NA48609   4.339  17.586  10.376 -0.1906 -0.0455  0.0504
32801ION     NA48610   4.362   8.283   9.679 -0.0134  0.1028 -0.0183
32802ION     NA48611   9.409  13.463  11.003 -0.0556  0.0751  0.2518
32803ION     NA48612   3.726   4.298  10.361 -0.1334  0.1983  0.1451
32804ION     NA48613   2.562   0.522  15.402  0.0899 -0.0008 -0.0688
32805ION     NA48614  16.216   5.008   3.404 -0.1404 -0.3000  0.0794
32806ION     NA48615   0.428   1.379  13.359  0.2972  0.1134  0.1076
32807ION     NA48616   0.594   2.463  10.603  0.1801 -0.0261 -0.0061
32808ION     NA48617  10.331  10.285  10.772  0.1192  0.0791 -0.0407
32809ION     NA48618  17.726  14.124  11.559  0.1149 -0.1807 -0.3520
32810ION     NA48619   3.924   0.885  10.522  0.1655  0.0055  0.1637
32811ION     NA48620   0.855   1.832   4.220 -0.1301  0.2087  0.0125
32812ION     NA48621  10.985   7.308  11.073  0.2256 -0.1800 -0.1894
32813ION     NA48622   2.886  14.965  10.831  0.2099  0.0698  0.0509
32814ION     NA48623  11.991  16.174  10.952  0.0880  0.0081 -0.0848
32815ION     NA48624  11.966   7.603   6.252  0.0361  0.2197 -0.2566
32816ION     NA48625  17.528   6.803   3.116  0.0287 -0.0124  0.0393
32817ION     NA48626  17.658   5.803  10.231 -0.0280  0.2786 -0.0118
32818ION     NA48627   3.851   6.397   9.884 -0.1731  0.1125 -0.1090
32819ION     NA48628  12.854   3.161   6.301  0.3538 -0.1408 -0.2314
32820ION     NA48629   5.251   9.734  14.237 -0.4285 -0.1613 -0.3340
32821ION     NA48630  17.139   1.897  11.363  0.1223 -0.0429 -0.1510
32822ION     NA48631  16.986  10.406  10.863 -0.4499 -0.0436  0.1387
32823ION     NA48632   1.261   4.671  10.358  0.0783  0.2281  0.0046
32824ION     NA48633  11.750   1.564  10.929  0.3478  0.1234 -0.1358
32825ION     NA48634   9.183  10.136   3.414  0.1492 -0.2046 -0.2597
32826ION     NA48635  13.264  13.299  10.854 -0.1885  0.0515  0.1600
32827ION     NA48636  15.499  10.675  10.881 -0.2584  0.1847  0.0232
32828ION     NA48637   9.167   6.704  10.814 -0.0335  0.0907 -0.0350
32829ION     NA48638   2.764  14.066   2.147 -0.1902 -0.2439  0.0727
32830ION     NA48639   3.596   2.692   2.463 -0.1796 -0.0949 -0.0765
32831ION     NA48640   6.433   1.096  10.792 -0.1083 -0.1435  0.1704
32832ION     NA48641   5.120   5.517  14.340  0.2971 -0.0272 -0.2119
32833ION     NA48642   1.538  10.027   9.960  0.2123 -0.0020 -0.5083
32834ION     NA48643  17.541   4.619   5.667  0.0125 -0.1533 -0.0977
32835ION     NA48644   5.875   6.179   4.524 -0.1448  0.0482  0.1978
32836ION     NA48645  13.669  11.355   1.574  0.4263  0.0072  0.1819
32837ION     NA48646   6.660  15.998  10.654  0.0267  0.0950  0.3388
32838ION     NA48647  16.020   4.590  11.081  0.2548  0.0670 -0.0155
32839ION     NA48648  11.914   4.644  12.309  0.2712 -0.0171 -0.0333
32840ION     NA48649  15.999  15.729  14.244 -0.2124 -0.3706  0.1426
32841ION     NA48650  17.035   0.355  10.566  0.3409 -0.2618  0.1499
32842ION     NA48651  15.355   0.497   2.693 -0.0310 -0.2412 -0.4674
32843ION     NA48652  10.885   9.055  10.899  0.0372 -0.1585  0.1624
32844ION     NA48653   8.292   9.427   3.515 -0.0092 -0.0748 -0.1317
32845ION     NA48654   7.296   8.605  10.203  0.0249 -0.0649  0.3018
32846ION     NA48655   0.402  13.251  10.629 -0.0436 -0.0026 -0.0970
32847ION     NA48656   0.077  15.174  10.595 -0.0747 -0.1366 -0.1791
32848ION     NA48657   3.073  11.971   1.629 -0.0860  0.0896  0.0636
32849ION     NA48658   2.028   1.136  10.333  0.0986  0.1865 -0.0128
32850ION     NA48659   5.459  14.422  14.448 -0.0707 -0.0267 -0.0075
32851ION     NA48660  16.131   6.422   6.248 -0.2393 -0.0015 -0.0562
32852ION     NA48661   4.674   1.455  10.412  0.1650  0.3384 -0.1634
32853ION     NA48662   5.470   1.254  14.855  0.2956 -0.0376 -0.0170
32854ION     NA48663   0.416   9.386  10.326  0.0178 -0.3829 -0.3694
32855ION     NA48664   3.382   3.143   5.687 -0.1438  0.1653 -0.0486
32856ION     NA48665   0.105   8.355   5.994 -0.2867 -0.3489  0.0728
32857ION     NA48666  14.208   1.630   2.124  0.0788  0.1869 -0.1665
32858ION     NA48667   9.170   2.630  11.069 -0.1951 -0.2860 -0.0528
32859ION     NA48668  11.183   9.864  10.867  0.1173 -0.1396 -0.0123
32860ION     NA48669  16.824   5.433  10.534  0.2848  0.2857 -0.0167
32861ION     NA48670   0.445  11.295  10.682  0.3288  0.0011  0.0709
32862ION     NA48671   3.997   3.489  10.457  0.2053 -0.0383  0.0620
32863ION     NA48672  16.326   7.033   4.779 -0.0282 -0.1242 -0.1391
32864ION     NA48673   8.641   2.683  11.141 -0.0544  0.1150 -0.0923
32865ION     NA48674   9.934   9.435  10.674  0.2184  0.0527 -0.0054
32866ION     NA48675   9.033   5.822  10.821 -0.0378 -0.1059  0.0433
32867ION     NA48676   1.204   5.949  10.074  0.0934  0.0511  0.0442
32868ION     NA48677   2.893  11.136  10.039  0.1702 -0.3751 -0.2639
32869ION     NA48678   2.292  12.544  13.248  0.0122 -0.0762  0.1138
32870ION     NA48679   4.996  13.724  10.293  0.1243 -0.0901 -0.0151
32871ION     NA48680  17.760   3.140  13.500 -0.0520  0.3780 -0.2054
32872ION     NA48681  10.479   2.559   6.463  0.0147  0.2582  0.0626
32873ION     NA48682   4.023  14.230  15.898  0.0360  0.0670 -0.2581
32874ION     NA48683   2.100  15.609  10.801 -0.3129 -0.4618  0.1815
32875ION     NA48684  11.531   3.067  11.171  0.2256 -0.3921  0.1356
32876ION     NA48685   8.619  16.330   4.823 -0.1357 -0.2163  0.0392
32877ION     NA48686   1.762  14.881   2.449  0.0409  0.1213  0.2836
32878ION     NA48687   8.548  17.235  11.141 -0.0331 -0.1763 -0.0695
32879ION     NA48688  12.099  10.905  10.932  0.3329  0.3224 -0.0744
32880ION     NA48689  10.176   1.024  10.992 -0.0661  0.2644 -0.2244
32881ION     NA48690   8.420  12.075  10.604  0.1301 -0.3569 -0.2064
32882ION     NA48691   4.827  13.846   2.177  0.0280 -0.1692  0.0611
32883ION     NA48692   2.187   8.573   9.903  0.0945 -0.0169  0.1530
32884ION     NA48693   3.518   8.112   9.707 -0.0227 -0.0160 -0.1307
32885ION     NA48694   5.920   1.789  15.032  0.3415  0.1296 -0.0183
32886ION     NA48695   0.824   9.788  10.261  0.1612 -0.0584  0.1771
32887ION     NA48696  13.994   5.500  10.747 -0.0860  0.2047  0.0743
32888ION     NA48697  16.471   2.926  10.466  0.3569 -0.0723  0.0879
32889ION     NA48698   5.519   0.088  11.739  0.2509 -0.0209 -0.1282
32890ION     NA48699   6.485  12.239   4.987  0.1291  0.3312  0.0365
32891ION     NA48700  11.812  16.548  13.452  0.0623 -0.0181  0.1345
32892ION     NA48701   3.401  10.450   9.898  0.0462 -0.0354 -0.0959
32893ION     NA48702  13.868  15.083   5.820  0.0103 -0.4398  0.0409
32894ION     NA48703   1.286  14.682  10.912  0.0554  0.2058  0.2031
32895ION     NA48704  10.641  17.844  12.524 -0.0580  0.0947  0.2387
32896ION     NA48705  17.899  11.545   1.739 -0.0849 -0.1232  0.0886
32897ION     NA48706   9.656  14.410  10.943 -0.3686  0.0592  0.1425
32898ION     NA48707  13.458   1.602   3.141 -0.1999  0.1775 -0.2887
32899ION     NA48708  12.392   8.239   2.056 -0.0917  0.0125 -0.2364
32900ION     NA48709  12.795   4.174   6.160  0.1128 -0.1664  0.2187
32901ION     NA48710   8.611   4.421   5.345  0.0183  0.2044 -0.1310
32902ION     NA48711   8.014  17.543   0.076  0.0047 -0.2288  0.0608
32903ION     NA48712   5.097   1.057  10.423 -0.2826 -0.1228 -0.1417
32904ION     NA48713  14.718   9.848  10.715 -0.1033  0.0291 -0.2450
32905ION     NA48714   7.508   0.673  10.782 -0.0089 -0.2363 -0.0837
32906ION     NA48715   2.695   7.282  16.133 -0.2269 -0.2592 -0.1137
32907ION     NA48716   5.984   3.561   1.957  0.0957 -0.0000  0.1124
32908ION     NA48717   4.277  13.697  11.148  0.1360 -0.0272 -0.2461
32909ION     NA48718  12.345   9.969  11.413  0.1628 -0.0206 -0.1461
32910ION     NA48719   0.912  13.914  10.334  0.0932 -0.0563 -0.0213
32911ION     NA48720  10.171  13.755  11.127  0.0393  0.1194  0.0726
32912ION     NA48721  14.120  15.620  10.715  0.1246 -0.0006  0.0337
32913ION     NA48722  14.394   1.020  10.798  0.2428 -0.2884  0.0919
32914ION     NA48723  12.974  16.144  11.024  0.0841 -0.0657  0.1826
32915ION     NA48724  11.517   8.289   2.203 -0.2646 -0.1234  0.0331
32916ION     NA48725  11.250  13.575  15.902  0.3863 -0.1607  0.0254
32917ION     NA48726  11.596  14.707   6.226 -0.1637 -0.2343  0.0872
32918ION     NA48727   3.619   5.012  10.028 -0.1478 -0.0695  0.2431
32919ION     NA48728   4.058   2.495  10.405 -0.0431 -0.2507  0.0187
32920ION     NA48729   0.873   7.272  13.996  0.0246  0.1158 -0.0506
32921ION     NA48730  11.668  14.825  10.993 -0.0253  0.2788  0.1331
32922ION     NA48731   1.616   3.131   3.084  0.0451 -0.0385  0.0802
32923ION     NA48732  10.276  16.887  11.082 -0.0350 -0.0100 -0.2069
32924ION     NA48733  14.385  15.684   3.955  0.0988  0.1138 -0.1260
32925ION     NA48734  13.569  10.122  10.862  0.1193  0.2450 -0.0263
32926ION     NA48735   9.797  12.185  10.784  0.1968 -0.1402 -0.1085
32927ION     NA48736   0.742  10.304   5.700  0.1382  0.0690 -0.2516
32928ION     NA48737   3.102   8.002  12.293 -0.0026 -0.3780  0.0831
32929ION     NA48738   9.179   3.597  11.272 -0.1087 -0.0827  0.2991
32930ION     NA48739  10.219   5.376  11.115  0.0336  0.2049 -0.0675
32931ION     NA48740   2.747  17.324  10.419 -0.1087 -0.0048 -0.2508
32932ION     NA48741   5.030   7.137   5.611  0.3390 -0.0329 -0.1693
32933ION     NA48742   4.297   0.497  10.432 -0.0748 -0.3388  0.1518
32934ION     NA48743   9.857   6.198  10.944 -0.3001 -0.2402 -0.2676
32935ION     NA48744  10.954   3.513  10.999 -0.0839  0.3591  0.0687
32936ION     NA48745  16.954   4.550  10.403  0.1754  0.6059 -0.1704
32937ION     NA48746   7.994   8.426   5.725 -0.0355 -0.2755 -0.1758
32938ION     NA48747  10.445   9.378   6.233 -0.1642 -0.0917  0.0607
32939ION     NA48748   1.424  15.601  12.710 -0.1136 -0.0675 -0.0016
32940ION     NA48749   4.530   3.074   2.328  0.0440  0.2272 -0.2787
32941ION     NA48750  13.485   1.986  10.627  0.1145  0.0745  0.1300
32942ION     NA48751   2.924  12.150  10.106 -0.0782  0.1438  0.1310
32943ION     NA48752   4.708  10.646  14.508  0.1414 -0.0341 -0.0072
32944ION     NA48753  16.286  13.620  10.951  0.0437 -0.0702 -0.1138
32945ION     NA48754   5.089   5.250   0.004  0.0884 -0.0124 -0.0208
32946ION     NA48755   2.407   3.297  13.385 -0.1679 -0.0282  0.1035
32947ION     NA48756   4.105   8.808   9.672 -0.1374 -0.0879  0.0605
32948ION     NA48757  12.487  13.721   3.520 -0.0305 -0.0793 -0.4206
32949ION     NA48758  10.776  15.502   2.738 -0.0653  0.1057  0.0337
32950ION     NA48759   5.169  14.989   5.095  0.0800  0.1828  0.0971
32951ION     NA48760   2.794  11.618  13.551 -0.1483 -0.2432 -0.1732
32952ION     NA48761  11.475  16.188   6.176 -0.0213 -0.2491 -0.1392
32953ION     NA48762  10.518  14.797  11.169 -0.1561 -0.0465 -0.1581
32954ION     NA48763   5.381   0.454   1.305  0.0540  0.5146  0.0875
32955ION     NA48764   4.746   4.095   5.945  0.0523 -0.0586 -0.1558
32956ION     NA48765  12.300   8.016  11.012 -0.0067 -0.1499 -0.0946
32957ION     NA48766   5.006  14.261  10.292 -0.0925 -0.3976 -0.1726
32958ION     NA48767   5.157   0.114  10.366  0.1876  0.3060  0.0630
32959ION     NA48768  15.210  16.711   6.050 -0.1097 -0.0472  0.1563
32960ION     NA48769  14.876   9.320  10.765 -0.0449  0.2214 -0.5498
32961ION     NA48770   6.682   6.139  10.523 -0.0014  0.2222 -0.2189
32962ION     NA48771   4.203   9.632  10.553  0.0211  0.0959 -0.2164
32963ION     NA48772   7.533  16.647   5.953  0.0109  0.0141  0.0712
32964ION     NA48773  12.343   6.776  11.039 -0.1725 -0.0259  0.1214
32965ION     NA48774   6.203   5.348  10.472  0.0511  0.0767 -0.5556
32966ION     NA48775   9.406  17.235  11.114  0.2237  0.1877 -0.2832
32967ION     NA48776  16.989   8.349  10.607 -0.2755 -0.0478  0.0299
32968ION     NA48777   9.900   0.251  11.084  0.0492  0.0859  0.1858
32969ION     NA48778   9.303   9.979  10.793 -0.2559 -0.3130  0.2587
32970ION     NA48779   0.393   4.961   2.424 -0.4306  0.0500 -0.0730
32971ION     NA48780   9.377  17.833  12.552  0.2990  0.0405  0.2193
32972ION     NA48781   0.903   6.237  10.635  0.0264  0.4487 -0.3586
32973ION     NA48782   5.928   5.103  16.488 -0.2889  0.1500 -0.0577
32974ION     NA48783   2.084   0.754  11.283  0.1633  0.2200  0.3216
32975ION     NA48784   9.769  16.218  10.894 -0.0563  0.0933 -0.0647
32976ION     NA48785   5.979  10.551  10.017  0.0888 -0.2611 -0.3489
32977ION     NA48786   1.650   0.473  10.544 -0.0232 -0.3319  0.2107
32978ION     NA48787   7.970   3.134   1.681 -0.2072 -0.0394  0.0379
32979ION     NA48788  10.153   3.605  11.208  0.2372  0.1889  0.0386
32980ION     NA48789   9.103  10.479  10.786  0.0008 -0.1867 -0.1255
32981ION     NA48790   7.121   9.545  10.408  0.1930  0.0439  0.0398
32982ION     NA48791   4.291  16.674  10.589  0.2443 -0.1071 -0.0265
32983ION     NA48792  14.288  16.938   5.023  0.0355 -0.1207  0.4395
32984ION     NA48793   5.124  10.969   9.985  0.0136  0.1124 -0.2306
32985ION     NA48794   3.897  15.320   1.007 -0.1205 -0.3854 -0.1335
32986ION     NA48795  15.840   0.637  16.537 -0.1158  0.4343 -0.2909
32987ION     NA48796  12.267   4.655  10.830  0.0572  0.3422  0.0311
32988ION     NA48797  13.397   6.238  13.086 -0.2789  0.0609 -0.1374
32989ION     NA48798   4.383  10.531  16.218  0.0848 -0.3092  0.0942
32990ION     NA48799  11.825  17.790  14.999 -0.0999 -0.2233  0.1380
32991ION     NA48800   5.812   0.686  10.537 -0.1110  0.1345 -0.2812
32992ION     NA48801  11.098  17.427  10.874  0.1083  0.0090 -0.1129
32993ION     NA48802  17.360   1.103  10.529  0.0943 -0.0569  0.2383
32994ION     NA48803   9.059  12.624  10.591 -0.0682 -0.2225 -0.3442
32995ION     NA48804   5.581   2.501  10.754  0.2136  0.1262 -0.2017
32996ION     NA48805   5.976   8.789  10.280 -0.3033 -0.2212  0.1318
32997ION     NA48806  17.902   1.813  10.276 -0.0953  0.0023  0.0604
32998ION     NA48807  14.843   2.919  10.625  0.0608 -0.1442  0.2623
32999ION     NA48808  15.269   5.995   2.233 -0.0942  0.0868 -0.2282
33000ION     NA48809   9.391  14.529   6.254  0.0905 -0.1671  0.0308
33001ION     NA48810  11.994   7.699   0.263  0.0028 -0.3200 -0.1071
33002ION     NA48811   2.242  10.542  10.132  0.1614 -0.0339  0.1047
33003ION     NA48812   8.530   5.415  10.839  0.2198  0.1713  0.1612
33004ION     NA48813  13.709  16.895  11.063 -0.2369  0.2491  0.1429
33005ION     NA48814   3.486  15.971   5.787 -0.1741 -0.1410  0.0756
33006ION     NA48815   6.081  16.709  10.558  0.2928  0.1065  0.0541
33007ION     NA48816   3.909   5.906  10.145  0.1283 -0.2865 -0.0275
33008ION     NA48817   1.320  12.942   1.250 -0.0411 -0.1502 -0.1791
33009ION     NA48818  11.718   9.545  10.908  0.2360 -0.0712 -0.0138
33010ION     NA48819  15.018   1.979   6.055  0.2400 -0.2297  0.0550
33011ION     NA48820   1.451  12.276  10.089  0.0007 -0.2701  0.0953
33012ION     NA48821   8.110  10.731   5.532  0.2277 -0.1118  0.1708
33013ION     NA48822   8.580   4.148   6.311 -0.2447  0.1028 -0.0212
33014ION     NA48823   3.332   3.519   1.161  0.1768  0.1916 -0.0501
33015ION     NA48824  13.754   0.310  11.064  0.1495  0.1029 -0.3216
33016ION     NA48825  16.838  17.887  10.791 -0.1422  0.0615  0.2316
33017ION     NA48826  14.770  13.648  10.702  0.2096  0.1693 -0.2112
33018ION     NA48827   8.717  16.548  10.813  0.0490  0.1875 -0.1736
33019ION     NA48828   8.546  12.997  15.128 -0.1239  0.3425  0.1134
33020ION     NA48829   5.492  11.358   5.745 -0.0064  0.1317  0.0237
33021ION     NA48830  10.807  11.034   0.824  0.0406  0.0454 -0.2373
33022ION     NA48831   4.156  17.905   2.754 -0.0889  0.1966  0.2920
33023ION     NA48832   0.474  14.228   5.935 -0.2196  0.3990 -0.0848
33024ION     NA48833   8.582   5.301   5.985  0.1790 -0.0366  0.0206
33025ION     NA48834  14.978  15.569  10.814  0.2409  0.2613 -0.2028
33026ION     NA48835   2.603  11.932  10.444 -0.2751  0.2330  0.1744
33027ION     NA48836  11.162   1.060   5.117 -0.1405 -0.0758 -0.2427
33028ION     NA48837  17.072   6.469   2.335 -0.0908 -0.2245  0.0223
33029ION     NA48838  11.658  13.744  11.021 -0.0894 -0.2249 -0.0698
33030ION     NA48839  16.261  17.946  10.900 -0.0991  0.1129 -0.0312
33031ION     NA48840   4.114  11.024  10.008  0.0264  0.2665 -0.1147
33032ION     NA48841   2.255  13.339  10.399  0.2573 -0.0383  0.2321
33033ION     NA48842  15.722   9.939  16.006 -0.1946 -0.0404 -0.0291
33034ION     NA48843  16.915   5.983  15.125  0.1536 -0.0234 -0.1190
33035ION     NA48844   3.151   3.517  10.209  0.0763  0.2546 -0.0013
33036ION     NA48845  14.182   5.476   0.881 -0.0968 -0.1956 -0.1502
33037ION     NA48846   2.470  14.904  10.496  0.1314  0.0434 -0.0167
33038ION     NA48847  17.088   2.460   6.232  0.1490  0.0362 -0.0123
33039ION     NA48848   4.720  10.871   4.140  0.1426  0.0125 -0.0000
33040ION     NA48849   5.769   4.662  10.492 -0.2086 -0.3225 -0.0382
33041ION     NA48850  10.749  10.755   6.142  0.2096 -0.1345  0.1543
33042ION     NA48851  17.387  13.819   6.160  0.0448  0.3141  0.0041
33043ION     NA48852   8.681   8.070  10.787  0.2787  0.3414  0.1275
33044ION     NA48853  13.054   3.842   1.790  0.1870 -0.0337 -0.3474
33045ION     NA48854  16.521   1.192  10.405 -0.0351 -0.0624 -0.1166
33046ION     NA48855  12.683  13.742  10.943  0.1416  0.0097 -0.1293
33047ION     NA48856   5.810  11.508  10.114 -0.2031  0.2506 -0.2566
33048ION     NA48857   3.721   5.112   5.131  0.5286 -0.1080  0.0357
33049ION     NA48858  13.294  11.506  10.682 -0.0263  0.2617 -0.2892
33050ION     NA48859  15.458  15.455   3.752 -0.0333  0.2890  0.3033
33051ION     NA48860   3.511  16.693   6.206 -0.3641  0.0403 -0.1373
33052ION     NA48861  15.970   3.799   4.140  0.0455 -0.2467  0.1660
33053ION     NA48862  15.174  16.547  10.779 -0.1243  0.0649 -0.2824
33054ION     NA48863  16.583   1.929  16.515 -0.1633 -0.1492  0.0533
33055ION     NA48864   7.275  14.136  10.661  0.1235  0.2161  0.1162
33056ION     NA48865  12.048   9.957  10.944  0.0358 -0.3330  0.0716
33057ION     NA48866  16.175  10.738  10.958  0.1344  0.1758  0.2309
33058ION     NA48867  17.562  11.693   4.961  0.2495 -0.1476  0.0635
33059ION     NA48868  16.254   6.177  10.647 -0.5963  0.0542 -0.0494
33060ION     NA48869   6.859   3.690  12.291  0.0719 -0.2199 -0.3293
33061ION     NA48870   3.109   0.292   6.191  0.0318 -0.0389 -0.1981
33062ION     NA48871   5.688   7.272   9.990 -0.1103 -0.1011  0.1018
33063ION     NA48872  16.275  13.491  15.674  0.1363  0.0114 -0.0540
33064ION     NA48873   2.463   2.502  11.435  0.0480  0.0034 -0.3445
33065ION     NA48874   8.746   1.783  10.924  0.1079  0.2651 -0.0518
33066ION     NA48875   4.895  17.068   6.043  0.0884  0.0806  0.1321
33067ION     NA48876   0.499   6.332  10.313 -0.0756  0.3050 -0.1096
33068ION     NA48877   7.365   2.107  11.051  0.0491  0.2368 -0.0628
33069ION     NA48878   6.472  13.715  10.877 -0.2322  0.0820 -0.0831
33070ION     NA48879  15.433  17.476  11.012 -0.2533  0.2184  0.2294
33071ION     NA48880  12.774   6.371   3.615  0.2210 -0.1228  0.0064
33072ION     NA48881  12.696   8.313   0.085 -0.2669  0.0413  0.0803
33073ION     NA48882   7.741   6.394  14.449 -0.1268  0.0526 -0.0791
33074ION     NA48883   8.005   1.287  10.973  0.2079 -0.1185  0.1551
33075ION     NA48884  14.737  17.377  14.091 -0.5727  0.2004  0.3150
33076ION     NA48885   8.860   9.352  11.114 -0.0611  0.1388  0.0224
33077ION     NA48886   6.154  15.142  15.994  0.0955 -0.2142  0.0016
33078ION     NA48887  10.785   6.191  11.061 -0.1745 -0.0331 -0.1106
33079ION     NA48888  17.811  16.963   4.056  0.3070 -0.1356  0.2612
33080ION     NA48889   1.957   8.999  11.851  0.2265 -0.1883  0.0237
33081ION     NA48890   2.237   2.748  10.344 -0.1115  0.0761  0.1910
33082ION     NA48891   2.820   9.140   3.210 -0.1421  0.0112  0.5731
33083ION     NA48892  14.456   5.337   6.023  0.3246  0.1245  0.1036
33084ION     NA48893   4.746   5.144   5.953 -0.2198 -0.0125 -0.2404
33085ION     NA48894  17.421  15.350  11.234 -0.0417 -0.2133 -0.0084
33086ION     NA48895  13.077   8.498  10.982  0.0723  0.0131 -0.1356
33087ION     NA48896  12.620  12.790  10.905  0.0351  0.2651 -0.0805
33088ION     NA48897  17.677  16.554  16.529  0.1005 -0.0156 -0.1768
33089ION     NA48898  10.348  13.799   6.456 -0.2198 -0.1437  0.2461
33090ION     NA48899   2.826  17.383   6.260  0.1393  0.1732 -0.2099
33091ION     NA48900  15.774   0.008  11.005 -0.0304  0.1069 -0.3123
33092ION     NA48901   6.884  17.500   3.102  0.1037 -0.2897 -0.1171
33093ION     NA48902   6.755  16.848   1.256 -0.0921  0.2461 -0.6564
33094ION     NA48903   9.724   1.861  11.006 -0.3572  0.2886 -0.2996
33095ION     NA48904  11.077  15.313  11.770 -0.0891  0.0454  0.2148
33096ION     NA48905   1.521  14.020  10.550 -0.1042  0.1647  0.3666
33097ION     NA48906   7.225   0.285   4.147 -0.0052  0.0546  0.1578
33098ION     NA48907  12.392  17.840  10.777 -0.0953 -0.3536  0.1037
33099ION     NA48908   4.865   6.945   9.852  0.0522  0.1966  0.1820
33100ION     NA48909   0.655  10.654  11.851 -0.3650  0.3637  0.0032
33101ION     NA48910  11.218   9.479   3.363  0.0536 -0.0818 -0.0851
33102ION     NA48911   9.755   6.796   0.218  0.3260 -0.0333 -0.4060
33103ION     NA48912  10.600  11.154  11.001  0.1544  0.0360 -0.1381
33104ION     NA48913  17.464   8.731   6.113 -0.2137  0.1506  0.2604
33105ION     NA48914   0.509   5.447  12.992 -0.0739 -0.0289 -0.2916
33106ION     NA48915  15.442   4.176  10.603 -0.2390 -0.2238  0.1919
33107ION     NA48916   5.983  11.627  11.034  0.2688 -0.0051 -0.0728
33108ION     NA48917   0.593  14.080   1.059  0.1861 -0.2907 -0.0677
33109ION     NA48918  12.366  15.470  11.043 -0.2714 -0.1626  0.0523
33110ION     NA48919   2.013   0.150   6.161  0.1195 -0.1403 -0.2348
33111ION     NA48920   0.520   9.826  16.207  0.2074  0.1501 -0.2741
33112ION     NA48921   7.357  14.604  14.317  0.2864  0.1257 -0.1125
33113ION     NA48922   4.738   1.797  10.785  0.0634 -0.1355 -0.2258
33114ION     NA48923   0.733   7.225  10.074  0.3269  0.3398  0.1802
33115ION     NA48924  13.168   5.337   3.577  0.2544 -0.0777 -0.2137
33116ION     NA48925   3.006   6.470  10.129 -0.1531 -0.0905  0.0734
33117ION     NA48926   2.318   7.255  14.864  0.3649 -0.1663 -0.0115
33118ION     NA48927  13.888   7.662   4.433  0.1179 -0.0569  0.0236
33119ION     NA48928   2.261   9.572   9.860 -0.1657  0.0013  0.3526
33120ION     NA48929   4.970  11.994   5.568 -0.1779  0.0373 -0.2197
33121ION     NA48930  14.936   7.736   2.698  0.1781 -0.0531 -0.1543
33122ION     NA48931  16.144  16.056  10.950  0.0884  0.1381  0.0236
33123ION     NA48932  15.711   2.471  10.625  0.1073 -0.1134  0.1538
33124ION     NA48933   8.105  11.291  10.571 -0.0288  0.1692  0.0802
33125ION     NA48934   1.763  17.538  10.818  0.2467  0.0624 -0.0077
33126ION     NA48935  14.084   2.746  12.312  0.1365 -0.3161 -0.2294
33127ION     NA48936   2.305  10.308   4.757  0.2581 -0.1405 -0.0816
33128ION     NA48937   9.685  11.264  10.832 -0.0291  0.1425  0.3950
33129ION     NA48938  15.125  12.902  10.764  0.1075  0.1532 -0.0122
33130ION     NA48939  17.071   4.596  11.857 -0.1714 -0.1682 -0.1164
33131ION     NA48940   9.396  16.441   0.915 -0.1413 -0.1278 -0.0295
33132ION     NA48941  12.821   2.888   0.359 -0.3474  0.1327  0.0418
33133ION     NA48942   7.942  16.750  11.476 -0.0147 -0.1995  0.0481
33134ION     NA48943   4.642   2.264  12.861  0.0618 -0.1422 -0.0722
33135ION     NA48944  16.072  12.308  10.619  0.0366  0.2002 -0.2058
33136ION     NA48945  10.970   1.265  10.888 -0.0110  0.0750  0.0499
33137ION     NA48946   9.890   7.635   2.350 -0.0837 -0.2539  0.0929
33138ION     NA48947   7.597   5.737  10.708 -0.0779  0.0836  0.3095
33139ION     NA48948   6.343   2.002  10.916  0.0571 -0.1199 -0.1445
33140ION     NA48949  11.232  16.723  10.874 -0.0577  0.2351 -0.3413
33141ION     NA48950  16.083   6.909  10.758  0.0127 -0.0685 -0.1195
33142ION     NA48951  17.169  13.598   2.749  0.1262 -0.1351  0.1759
33143ION     NA48952  11.887  13.437   6.447 -0.2405 -0.2022  0.3861
33144ION     NA48953   6.150   3.897  10.778  0.1922 -0.1192  0.0940
33145ION     NA48954  16.337   2.246  14.839  0.3291 -0.0511 -0.0532
33146ION     NA48955  10.337   3.095   4.026 -0.1406  0.1076 -0.2995
33147ION     NA48956  14.080   1.648  14.180  0.0112  0.1406  0.1656
33148ION     NA48957   1.783   2.277   2.087  0.1838  0.0027  0.1025
33149ION     NA48958   9.828   8.810  12.347 -0.0245 -0.1248 -0.0492
33150ION     NA48959   0.714  17.360  10.538 -0.0791 -0.0541  0.2253
33151ION     NA48960   5.791  13.558  10.458  0.1460 -0.0761  0.1318
33152ION     NA48961   5.850  12.082  16.064  0.2406  0.1494  0.1385
33153ION     NA48962   8.202  17.810   1.012 -0.0178  0.1218 -0.4277
33154ION     NA48963   1.094   2.945  15.737 -0.0067  0.0591 -0.3284
33155ION     NA48964   5.246  10.067  10.155  0.1809  0.0918 -0.1799
33156ION     NA48965   9.287   5.322   6.059  0.3091 -0.1111  0.0215
33157ION     NA48966  16.362   7.683   6.466  0.2873 -0.1273  0.1361
33158ION     NA48967   3.967  12.335  10.019 -0.0332 -0.1708  0.0186
33159ION     NA48968   8.422  12.973   3.698 -0.2287 -0.0950 -0.0157
33160ION     NA48969   6.532  13.217   1.903 -0.0366 -0.3036 -0.1624
33161ION     NA48970   9.239   5.833   3.049  0.0207 -0.1097 -0.0198
33162ION     NA48971   9.347  14.450   2.398 -0.0216  0.0594  0.0188
33163ION     NA48972   8.193   7.641   5.942  0.0249 -0.1441  0.0862
33164ION     NA48973  11.883  14.184  12.851 -0.0332 -0.0711  0.1752
33165ION     NA48974  15.685   0.790  10.596 -0.1474  0.1109  0.0202
33166ION     NA48975  15.664   3.325  10.501 -0.0146  0.1880 -0.0199
33167ION     NA48976  13.441  14.361  10.962 -0.0477 -0.0439  0.0780
33168ION     NA48977   0.259  16.050   2.400 -0.1192  0.3032  0.2693
33169ION     NA48978  15.941  16.738  10.997  0.0780 -0.0598 -0.1130
33170ION     NA48979   5.198   4.356  10.503 -0.1371  0.1063  0.0742
33171ION     NA48980   3.546  11.680  10.058 -0.1828 -0.0275 -0.1676
33172ION     NA48981  11.500  13.243   4.504  0.1431  0.1964 -0.1130
33173ION     NA48982  16.217   4.749  10.626 -0.1619 -0.0126 -0.2413
33174ION     NA48983   1.162   0.506   5.961  0.2569  0.1255 -0.3528
33175ION     NA48984   5.616   1.617  10.680 -0.1198 -0.2038  0.1167
33176ION     NA48985   5.945  12.603  10.371 -0.1873  0.3210 -0.0427
33177ION     NA48986   8.681  14.594  15.780  0.6213 -0.0069  0.2227
33178ION     NA48987   4.115   6.108  13.448 -0.1886  0.0123  0.2888
33179ION     NA48988  16.800   5.248   2.972 -0.1501 -0.2500 -0.0542
33180ION     NA48989  14.520  17.183  11.142 -0.2596  0.0189 -0.1859
33181ION     NA48990   5.956   3.670  14.521 -0.0137  0.1622 -0.4016
33182ION     NA48991   1.957  11.358  10.239 -0.0524  0.0096 -0.4117
33183ION     NA48992  12.433  17.488  15.379 -0.0958 -0.1346 -0.0987
33184ION     NA48993  12.826   2.448  10.773 -0.0451  0.1519 -0.1202
33185ION     NA48994  13.151  12.831   6.482  0.0961  0.2154  0.0266
33186ION     NA48995  13.008  17.275  10.536  0.1273  0.1876 -0.0371
33187ION     NA48996   7.263   9.416   3.542 -0.0375 -0.1021  0.0626
33188ION     NA48997  16.297   8.823  10.630 -0.0716 -0.0562  0.0055
33189ION     NA48998   3.591   7.487   4.335 -0.2246 -0.1539 -0.1108
33190ION     NA48999  13.195  16.470   5.898  0.2367 -0.1377  0.2187
33191ION     NA49000   4.884   3.547  10.992 -0.0026 -0.0797 -0.0607
33192ION     NA49001  10.451   0.827  11.518  0.3206  0.1556  0.0573
33193ION     NA49002   7.231  10.462  10.321 -0.1288 -0.0823 -0.0657
33194ION     NA49003   9.997   8.762  10.850 -0.0053  0.0700 -0.1185
33195ION     NA49004  11.844  16.823   5.789 -0.0075 -0.0967 -0.3013
33196ION     NA49005   9.019   7.866  11.955  0.1193  0.2785 -0.0316
33197ION     NA49006  13.700   1.534  10.566  0.1500 -0.1218 -0.1275
33198ION     NA49007   5.634  16.055  10.314  0.1181  0.2530  0.1397
33199ION     NA49008  14.967  17.872   4.764  0.1091 -0.4583  0.2318
33200ION     NA49009   8.090  13.624  10.869  0.1203  0.1890  0.2342
33201ION     NA49010   1.348   2.991  10.407 -0.0725  0.1691  0.0631
33202ION     NA49011   0.730  12.313  10.482  0.1811 -0.0236 -0.0379
33203ION     NA49012   3.502  12.602   5.825  0.1795 -0.3991 -0.0140
33204ION     NA49013   6.239  17.369   4.404  0.0860 -0.0574 -0.0772
33205ION     NA49014   7.717   5.085   6.193  0.1725  0.0089 -0.1713
33206ION     NA49015   4.624   2.701  10.541  0.0851 -0.0842  0.3134
33207ION     NA49016  15.745   9.812  10.790 -0.3834  0.0385 -0.1498
33208ION     NA49017  12.140   1.417   6.518  0.0436  0.1244  0.0887
33209ION     NA49018   7.243  14.971  10.840  0.0784 -0.0762 -0.3106
33210ION     NA49019  16.076   5.809   4.565 -0.0592  0.1905 -0.0204
33211ION     NA49020  17.378  11.179  11.007  0.1974  0.3246  0.0157
33212ION     NA49021   5.795   9.211  10.066 -0.2964  0.2684  0.3257
33213ION     NA49022   0.305  16.141   0.903  0.0584 -0.0020 -0.0373
33214ION     NA49023  11.154   2.172  10.809 -0.0019  0.2407 -0.0558
33215ION     NA49024  16.990  15.769  10.979  0.3553  0.2137 -0.2471
33216ION     NA49025  13.399   7.059   5.896  0.0307  0.0769  0.2712
33217ION     NA49026   1.166  16.419  10.701 -0.3869 -0.0591  0.2196
33218ION     NA49027   5.353   3.429  10.835  0.5066  0.0816 -0.0544
33219ION     NA49028   3.960   1.292   1.997 -0.2193  0.0015  0.0368
33220ION     NA49029  14.934   7.264   6.349 -0.0556 -0.2508 -0.1454
33221ION     NA49030  14.060   8.981   2.931 -0.0397 -0.0947 -0.1622
33222ION     NA49031  16.191   9.683   3.730  0.1883  0.1312  0.2014
33223ION     NA49032  11.701   0.768  10.981 -0.2364 -0.1752  0.0488
33224ION     NA49033  11.384   6.990  11.242  0.3452  0.1540 -0.0736
33225ION     NA49034   7.292   7.435  10.723  0.2861  0.1255  0.1104
33226ION     NA49035   2.432   1.871  10.479 -0.0231 -0.0456  0.1085
33227ION     NA49036   8.681  16.079   0.265  0.2655  0.1863 -0.1115
33228ION     NA49037   6.786  10.251  10.389  0.2662  0.1709 -0.2856
33229ION     NA49038   9.033  15.583  10.720 -0.0200  0.1992 -0.0723
33230ION     NA49039  14.319   2.237  10.622  0.2069 -0.2447  0.0869
33231ION     NA49040  10.722  12.070  10.955 -0.0845 -0.1598  0.0364
33232ION     NA49041   6.604  16.604   6.017  0.0781  0.0274  0.0362
33233ION     NA49042   0.396   5.529  10.521 -0.0331 -0.1047 -0.0953
33234ION     NA49043  12.413   8.940  10.874  0.1831  0.1782  0.1732
33235ION     NA49044  16.311  13.989   2.444 -0.0871 -0.1639  0.1042
33236ION     NA49045   3.298  16.523  10.494  0.0070 -0.0849  0.1904
33237ION     NA49046   8.335   7.178  10.593  0.3204  0.4222  0.0222
33238ION     NA49047   6.750   4.621  10.421 -0.0358 -0.1250 -0.2217
33239ION     NA49048   6.065   9.638  10.239 -0.2406 -0.0523  0.0815
33240ION     NA49049   6.981  16.373  10.749 -0.1544 -0.0785 -0.3295
33241ION     NA49050  13.425   6.345  10.900  0.0034  0.1924  0.3071
33242ION     NA49051   9.195  11.531   4.299 -0.2114  0.0952 -0.0364
33243ION     NA49052  14.233  11.875  10.617  0.2658  0.0692  0.0272
33244ION     NA49053   2.417   3.694  10.207 -0.1717 -0.0393  0.0620
33245ION     NA49054  11.817   2.348   6.223  0.1497 -0.3136 -0.1120
33246ION     NA49055   8.469   3.662  11.267 -0.1567 -0.1424 -0.2630
33247ION     NA49056   2.548   1.232   0.492  0.1032  0.3862 -0.0329
33248ION     NA49057  11.705  12.702  10.872 -0.0810 -0.0065  0.1205
33249ION     NA49058   1.858  14.977   5.689 -0.0856  0.1663  0.1606
33250ION     NA49059  13.221  15.266  11.054 -0.1034  0.2646  0.0199
33251ION     NA49060   2.851   7.875  10.099 -0.0989 -0.1820  0.1515
33252ION     NA49061   7.322   2.744   5.707 -0.0096 -0.1092 -0.1135
33253ION     NA49062  14.532   2.435  16.614  0.2022  0.1313  0.1539
33254ION     NA49063   9.052  10.760   5.315  0.3801  0.0571 -0.0740
33255ION     NA49064  10.130  11.562  14.643 -0.1753 -0.3759  0.2578
33256ION     NA49065  14.174  12.750  10.744  0.2397  0.0175  0.1344
33257ION     NA49066   7.910   8.384  10.741  0.0814 -0.0628  0.0383
33258ION     NA49067  11.186  10.468  10.840  0.0455  0.0358  0.3456
33259ION     NA49068   3.457   7.218  10.067  0.0217  0.1260 -0.0796
33260ION     NA49069  17.932  14.166  10.530 -0.0229  0.1219  0.0383
33261ION     NA49070   7.158  13.136  10.736 -0.0224  0.0714 -0.1532
33262ION     NA49071   8.014  13.546   3.061  0.3095 -0.2157  0.0421
33263ION     NA49072  14.595  13.342   3.419  0.1112 -0.2527 -0.1140
33264ION     NA49073   9.082   0.114  11.094  0.0675  0.0990  0.0732
33265ION     NA49074  17.117  14.716  12.011  0.1595  0.0727  0.2179
33266ION     NA49075  11.247   8.409  15.242 -0.0292 -0.0314  0.0619
33267ION     NA49076   8.964  13.888   0.145 -0.0982 -0.0049 -0.3625
33268ION     NA49077   8.338  13.456   6.413  0.0556 -0.1489  0.1415
33269ION     NA49078   6.511   8.096  14.559 -0.1126 -0.2017 -0.3170
33270ION     NA49079  14.012   0.723   6.288  0.0810 -0.2079 -0.1015
33271ION     NA49080   9.924   2.036   6.428 -0.2163  0.2766 -0.1155
33272ION     NA49081  17.801   7.021  10.494 -0.1457  0.0934  0.2144
33273ION     NA49082   8.138  15.353  10.834 -0.0692 -0.3096 -0.2533
33274ION     NA49083   6.573   0.186  10.703  0.1455 -0.1966 -0.0999
33275ION     NA49084   4.002  17.118  10.489  0.5086  0.0357 -0.3508
33276ION     NA49085  16.591   4.888   5.666  0.0972 -0.3985  0.1599
33277ION     NA49086  15.367  10.680  11.363  0.1445 -0.0458  0.1589
33278ION     NA49087   9.765   4.418  11.135  0.0306  0.3132  0.0834
33279ION     NA49088   3.801   8.270   0.728 -0.1171  0.1495  0.1578
33280ION     NA49089  10.968   5.316  10.975 -0.2749  0.1871  0.0464
33281ION     NA49090   6.601   8.051  10.077 -0.0862  0.0237 -0.2821
33282ION     NA49091   5.362   2.018  10.535  0.0276 -0.2181 -0.0662
33283ION     NA49092   2.647   0.922   5.820  0.0900  0.0082 -0.0255
33284ION     NA49093   7.320   2.932   6.201  0.3335 -0.2416  0.1034
33285ION     NA49094  13.672   7.780  10.658  0.2039  0.1286 -0.1428
33286ION     NA49095  14.579  14.672  10.884  0.2632 -0.1984 -0.0317
33287ION     NA49096   0.495  16.130   6.034  0.1841  0.2657  0.1333
33288ION     NA49097   2.569  14.145  10.657 -0.1030  0.0149 -0.0165
33289ION     NA49098  16.801   1.962  10.313 -0.2229 -0.0796  0.1603
33290ION     NA49099   4.963  12.597  10.371  0.0782 -0.0272  0.1020
33291ION     NA49100   6.861   0.351   1.426 -0.0720  0.0852 -0.1346
33292ION     NA49101   4.232  14.696  10.602  0.1339  0.3301 -0.0977
33293ION     NA49102   3.907  13.146  10.235  0.2330 -0.1745 -0.2555
33294ION     NA49103  15.247   9.434  11.593 -0.0931 -0.1279 -0.0089
33295ION     NA49104  16.121  10.716   5.927  0.1059 -0.1612 -0.2693
33296ION     NA49105   3.451   9.259   4.851  0.1980 -0.0249 -0.0997
33297ION     NA49106   3.012   4.740  11.044 -0.3918 -0.0938  0.0294
33298ION     NA49107   1.284   3.848  10.635  0.1160  0.0556 -0.0359
33299ION     NA49108  12.352  11.526  10.767 -0.0170  0.1639  0.0730
33300ION     NA49109   6.593  11.110  10.285 -0.4079 -0.0713 -0.0123
33301ION     NA49110   0.101   7.603   5.692  0.1648 -0.2182 -0.3124
33302ION     NA49111  16.224  13.706   6.364 -0.1901  0.3980 -0.2434
33303ION     NA49112   1.206   7.079  10.275 -0.0659 -0.0568  0.0490
33304ION     NA49113   8.195   0.259   6.345 -0.2120 -0.0343 -0.0111
33305ION     NA49114   4.412   4.933  10.430 -0.0719  0.0568  0.2273
33306ION     NA49115  10.562   5.677   2.181  0.0683 -0.1624  0.1909
33307ION     NA49116   7.564  12.918   5.905 -0.2960 -0.0503 -0.1675
33308ION     NA49117   3.365  15.931  11.052  0.1884 -0.1360 -0.2722
33309ION     NA49118   4.937  17.120  10.414 -0.2222 -0.1268 -0.0563
33310ION     NA49119   0.725  16.702  12.721 -0.1477 -0.1215 -0.1669
33311ION     NA49120   4.284  17.929   5.788 -0.0334  0.0341  0.1061
33312ION     NA49121  10.521   7.958  10.834  0.2782  0.0662 -0.3300
33313ION     NA49122  17.053   9.229  10.592  0.0648  0.0003  0.2556
33314ION     NA49123  16.808  12.854  10.819 -0.1552 -0.0984 -0.0440
33315ION     NA49124  13.236  14.099  16.241  0.0294 -0.0345 -0.0128
33316ION     NA49125   4.885  16.123  11.721 -0.0154 -0.0939  0.0273
33317ION     NA49126   1.530   9.184  10.043 -0.0005 -0.0734  0.0882
33318ION     NA49127  13.144   7.667  10.798 -0.4861 -0.1385  0.0108
33319ION     NA49128   2.206   5.861  10.083 -0.0054 -0.0357 -0.0542
33320ION     NA49129   7.874  15.492   6.430 -0.0816 -0.0824 -0.1231
33321ION     NA49130   4.367  13.293   2.503 -0.0510 -0.1554  0.4107
33322ION     NA49131  16.895  10.532   0.144 -0.1831  0.0763 -0.2835
33323ION     NA49132  15.514   5.386  16.367  0.0397 -0.3612  0.0861
33324ION     NA49133  13.509   4.772  10.768 -0.0189 -0.2930  0.0611
33325ION     NA49134  15.425  11.412  10.891 -0.3120 -0.0051 -0.0456
33326ION     NA49135   8.947  15.720  14.484  0.1124 -0.2962 -0.1189
33327ION     NA49136   5.454   0.176  15.353  0.4068 -0.3394  0.0381
33328ION     NA49137  13.070   4.170  10.781  0.0901 -0.0344  0.3626
33329ION     NA49138   2.453  16.692  10.775  0.2508  0.3422 -0.0087
33330ION     NA49139   2.805   5.438   9.998  0.0269  0.0140  0.0110
33331ION     NA49140  15.145   5.159  10.914  0.2541  0.0252  0.2279
33332ION     NA49141  14.748   7.691  11.820 -0.1439 -0.0056  0.0661
33333ION     NA49142   8.034  12.871  10.708 -0.2682  0.3168  0.0305
33334ION     NA49143   4.943  15.808   3.611 -0.1320 -0.1108  0.0412
33335ION     NA49144  12.061   5.425  10.845 -0.0128  0.1813  0.2666
33336ION     NA49145  14.487   6.369   4.313 -0.0244 -0.3622 -0.2184
33337ION     NA49146   3.042   4.307   9.980 -0.4415 -0.0397  0.1835
33338ION     NA49147  15.311   0.718  13.028 -0.0147  0.1138 -0.2664
33339ION     NA49148   1.811  15.295  14.903 -0.1162 -0.1300 -0.0339
33340ION     NA49149   3.087   1.728   5.848  0.0513  0.0113  0.3452
33341ION     NA49150  12.567   2.193  12.336 -0.3762 -0.2808  0.3367
33342ION     NA49151  17.311  11.331  14.544 -0.2517  0.1430 -0.3956
33343ION     NA49152   5.798  16.852   6.019  0.2276 -0.1512  0.1401
33344ION     NA49153   0.457   8.314  10.358 -0.0363  0.0849  0.1102
33345ION     NA49154  17.157   3.326  10.375  0.1840  0.2456  0.1769
33346ION     NA49155   0.381   2.933   5.375 -0.1616  0.1854  0.0980
33347ION     NA49156   4.887   6.148  10.185  0.0885  0.1670 -0.1771
33348ION     NA49157   8.999   4.420  11.058 -0.1174  0.2069  0.1226
33349ION     NA49158   7.726   3.896  10.931 -0.2551  0.0106  0.0953
33350ION     NA49159  12.423   9.052   6.352 -0.2394 -0.0407  0.1454
33351ION     NA49160   6.138  15.554  12.403 -0.1306 -0.1460  0.2456
33352ION     NA49161  11.225   3.102   6.099  0.0440 -0.2588 -0.2040
33353ION     NA49162  16.289   9.829  10.632 -0.0537 -0.0774 -0.0706
33354ION     NA49163  16.258  14.687  10.983  0.0892 -0.3766 -0.0260
33355ION     NA49164   1.185  11.038  13.995 -0.1922 -0.2417 -0.0443
33356ION     NA49165  17.047   6.579   6.260 -0.3149  0.3265 -0.1439
33357ION     NA49166   7.175   1.314   0.619 -0.1270  0.1518  0.1792
33358ION     NA49167  16.987  14.220  11.031  0.1079  0.2076 -0.0314
33359ION     NA49168   5.855   6.682  10.222  0.2350 -0.1167 -0.0567
33360ION     NA49169   6.123   2.983  10.915 -0.0703 -0.0735  0.1050
33361ION     NA49170  14.517  12.013   6.138  0.1530  0.1858 -0.0474
33362ION     NA49171  17.173   0.153  15.969 -0.0341  0.2107  0.4236
33363ION     NA49172   9.211  11.776  10.600 -0.1131  0.0471  0.1709
33364ION     NA49173   6.894   6.344   5.855 -0.1466 -0.3465  0.1202
33365ION     NA49174   3.118   2.316  10.617 -0.1076 -0.0772  0.3164
33366ION     NA49175  15.423  14.121  10.906 -0.0114  0.1508  0.0950
33367ION     NA49176  11.433  10.928   2.047 -0.3560  0.1572  0.2105
33368ION     NA49177  10.977  15.674  10.980  0.2077  0.1642 -0.2391
33369ION     NA49178   2.852  10.748  11.893 -0.1685  0.0701 -0.0551
33370ION     NA49179   5.090   2.159   0.680 -0.3546  0.1358 -0.0938
33371ION     NA49180   5.111   1.157   1.673  0.1017 -0.0610  0.1655
33372ION     NA49181  11.879   5.524   4.091  0.3026  0.0357  0.0794
33373ION     NA49182  14.771   0.085  10.997  0.0943 -0.2128 -0.0124
33374ION     NA49183  15.126   0.885  10.628 -0.0760 -0.0755  0.0869
33375ION     NA49184  10.667  16.090  11.291 -0.2426 -0.3417 -0.1370
33376ION     NA49185   1.356  17.001  15.778  0.1206  0.2082  0.0914
33377ION     NA49186   6.447  14.892   3.845  0.2948 -0.0556  0.2246
33378ION     NA49187  14.733  11.850  10.674  0.0462  0.2417 -0.0610
33379ION     NA49188   4.354  14.429   0.697 -0.3206  0.1462  0.1263
33380ION     NA49189   6.171   9.180  16.419  0.2223 -0.2652 -0.2463
33381ION     NA49190  15.221   8.835  12.676  0.2520 -0.2427  0.1510
33382ION     NA49191  13.892   3.065   1.009  0.1819 -0.2176 -0.0752
33383ION     NA49192   7.060   5.402  10.669  0.1019  0.0635 -0.0508
33384ION     NA49193  17.424  16.276   6.067  0.0481  0.3611 -0.2266
33385ION     NA49194  17.620   8.219  10.577  0.3914  0.0527 -0.1508
33386ION     NA49195  14.178   4.774   2.019  0.0759 -0.6178  0.1044
33387ION     NA49196   9.951  10.134   6.283 -0.1230  0.0170  0.1904
33388ION     NA49197  16.711  13.043  12.342 -0.3399 -0.2170 -0.0044
33389ION     NA49198  15.911  14.064  11.104  0.1217  0.3959 -0.2299
33390ION     NA49199   7.851  17.648  11.065  0.0798  0.1427 -0.2071
33391ION     NA49200   0.223  16.505   5.079  0.0060 -0.0814  0.3173
33392ION     NA49201   5.634   5.640  10.426  0.1987  0.1622 -0.0080
33393ION     NA49202   4.408  17.626   4.519 -0.1790  0.1500  0.0513
33394ION     NA49203  10.797   4.381  11.103  0.1229  0.0782  0.2571
33395ION     NA49204   2.121  12.855  10.352 -0.1840  0.1145 -0.0542
33396ION     NA49205   8.815  13.276  12.374  0.1454 -0.2107 -0.0420
33397ION     NA49206   6.034   4.700   6.009  0.1146  0.1474  0.1282
33398ION     NA49207  14.166   0.444   5.258  0.0698  0.0869  0.2765
  17.95960  17.95960  16.71424
